  -1.99999996E-02     6.29689931E-32
  -1.79999992E-02     1.88906985E-31
  -1.60000008E-02     3.14844971E-31
  -1.40000004E-02     4.40782969E-31
  -1.20000001E-02     5.66720920E-31
  -9.99999978E-03     6.92658918E-31
  -8.00000038E-03     8.18596869E-31
  -6.00000005E-03     9.44534913E-31
  -4.00000019E-03     1.07047286E-30
  -2.00000009E-03     1.19641082E-30
   0.00000000         1.32234877E-30
   2.00000009E-03     1.44828672E-30
   4.00000019E-03     1.57422457E-30
   6.00000005E-03     1.70016243E-30
   8.00000038E-03     1.82610057E-30
   9.99999978E-03     1.95203852E-30
   1.20000001E-02     2.07797647E-30
   1.40000004E-02     2.20384314E-30
   1.60000008E-02     2.32922231E-30
   1.79999992E-02     2.45483225E-30
   1.99999996E-02     2.58130754E-30
   2.19999999E-02     2.70833804E-30
   2.40000002E-02     2.83668435E-30
   2.60000005E-02     2.96548298E-30
   2.80000009E-02     3.06227431E-30
   2.99999993E-02     3.11962659E-30
   3.20000015E-02     3.16860841E-30
   3.40000018E-02     3.21715538E-30
   3.59999985E-02     3.26590097E-30
   3.79999988E-02     3.31513481E-30
   3.99999991E-02     3.36384730E-30
   4.19999994E-02     3.41234387E-30
   4.39999998E-02     3.44060877E-30
   4.60000001E-02     3.44582270E-30
   4.80000004E-02     3.44139720E-30
   5.00000007E-02     3.43439276E-30
   5.20000011E-02     3.43563897E-30
   5.40000014E-02     3.43581990E-30
   5.60000017E-02     3.43592297E-30
   5.79999983E-02     3.43024336E-30
   5.99999987E-02     3.42061559E-30
   6.19999990E-02     3.39941644E-30
   6.40000030E-02     3.35688950E-30
   6.59999996E-02     3.31603383E-30
   6.80000037E-02     3.28725697E-30
   7.00000003E-02     3.28341527E-30
   7.19999969E-02     3.31666841E-30
   7.40000010E-02     3.42217363E-30
   7.59999976E-02     3.59019447E-30
   7.80000016E-02     3.79278349E-30
   7.99999982E-02     4.05695713E-30
   8.20000023E-02     4.31987065E-30
   8.39999989E-02     4.58828321E-30
   8.60000029E-02     4.91117176E-30
   8.79999995E-02     5.32273434E-30
   9.00000036E-02     5.78071710E-30
   9.20000002E-02     6.24801579E-30
   9.39999968E-02     6.73238303E-30
   9.60000008E-02     7.22229372E-30
   9.79999974E-02     7.74550343E-30
  0.100000001         8.28819739E-30
  0.101999998         8.80787272E-30
  0.104000002         9.31339848E-30
  0.105999999         9.85861195E-30
  0.108000003         1.04537913E-29
  0.109999999         1.11211267E-29
  0.112000003         1.18343678E-29
  0.114000000         1.24903606E-29
  0.115999997         1.29093098E-29
  0.118000001         1.29326060E-29
  0.119999997         1.24828337E-29
  0.122000001         1.16974289E-29
  0.123999998         1.07663832E-29
  0.126000002         9.80860999E-30
  0.128000006         8.85041922E-30
  0.129999995         7.84707968E-30
  0.131999999         6.84413737E-30
  0.134000003         5.83045424E-30
  0.136000007         4.81673913E-30
  0.137999997         3.84496491E-30
  0.140000001         2.91533696E-30
  0.142000005         1.93666512E-30
  0.143999994         1.15370670E-30
  0.145999998         7.42480976E-31
  0.148000002         4.65010613E-31
  0.150000006         1.37273537E-31
  0.151999995        -3.97407135E-34
  0.153999999         5.33990173E-31
  0.156000003         1.70062059E-30
  0.158000007         3.10234457E-30
  0.159999996         4.47970553E-30
  0.162000000         5.70437955E-30
  0.164000005         6.42138747E-30
  0.165999994         6.60384977E-30
  0.167999998         7.04863051E-30
  0.170000002         7.76543981E-30
  0.172000006         8.27173746E-30
  0.173999995         8.73601973E-30
  0.175999999         9.69631699E-30
  0.178000003         1.14255553E-29
  0.180000007         1.33058106E-29
  0.181999996         1.47531891E-29
  0.184000000         1.86796668E-29
  0.186000004         2.10898492E-29
  0.187999994         1.82795142E-29
  0.189999998         1.29375518E-29
  0.192000002        -1.24096262E-30
  0.194000006        -1.97861451E-29
  0.195999995        -4.31643993E-29
  0.197999999        -6.68012773E-29
  0.200000003        -9.91256341E-29
  0.202000007        -1.35077420E-28
  0.203999996        -1.75530507E-28
  0.206000000        -2.18667293E-28
  0.208000004        -2.49208474E-28
  0.209999993        -2.67932028E-28
  0.211999997        -2.66326115E-28
  0.214000002        -2.67198008E-28
  0.216000006        -2.68258930E-28
  0.217999995        -2.66112168E-28
  0.219999999        -2.92559592E-28
  0.222000003        -3.43242533E-28
  0.224000007        -4.23039901E-28
  0.225999996        -5.03829292E-28
  0.228000000        -5.84324160E-28
  0.230000004        -6.92191452E-28
  0.231999993        -7.04960945E-28
  0.233999997        -7.65025018E-28
  0.236000001        -7.67646450E-28
  0.238000005        -6.75992455E-28
  0.239999995        -4.14184186E-28
  0.241999999        -4.20573838E-29
  0.244000003         3.61399599E-28
  0.246000007         9.60567286E-28
  0.247999996         1.60641046E-27
  0.250000000         2.55835584E-27
  0.252000004         4.00870724E-27
  0.254000008         5.71605877E-27
  0.256000012         7.34996034E-27
  0.257999986         8.78343539E-27
  0.259999990         1.05875071E-26
  0.261999995         1.27985279E-26
  0.263999999         1.52026731E-26
  0.266000003         1.78434513E-26
  0.268000007         2.09403127E-26
  0.270000011         2.30503184E-26
  0.272000015         2.31296868E-26
  0.273999989         2.26192121E-26
  0.275999993         2.27513879E-26
  0.277999997         1.77883789E-26
  0.280000001         6.66657954E-27
  0.282000005        -3.84956071E-27
  0.284000009        -1.64130261E-26
  0.286000013        -3.22943261E-26
  0.287999988        -5.04527239E-26
  0.289999992        -7.47472393E-26
  0.291999996        -1.04058149E-25
  0.294000000        -1.36305575E-25
  0.296000004        -1.71308590E-25
  0.298000008        -2.05884771E-25
  0.300000012        -2.39954453E-25
  0.301999986        -2.72027467E-25
  0.303999990        -2.96771864E-25
  0.305999994        -3.07768166E-25
  0.307999998        -2.96187269E-25
  0.310000002        -2.53435938E-25
  0.312000006        -1.86683033E-25
  0.314000010        -9.97339894E-26
  0.316000015         1.59225996E-26
  0.317999989         1.79486305E-25
  0.319999993         3.54992831E-25
  0.321999997         5.30882731E-25
  0.324000001         7.22679420E-25
  0.326000005         9.71590082E-25
  0.328000009         1.28973108E-24
  0.330000013         1.60396021E-24
  0.331999987         1.93236843E-24
  0.333999991         2.30150228E-24
  0.335999995         2.64572923E-24
  0.338000000         2.93592532E-24
  0.340000004         3.18926012E-24
  0.342000008         3.33790833E-24
  0.344000012         3.35969904E-24
  0.345999986         3.22468056E-24
  0.347999990         2.92188754E-24
  0.349999994         2.49745691E-24
  0.351999998         1.81566948E-24
  0.354000002         7.77055503E-25
  0.356000006        -5.88864944E-25
  0.358000010        -2.15971163E-24
  0.360000014        -3.83120869E-24
  0.361999989        -5.56281557E-24
  0.363999993        -7.41803143E-24
  0.365999997        -9.55616161E-24
  0.368000001        -1.17461933E-23
  0.370000005        -1.38659501E-23
  0.372000009        -1.60382616E-23
  0.374000013        -1.82996734E-23
  0.375999987        -2.02920063E-23
  0.377999991        -2.18642266E-23
  0.379999995        -2.28317519E-23
  0.381999999        -2.27851981E-23
  0.384000003        -2.18839434E-23
  0.386000007        -1.98293142E-23
  0.388000011        -1.63912580E-23
  0.389999986        -1.18474436E-23
  0.391999990        -5.86812407E-24
  0.393999994         1.21573563E-24
  0.395999998         9.04782201E-24
  0.398000002         1.90153012E-23
  0.400000006         3.13289608E-23
  0.402000010         4.47843246E-23
  0.404000014         5.80771894E-23
  0.405999988         7.19315370E-23
  0.407999992         8.52605032E-23
  0.409999996         9.64693520E-23
  0.412000000         1.06429264E-22
  0.414000005         1.14441617E-22
  0.416000009         1.18029798E-22
  0.418000013         1.17235219E-22
  0.419999987         1.12440775E-22
  0.421999991         1.01775880E-22
  0.423999995         8.48457516E-23
  0.425999999         6.06494881E-23
  0.428000003         3.01192931E-23
  0.430000007        -6.29597383E-24
  0.432000011        -5.17525570E-23
  0.433999985        -1.02193630E-22
  0.435999990        -1.55338779E-22
  0.437999994        -2.18585834E-22
  0.439999998        -2.87622725E-22
  0.442000002        -3.61217465E-22
  0.444000006        -4.36256287E-22
  0.446000010        -5.06323190E-22
  0.448000014        -5.68654915E-22
  0.449999988        -6.12230985E-22
  0.451999992        -6.39687333E-22
  0.453999996        -6.57895455E-22
  0.456000000        -6.60918622E-22
  0.458000004        -6.38195389E-22
  0.460000008        -5.82762777E-22
  0.462000012        -4.98742552E-22
  0.463999987        -3.83775655E-22
  0.465999991        -2.34346695E-22
  0.467999995        -5.01480550E-23
  0.469999999         1.65993109E-22
  0.472000003         3.99770675E-22
  0.474000007         6.61638619E-22
  0.476000011         9.43042444E-22
  0.477999985         1.25110866E-21
  0.479999989         1.58407874E-21
  0.481999993         1.89420624E-21
  0.483999997         2.19818603E-21
  0.486000001         2.47717147E-21
  0.488000005         2.70593538E-21
  0.490000010         2.87702808E-21
  0.492000014         2.97127477E-21
  0.493999988         2.98025622E-21
  0.495999992         2.89816925E-21
  0.497999996         2.72367008E-21
  0.500000000         2.44304017E-21
  0.501999974         2.04975012E-21
  0.504000008         1.51656255E-21
  0.505999982         8.21796113E-22
  0.508000016        -1.67881039E-23
  0.509999990        -9.58237243E-22
  0.512000024        -2.00047229E-21
  0.513999999        -3.17296143E-21
  0.515999973        -4.42445460E-21
  0.518000007        -5.76005725E-21
  0.519999981        -7.19472165E-21
  0.522000015        -8.61394144E-21
  0.523999989        -9.99155824E-21
  0.526000023        -1.12687526E-20
  0.527999997        -1.23781601E-20
  0.529999971        -1.33824527E-20
  0.532000005        -1.42015828E-20
  0.533999979        -1.47292352E-20
  0.536000013        -1.49528308E-20
  0.537999988        -1.47619977E-20
  0.540000021        -1.41476658E-20
  0.541999996        -1.30534513E-20
  0.544000030        -1.14175069E-20
  0.546000004        -9.26997402E-21
  0.547999978        -6.48731703E-21
  0.550000012        -3.06636015E-21
  0.551999986         8.74122103E-22
  0.554000020         5.23486057E-21
  0.555999994         1.00457046E-20
  0.558000028         1.54408157E-20
  0.560000002         2.12655437E-20
  0.561999977         2.71914915E-20
  0.564000010         3.30895445E-20
  0.565999985         3.89745145E-20
  0.568000019         4.48562921E-20
  0.569999993         5.04924423E-20
  0.572000027         5.55730115E-20
  0.574000001         6.00685442E-20
  0.575999975         6.38063343E-20
  0.578000009         6.64969073E-20
  0.579999983         6.80022209E-20
  0.582000017         6.82552606E-20
  0.583999991         6.70555321E-20
  0.586000025         6.43582576E-20
  0.588000000         5.99599962E-20
  0.589999974         5.32758727E-20
  0.592000008         4.43083108E-20
  0.593999982         3.33029248E-20
  0.596000016         1.97646374E-20
  0.597999990         3.24901540E-21
  0.600000024        -1.66311658E-20
  0.601999998        -3.89775938E-20
  0.603999972        -6.28580428E-20
  0.606000006        -8.90025789E-20
  0.607999980        -1.16541632E-19
  0.610000014        -1.44659310E-19
  0.611999989        -1.74273332E-19
  0.614000022        -2.03624105E-19
  0.615999997        -2.31814497E-19
  0.617999971        -2.59797914E-19
  0.620000005        -2.84782336E-19
  0.621999979        -3.06258193E-19
  0.624000013        -3.24906696E-19
  0.625999987        -3.37967102E-19
  0.628000021        -3.42005967E-19
  0.629999995        -3.36619108E-19
  0.632000029        -3.22581181E-19
  0.634000003        -3.01275568E-19
  0.635999978        -2.71560345E-19
  0.638000011        -2.29423170E-19
  0.639999986        -1.73001310E-19
  0.642000020        -1.01164958E-19
  0.643999994        -1.41791617E-20
  0.646000028         8.81172630E-20
  0.648000002         2.06208902E-19
  0.649999976         3.39939153E-19
  0.652000010         4.88891297E-19
  0.653999984         6.48435516E-19
  0.656000018         8.11695274E-19
  0.657999992         9.76582769E-19
  0.660000026         1.13954986E-18
  0.662000000         1.29451140E-18
  0.663999975         1.43677922E-18
  0.666000009         1.56678131E-18
  0.667999983         1.67479135E-18
  0.670000017         1.74724120E-18
  0.671999991         1.78346509E-18
  0.674000025         1.77895241E-18
  0.675999999         1.72731990E-18
  0.677999973         1.61821488E-18
  0.680000007         1.45259461E-18
  0.681999981         1.22216297E-18
  0.684000015         9.16536591E-19
  0.685999990         5.39255637E-19
  0.688000023         8.86691928E-20
  0.689999998        -4.32982754E-19
  0.691999972        -1.01733982E-18
  0.694000006        -1.65266354E-18
  0.695999980        -2.34276968E-18
  0.698000014        -3.07903962E-18
  0.699999988        -3.81500786E-18
  0.702000022        -4.53639745E-18
  0.703999996        -5.24416585E-18
  0.705999970        -5.91553666E-18
  0.708000004        -6.51013765E-18
  0.709999979        -6.99928553E-18
  0.712000012        -7.34594287E-18
  0.713999987        -7.50316508E-18
  0.716000021        -7.46483933E-18
  0.717999995        -7.21322918E-18
  0.720000029        -6.72371403E-18
  0.722000003        -5.99194292E-18
  0.723999977        -4.99069538E-18
  0.726000011        -3.71245607E-18
  0.727999985        -2.17205283E-18
  0.730000019        -3.69748493E-19
  0.731999993         1.67175404E-18
  0.734000027         3.92469201E-18
  0.736000001         6.32302485E-18
  0.737999976         8.77726476E-18
  0.740000010         1.12797111E-17
  0.741999984         1.37838945E-17
  0.744000018         1.61337261E-17
  0.745999992         1.82650330E-17
  0.748000026         2.00942023E-17
  0.750000000         2.14977789E-17
  0.751999974         2.24382188E-17
  0.754000008         2.28418134E-17
  0.755999982         2.26152255E-17
  0.758000016         2.17184426E-17
  0.759999990         2.01234911E-17
  0.762000024         1.77784705E-17
  0.763999999         1.46937519E-17
  0.765999973         1.08949538E-17
  0.768000007         6.44414394E-18
  0.769999981         1.42371877E-18
  0.772000015        -4.13620747E-18
  0.773999989        -1.01103929E-17
  0.776000023        -1.63537544E-17
  0.777999997        -2.27377392E-17
  0.779999971        -2.91515256E-17
  0.782000005        -3.53890101E-17
  0.783999979        -4.11740366E-17
  0.786000013        -4.63177700E-17
  0.787999988        -5.06754170E-17
  0.790000021        -5.40803637E-17
  0.791999996        -5.63746021E-17
  0.794000030        -5.73352433E-17
  0.796000004        -5.67826999E-17
  0.797999978        -5.46639892E-17
  0.800000012        -5.08174307E-17
  0.801999986        -4.51980288E-17
  0.804000020        -3.80841796E-17
  0.805999994        -2.95569996E-17
  0.808000028        -1.95401385E-17
  0.810000002        -8.23135617E-18
  0.811999977         4.21954963E-18
  0.814000010         1.75990236E-17
  0.815999985         3.16064554E-17
  0.818000019         4.59086497E-17
  0.819999993         6.02530137E-17
  0.822000027         7.43393503E-17
  0.824000001         8.77450893E-17
  0.825999975         1.00067129E-16
  0.828000009         1.10807560E-16
  0.829999983         1.19690374E-16
  0.832000017         1.26454647E-16
  0.833999991         1.30721973E-16
  0.836000025         1.32088118E-16
  0.838000000         1.30457222E-16
  0.839999974         1.25758929E-16
  0.842000008         1.17649965E-16
  0.843999982         1.05978314E-16
  0.846000016         9.08193954E-17
  0.847999990         7.22378814E-17
  0.850000024         5.04654223E-17
  0.851999998         2.56915350E-17
  0.853999972        -1.73722632E-18
  0.856000006        -3.14845455E-17
  0.857999980        -6.28240234E-17
  0.860000014        -9.52193477E-17
  0.861999989        -1.28521196E-16
  0.864000022        -1.61753263E-16
  0.865999997        -1.94105581E-16
  0.867999971        -2.25161660E-16
  0.870000005        -2.54025340E-16
  0.871999979        -2.79776994E-16
  0.874000013        -3.01921612E-16
  0.875999987        -3.19345053E-16
  0.878000021        -3.31012800E-16
  0.879999995        -3.35998356E-16
  0.882000029        -3.33634314E-16
  0.884000003        -3.23335796E-16
  0.885999978        -3.04502442E-16
  0.888000011        -2.76628361E-16
  0.889999986        -2.39285828E-16
  0.892000020        -1.92376217E-16
  0.893999994        -1.36029666E-16
  0.896000028        -7.06159192E-17
  0.898000002         3.81004271E-18
  0.899999976         8.63707386E-17
  0.902000010         1.75921649E-16
  0.903999984         2.70876637E-16
  0.906000018         3.68931553E-16
  0.907999992         4.67496648E-16
  0.910000026         5.64425063E-16
  0.912000000         6.56865316E-16
  0.913999975         7.41094589E-16
  0.916000009         8.14030585E-16
  0.917999983         8.72413019E-16
  0.920000017         9.13239160E-16
  0.921999991         9.32558499E-16
  0.924000025         9.27226956E-16
  0.925999999         8.95120913E-16
  0.927999973         8.33521289E-16
  0.930000007         7.40837727E-16
  0.931999981         6.16463273E-16
  0.934000015         4.59881822E-16
  0.935999990         2.72426442E-16
  0.938000023         5.69004044E-17
  0.939999998        -1.83427764E-16
  0.941999972        -4.44297898E-16
  0.944000006        -7.19558989E-16
  0.945999980        -1.00299755E-15
  0.948000014        -1.28648349E-15
  0.949999988        -1.56035624E-15
  0.952000022        -1.81515921E-15
  0.953999996        -2.03999055E-15
  0.955999970        -2.22645660E-15
  0.958000004        -2.36613466E-15
  0.959999979        -2.44745151E-15
  0.962000012        -2.46169099E-15
  0.963999987        -2.40109150E-15
  0.966000021        -2.25961116E-15
  0.967999995        -2.03571049E-15
  0.970000029        -1.72719992E-15
  0.972000003        -1.33339778E-15
  0.973999977        -8.60369110E-16
  0.976000011        -3.15535972E-16
  0.977999985         2.91998462E-16
  0.980000019         9.49892817E-16
  0.981999993         1.64208486E-15
  0.984000027         2.35080273E-15
  0.986000001         3.05455285E-15
  0.987999976         3.73022637E-15
  0.990000010         4.35512959E-15
  0.991999984         4.90463501E-15
  0.994000018         5.35780442E-15
  0.995999992         5.69171200E-15
  0.998000026         5.88410029E-15
   1.00000000         5.91679153E-15
   1.00199997         5.77826480E-15
   1.00399995         5.45780640E-15
   1.00600004         4.94898820E-15
   1.00800002         4.25183773E-15
   1.00999999         3.36925354E-15
   1.01199996         2.31575886E-15
   1.01400006         1.10990729E-15
   1.01600003        -2.25327546E-16
   1.01800001        -1.65830670E-15
   1.01999998        -3.16024372E-15
   1.02199996        -4.69290600E-15
   1.02400005        -6.20995048E-15
   1.02600002        -7.66939629E-15
   1.02800000        -9.02370287E-15
   1.02999997        -1.02265803E-14
   1.03199995        -1.12347079E-14
   1.03400004        -1.20074645E-14
   1.03600001        -1.25072029E-14
   1.03799999        -1.26971882E-14
   1.03999996        -1.25536475E-14
   1.04200006        -1.20588625E-14
   1.04400003        -1.11919980E-14
   1.04600000        -9.95502661E-15
   1.04799998        -8.36547103E-15
   1.04999995        -6.43774644E-15
   1.05200005        -4.20575829E-15
   1.05400002        -1.71478146E-15
   1.05599999         9.95895176E-16
   1.05799997         3.86879588E-15
   1.05999994         6.82633042E-15
   1.06200004         9.80363133E-15
   1.06400001         1.27254520E-14
   1.06599998         1.55112722E-14
   1.06799996         1.80907247E-14
   1.07000005         2.03825570E-14
   1.07200003         2.23105175E-14
   1.07400000         2.38004112E-14
   1.07599998         2.47934506E-14
   1.07799995         2.52451546E-14
   1.08000004         2.51170951E-14
   1.08200002         2.43770492E-14
   1.08399999         2.30081660E-14
   1.08599997         2.10150060E-14
   1.08800006         1.83868288E-14
   1.09000003         1.51584965E-14
   1.09200001         1.14007340E-14
   1.09399998         7.16946135E-15
   1.09599996         2.52450504E-15
   1.09800005        -2.45943745E-15
   1.10000002        -7.68539675E-15
   1.10200000        -1.30380055E-14
   1.10399997        -1.84006744E-14
   1.10599995        -2.36483095E-14
   1.10800004        -2.86648113E-14
   1.11000001        -3.33291100E-14
   1.11199999        -3.75189924E-14
   1.11399996        -4.11128922E-14
   1.11600006        -4.40003733E-14
   1.11800003        -4.60880960E-14
   1.12000000        -4.72804948E-14
   1.12199998        -4.74881534E-14
   1.12399995        -4.66353979E-14
   1.12600005        -4.46960652E-14
   1.12800002        -4.16523708E-14
   1.13000000        -3.74990566E-14
   1.13199997        -3.22834072E-14
   1.13399994        -2.60559786E-14
   1.13600004        -1.88965055E-14
   1.13800001        -1.09224306E-14
   1.13999999        -2.22903369E-15
   1.14199996         7.03143522E-15
   1.14400005         1.66598879E-14
   1.14600003         2.64694459E-14
   1.14800000         3.62559510E-14
   1.14999998         4.58122411E-14
   1.15199995         5.49035033E-14
   1.15400004         6.32690447E-14
   1.15600002         7.06653703E-14
   1.15799999         7.68982520E-14
   1.15999997         8.17434025E-14
   1.16199994         8.49665390E-14
   1.16400003         8.64086702E-14
   1.16600001         8.59349416E-14
   1.16799998         8.34547614E-14
   1.16999996         7.89184798E-14
   1.17200005         7.23313214E-14
   1.17400002         6.37105928E-14
   1.17600000         5.31174565E-14
   1.17799997         4.07297080E-14
   1.17999995         2.67586788E-14
   1.18200004         1.14813122E-14
   1.18400002        -4.82977212E-15
   1.18599999        -2.19028981E-14
   1.18799996        -3.93150647E-14
   1.19000006        -5.65864629E-14
   1.19200003        -7.33298784E-14
   1.19400001        -8.90844202E-14
   1.19599998        -1.03341428E-13
   1.19799995        -1.15680672E-13
   1.20000005        -1.25690582E-13
   1.20200002        -1.32951999E-13
   1.20400000        -1.37120309E-13
   1.20599997        -1.37886000E-13
   1.20799994        -1.34974659E-13
   1.21000004        -1.28301504E-13
   1.21200001        -1.17913871E-13
   1.21399999        -1.03910580E-13
   1.21599996        -8.64240184E-14
   1.21800005        -6.57382880E-14
   1.22000003        -4.22319379E-14
   1.22200000        -1.63502990E-14
   1.22399998         1.12967725E-14
   1.22599995         4.01449673E-14
   1.22800004         6.94449652E-14
   1.23000002         9.83453295E-14
   1.23199999         1.25995649E-13
   1.23399997         1.51555458E-13
   1.23599994         1.74224133E-13
   1.23800004         1.93238559E-13
   1.24000001         2.07746906E-13
   1.24199998         2.16957677E-13
   1.24399996         2.20454013E-13
   1.24600005         2.17732137E-13
   1.24800003         2.08303183E-13
   1.25000000         1.92010849E-13
   1.25199997         1.68987762E-13
   1.25399995         1.39484249E-13
   1.25600004         1.03795580E-13
   1.25800002         6.24521051E-14
   1.25999999         1.61046120E-14
   1.26199996        -3.42663655E-14
   1.26400006        -8.74369275E-14
   1.26600003        -1.42152010E-13
   1.26800001        -1.97001879E-13
   1.26999998        -2.50484746E-13
   1.27199996        -3.01103462E-13
   1.27400005        -3.47256024E-13
   1.27600002        -3.87151032E-13
   1.27800000        -4.19429519E-13
   1.27999997        -4.42767107E-13
   1.28199995        -4.55754412E-13
   1.28400004        -4.57417199E-13
   1.28600001        -4.47116411E-13
   1.28799999        -4.24109614E-13
   1.28999996        -3.88031295E-13
   1.29200006        -3.39010612E-13
   1.29400003        -2.77339268E-13
   1.29600000        -2.03743448E-13
   1.29799998        -1.19400746E-13
   1.29999995        -2.56307884E-14
   1.30200005         7.57916475E-14
   1.30400002         1.82527984E-13
   1.30599999         2.92359669E-13
   1.30799997         4.02766010E-13
   1.30999994         5.10787484E-13
   1.31200004         6.13676156E-13
   1.31400001         7.08934593E-13
   1.31599998         7.93845512E-13
   1.31799996         8.65693205E-13
   1.32000005         9.21805817E-13
   1.32200003         9.60030774E-13
   1.32400000         9.78730551E-13
   1.32599998         9.76644872E-13
   1.32799995         9.52912987E-13
   1.33000004         9.06901615E-13
   1.33200002         8.38828464E-13
   1.33399999         7.49421846E-13
   1.33599997         6.39885551E-13
   1.33800006         5.11953056E-13
   1.34000003         3.68015704E-13
   1.34200001         2.10873894E-13
   1.34399998         4.36630136E-14
   1.34599996        -1.30038870E-13
   1.34800005        -3.06544449E-13
   1.35000002        -4.81724686E-13
   1.35200000        -6.51331040E-13
   1.35399997        -8.11436422E-13
   1.35599995        -9.58383871E-13
   1.35800004        -1.08832453E-12
   1.36000001        -1.19769927E-12
   1.36199999        -1.28413643E-12
   1.36399996        -1.34538810E-12
   1.36600006        -1.37928525E-12
   1.36800003        -1.38519697E-12
   1.37000000        -1.36281210E-12
   1.37199998        -1.31260302E-12
   1.37399995        -1.23622933E-12
   1.37600005        -1.13534377E-12
   1.37800002        -1.01264136E-12
   1.38000000        -8.71474713E-13
   1.38199997        -7.15946833E-13
   1.38399994        -5.50926600E-13
   1.38600004        -3.81540014E-13
   1.38800001        -2.12814982E-13
   1.38999999        -4.99808121E-14
   1.39199996         1.01667989E-13
   1.39400005         2.36739746E-13
   1.39600003         3.50164450E-13
   1.39800000         4.37697052E-13
   1.39999998         4.95208475E-13
   1.40199995         5.18611900E-13
   1.40400004         5.05197501E-13
   1.40600002         4.53484120E-13
   1.40799999         3.61348429E-13
   1.40999997         2.28220898E-13
   1.41199994         5.56442472E-14
   1.41400003        -1.54265543E-13
   1.41600001        -3.99618300E-13
   1.41799998        -6.77273775E-13
   1.41999996        -9.82538269E-13
   1.42200005        -1.30948074E-12
   1.42400002        -1.65219845E-12
   1.42600000        -2.00367630E-12
   1.42799997        -2.35682697E-12
   1.42999995        -2.70558315E-12
   1.43200004        -3.04177798E-12
   1.43400002        -3.35837478E-12
   1.43599999        -3.64814819E-12
   1.43799996        -3.90382301E-12
   1.44000006        -4.11805355E-12
   1.44200003        -4.28369796E-12
   1.44400001        -4.39636088E-12
   1.44599998        -4.45317914E-12
   1.44799995        -4.44944385E-12
   1.45000005        -4.38082296E-12
   1.45200002        -4.24516238E-12
   1.45400000        -4.04251068E-12
   1.45599997        -3.77391391E-12
   1.45799994        -3.43861268E-12
   1.46000004        -3.03837944E-12
   1.46200001        -2.57587137E-12
   1.46399999        -2.05606712E-12
   1.46599996        -1.48502283E-12
   1.46800005        -8.68465944E-13
   1.47000003        -2.12157277E-13
   1.47200000         4.75829825E-13
   1.47399998         1.18573033E-12
   1.47599995         1.90859177E-12
   1.47800004         2.63416524E-12
   1.48000002         3.35331090E-12
   1.48199999         4.05723372E-12
   1.48399997         4.73511291E-12
   1.48599994         5.37606548E-12
   1.48800004         5.97226348E-12
   1.49000001         6.51458444E-12
   1.49199998         6.99147207E-12
   1.49399996         7.39794684E-12
   1.49600005         7.73042654E-12
   1.49800003         7.97903757E-12
   1.50000000         8.13528932E-12
   1.50199997         8.19983057E-12
   1.50399995         8.16842601E-12
   1.50600004         8.03612558E-12
   1.50800002         7.80873716E-12
   1.50999999         7.48869543E-12
   1.51199996         7.07883448E-12
   1.51400006         6.58443872E-12
   1.51600003         6.01417917E-12
   1.51800001         5.37692243E-12
   1.51999998         4.68048300E-12
   1.52199996         3.93903790E-12
   1.52400005         3.16494422E-12
   1.52600002         2.37136331E-12
   1.52800000         1.57409339E-12
   1.52999997         7.85527567E-13
   1.53199995         2.17079925E-14
   1.53400004        -7.05344637E-13
   1.53600001        -1.37885818E-12
   1.53799999        -1.97880622E-12
   1.53999996        -2.49439944E-12
   1.54200006        -2.91629221E-12
   1.54400003        -3.23106234E-12
   1.54600000        -3.43023960E-12
   1.54799998        -3.51292780E-12
   1.54999995        -3.47312912E-12
   1.55200005        -3.31075683E-12
   1.55400002        -3.03029823E-12
   1.55599999        -2.63508139E-12
   1.55799997        -2.13090678E-12
   1.55999994        -1.52781097E-12
   1.56200004        -8.40833588E-13
   1.56400001        -9.00957369E-14
   1.56599998         7.10888054E-13
   1.56799996         1.54066441E-12
   1.57000005         2.37881676E-12
   1.57200003         3.20503910E-12
   1.57400000         3.99127779E-12
   1.57599998         4.71993798E-12
   1.57799995         5.36544203E-12
   1.58000004         5.90698280E-12
   1.58200002         6.33323862E-12
   1.58399999         6.62328482E-12
   1.58599997         6.76285330E-12
   1.58800006         6.74593020E-12
   1.59000003         6.57275233E-12
   1.59200001         6.23451464E-12
   1.59399998         5.72946595E-12
   1.59599996         5.05941643E-12
   1.59800005         4.23590503E-12