  -1.99999996E-02     2.91362755E-31
  -1.79999992E-02     8.74088289E-31
  -1.60000008E-02     1.45681375E-30
  -1.40000004E-02     2.03953931E-30
  -1.20000001E-02     2.62226459E-30
  -9.99999978E-03     3.20499005E-30
  -8.00000038E-03     3.78771514E-30
  -6.00000005E-03     4.37044060E-30
  -4.00000019E-03     4.95316569E-30
  -2.00000009E-03     5.53589078E-30
   0.00000000         6.11861586E-30
   2.00000009E-03     6.70134095E-30
   4.00000019E-03     7.28406641E-30
   6.00000005E-03     7.86679263E-30
   8.00000038E-03     8.44951885E-30
   9.99999978E-03     9.03224506E-30
   1.20000001E-02     9.61497052E-30
   1.40000004E-02     1.01978058E-29
   1.60000008E-02     1.07970657E-29
   1.79999992E-02     1.14263611E-29
   1.99999996E-02     1.20694215E-29
   2.19999999E-02     1.27073369E-29
   2.40000002E-02     1.33429299E-29
   2.60000005E-02     1.39679754E-29
   2.80000009E-02     1.42903250E-29
   2.99999993E-02     1.39803826E-29
   3.20000015E-02     1.32353141E-29
   3.40000018E-02     1.24030475E-29
   3.59999985E-02     1.15546528E-29
   3.79999988E-02     1.06555053E-29
   3.99999991E-02     9.75196057E-30
   4.19999994E-02     8.89127752E-30
   4.39999998E-02     7.98599340E-30
   4.60000001E-02     7.08948505E-30
   4.80000004E-02     6.27640106E-30
   5.00000007E-02     5.52060333E-30
   5.20000011E-02     4.82398281E-30
   5.40000014E-02     4.14178682E-30
   5.60000017E-02     3.47258861E-30
   5.79999983E-02     2.82674531E-30
   5.99999987E-02     2.17409016E-30
   6.19999990E-02     1.48863326E-30
   6.40000030E-02     7.78570110E-31
   6.59999996E-02     7.02700531E-32
   6.80000037E-02    -6.04349152E-31
   7.00000003E-02    -1.22735001E-30
   7.19999969E-02    -1.83787564E-30
   7.40000010E-02    -2.48577577E-30
   7.59999976E-02    -3.15103486E-30
   7.80000016E-02    -3.79545384E-30
   7.99999982E-02    -4.44489359E-30
   8.20000023E-02    -5.18642364E-30
   8.39999989E-02    -5.86558064E-30
   8.60000029E-02    -6.41766275E-30
   8.79999995E-02    -6.46556349E-30
   9.00000036E-02    -5.57215844E-30
   9.20000002E-02    -4.28754323E-30
   9.39999968E-02    -3.05270165E-30
   9.60000008E-02    -1.84494102E-30
   9.79999974E-02    -6.20670327E-31
  0.100000001         6.42602325E-31
  0.101999998         1.82102920E-30
  0.104000002         2.98944313E-30
  0.105999999         4.21153671E-30
  0.108000003         5.67343339E-30
  0.109999999         7.56132660E-30
  0.112000003         9.80936080E-30
  0.114000000         1.23464583E-29
  0.115999997         1.49902380E-29
  0.118000001         1.76153482E-29
  0.119999997         1.97064898E-29
  0.122000001         2.11718667E-29
  0.123999998         2.23305243E-29
  0.126000002         2.33337592E-29
  0.128000006         2.46715102E-29
  0.129999995         2.61599546E-29
  0.131999999         2.75668043E-29
  0.134000003         2.91573064E-29
  0.136000007         3.10599386E-29
  0.137999997         3.36093613E-29
  0.140000001         3.71260944E-29
  0.142000005         4.14370328E-29
  0.143999994         4.63764021E-29
  0.145999998         5.21110782E-29
  0.148000002         5.85947274E-29
  0.150000006         6.53185099E-29
  0.151999995         7.18314091E-29
  0.153999999         7.71669754E-29
  0.156000003         7.99854896E-29
  0.158000007         7.92695612E-29
  0.159999996         7.38689828E-29
  0.162000000         6.23855052E-29
  0.164000005         4.21894184E-29
  0.165999994         1.02398092E-29
  0.167999998        -3.59064812E-29
  0.170000002        -9.85200315E-29
  0.172000006        -1.80126895E-28
  0.173999995        -2.82288969E-28
  0.175999999        -4.06032158E-28
  0.178000003        -5.51460669E-28
  0.180000007        -7.16676955E-28
  0.181999996        -8.99034498E-28
  0.184000000        -1.09265546E-27
  0.186000004        -1.28943042E-27
  0.187999994        -1.47813024E-27
  0.189999998        -1.64307998E-27
  0.192000002        -1.76551885E-27
  0.194000006        -1.82300921E-27
  0.195999995        -1.78947261E-27
  0.197999999        -1.63678642E-27
  0.200000003        -1.33544464E-27
  0.202000007        -8.54433524E-28
  0.203999996        -1.64730385E-28
  0.206000000         7.57974622E-28
  0.208000004         1.93025385E-27
  0.209999993         3.35753530E-27
  0.211999997         5.03039690E-27
  0.214000002         6.92083696E-27
  0.216000006         8.97770472E-27
  0.217999995         1.11220790E-26
  0.219999999         1.32459792E-26
  0.222000003         1.52105941E-26
  0.224000007         1.68437519E-26
  0.225999996         1.79415936E-26
  0.228000000         1.82753280E-26
  0.230000004         1.75978906E-26
  0.231999993         1.56539940E-26
  0.233999997         1.21953243E-26
  0.236000001         7.00017603E-27
  0.238000005        -1.04980251E-28
  0.239999995        -9.21979257E-27
  0.241999999        -2.03406814E-26
  0.244000003        -3.33316690E-26
  0.246000007        -4.78943679E-26
  0.247999996        -6.35423700E-26
  0.250000000        -7.95792034E-26
  0.252000004        -9.50841844E-26
  0.254000008        -1.08910371E-25
  0.256000012        -1.19697674E-25
  0.257999986        -1.25903051E-25
  0.259999990        -1.25851467E-25
  0.261999995        -1.17811298E-25
  0.263999999        -1.00093827E-25
  0.266000003        -7.11795481E-26
  0.268000007        -2.98670258E-26
  0.270000011         2.45580211E-26
  0.272000015         9.21387319E-26
  0.273999989         1.72058292E-25
  0.275999993         2.62452371E-25
  0.277999997         3.60242947E-25
  0.280000001         4.61008785E-25
  0.282000005         5.58906817E-25
  0.284000009         6.46668333E-25
  0.286000013         7.15688091E-25
  0.287999988         7.56225138E-25
  0.289999992         7.57738025E-25
  0.291999996         7.09362954E-25
  0.294000000         6.00541121E-25
  0.296000004         4.21801855E-25
  0.298000008         1.65684468E-25
  0.300000012        -1.72221672E-25
  0.301999986        -5.92153607E-25
  0.303999990        -1.08901893E-24
  0.305999994        -1.65127362E-24
  0.307999998        -2.25991866E-24
  0.310000002        -2.88770561E-24
  0.312000006        -3.49866162E-24
  0.314000010        -4.04804881E-24
  0.316000015        -4.48287407E-24
  0.317999989        -4.74305972E-24
  0.319999993        -4.76338393E-24
  0.321999997        -4.47625473E-24
  0.324000001        -3.81537783E-24
  0.326000005        -2.72030538E-24
  0.328000009        -1.14182617E-24
  0.330000013         9.51931668E-25
  0.331999987         3.56887537E-24
  0.333999991         6.68607659E-24
  0.335999995         1.02430094E-23
  0.338000000         1.41353509E-23
  0.340000004         1.82098585E-23
  0.342000008         2.22609195E-23
  0.344000012         2.60293980E-23
  0.345999986         2.92044606E-23
  0.347999990         3.14289915E-23
  0.349999994         3.23091962E-23
  0.351999998         3.14288937E-23
  0.354000002         2.83688108E-23
  0.356000006         2.27309449E-23
  0.358000010         1.41679040E-23
  0.360000014         2.41666059E-24
  0.361999989        -1.26641268E-23
  0.363999993        -3.10545729E-23
  0.365999997        -5.25335199E-23
  0.368000001        -7.66402098E-23
  0.370000005        -1.02640403E-22
  0.372000009        -1.29499848E-22
  0.374000013        -1.55868616E-22
  0.375999987        -1.80079678E-22
  0.377999991        -2.00165490E-22
  0.379999995        -2.13895810E-22
  0.381999999        -2.18839759E-22
  0.384000003        -2.12454858E-22
  0.386000007        -1.92203713E-22
  0.388000011        -1.55699408E-22
  0.389999986        -1.00877305E-22
  0.391999990        -2.61907201E-23
  0.393999994         6.91753011E-23
  0.395999998         1.85079251E-22
  0.398000002         3.20197884E-22
  0.400000006         4.71812381E-22
  0.402000010         6.35620699E-22
  0.404000014         8.05592531E-22
  0.405999988         9.73884406E-22
  0.407999992         1.13083526E-21
  0.409999996         1.26505824E-21
  0.412000000         1.36365106E-21
  0.414000005         1.41253509E-21
  0.416000009         1.39694024E-21
  0.418000013         1.30203873E-21
  0.419999987         1.11373034E-21
  0.421999991         8.19570591E-22
  0.423999995         4.09825761E-22
  0.425999999        -1.21374366E-22
  0.428000003        -7.74823624E-22
  0.430000007        -1.54501819E-21
  0.432000011        -2.41898994E-21
  0.433999985        -3.37526667E-21
  0.435999990        -4.38304710E-21
  0.437999994        -5.40167640E-21
  0.439999998        -6.38052147E-21
  0.442000002        -7.25933867E-21
  0.444000006        -7.96922685E-21
  0.446000010        -8.43424453E-21
  0.448000014        -8.57375451E-21
  0.449999988        -8.30552989E-21
  0.451999992        -7.54963868E-21
  0.453999996        -6.23306562E-21
  0.456000000        -4.29499801E-21
  0.458000004        -1.69265700E-21
  0.460000008         1.59252483E-21
  0.462000012         5.54859992E-21
  0.463999987         1.01269848E-20
  0.465999991         1.52368688E-20
  0.467999995         2.07405506E-20
  0.469999999         2.64501276E-20
  0.472000003         3.21260277E-20
  0.474000007         3.74777926E-20
  0.476000011         4.21676061E-20
  0.477999985         4.58169428E-20
  0.479999989         4.80166778E-20
  0.481999993         4.83408357E-20
  0.483999997         4.63641293E-20
  0.486000001         4.16831433E-20
  0.488000005         3.39408878E-20
  0.490000010         2.28542168E-20
  0.492000014         8.24333544E-21
  0.493999988        -9.93762994E-21
  0.495999992        -3.15702754E-20
  0.497999996        -5.63433234E-20
  0.500000000        -8.37275900E-20
  0.501999974        -1.12956359E-19
  0.504000008        -1.43013350E-19
  0.505999982        -1.72630293E-19
  0.508000016        -2.00296305E-19
  0.509999990        -2.24280821E-19
  0.512000024        -2.42671863E-19
  0.513999999        -2.53430640E-19
  0.515999973        -2.54463478E-19
  0.518000007        -2.43710673E-19
  0.519999981        -2.19251459E-19
  0.522000015        -1.79423449E-19
  0.523999989        -1.22953432E-19
  0.526000023        -4.90956961E-20
  0.527999997         4.22275089E-20
  0.529999971         1.50289282E-19
  0.532000005         2.73432642E-19
  0.533999979         4.08964376E-19
  0.536000013         5.53077101E-19
  0.537999988         7.00808301E-19
  0.540000021         8.46045552E-19
  0.541999996         9.81587005E-19
  0.544000030         1.09926420E-18
  0.546000004         1.19013289E-18
  0.547999978         1.24473766E-18
  0.550000012         1.25345036E-18
  0.551999986         1.20688102E-18
  0.554000020         1.09635532E-18
  0.555999994         9.14449925E-19
  0.558000028         6.55571500E-19
  0.560000002         3.16559772E-19
  0.561999977        -1.02707695E-19
  0.564000010        -5.98736695E-19
  0.565999985        -1.16389523E-18
  0.568000019        -1.78598427E-18
  0.569999993        -2.44793597E-18
  0.572000027        -3.12767970E-18
  0.574000001        -3.79820782E-18
  0.575999975        -4.42787921E-18
  0.578000009        -4.98098428E-18
  0.579999983        -5.41860046E-18
  0.582000017        -5.69974426E-18
  0.583999991        -5.78282545E-18
  0.586000025        -5.62739284E-18
  0.588000000        -5.19613850E-18
  0.589999974        -4.45712707E-18
  0.592000008        -3.38617882E-18
  0.593999982        -1.96933465E-18
  0.596000016        -2.05306474E-19
  0.597999990         1.89220253E-18
  0.600000024         4.29242921E-18
  0.601999998         6.94587035E-18
  0.603999972         9.78313459E-18
  0.606000006         1.27144666E-17
  0.607999980         1.56300839E-17
  0.610000014         1.84014434E-17
  0.611999989         2.08835543E-17
  0.614000022         2.29184004E-17
  0.615999997         2.43395281E-17
  0.617999971         2.49777691E-17
  0.620000005         2.46680793E-17
  0.621999979         2.32573443E-17
  0.624000013         2.06130150E-17
  0.625999987         1.66323026E-17
  0.628000021         1.12516474E-17
  0.629999995         4.45608607E-18
  0.632000029        -3.71187332E-18
  0.634000003        -1.31443681E-17
  0.635999978        -2.36617760E-17
  0.638000011        -3.50083085E-17
  0.639999986        -4.68500971E-17
  0.642000020        -5.87762978E-17
  0.643999994        -7.03036486E-17
  0.646000028        -8.08847842E-17
  0.648000002        -8.99206670E-17
  0.649999976        -9.67772266E-17
  0.652000010        -1.00806099E-16
  0.653999984        -1.01369376E-16
  0.656000018        -9.78678808E-17
  0.657999992        -8.97723965E-17
  0.660000026        -7.66569052E-17
  0.662000000        -5.82328865E-17
  0.663999975        -3.43833735E-17
  0.666000009        -5.19517856E-18
  0.667999983         2.90121126E-17
  0.670000017         6.76622822E-17
  0.671999991         1.09905417E-16
  0.674000025         1.54609506E-16
  0.675999999         2.00362256E-16
  0.677999973         2.45484680E-16
  0.680000007         2.88057853E-16
  0.681999981         3.25963345E-16
  0.684000015         3.56938308E-16
  0.685999990         3.78644586E-16
  0.688000023         3.88751621E-16
  0.689999998         3.85031690E-16
  0.691999972         3.65465282E-16
  0.694000006         3.28354069E-16
  0.695999980         2.72437983E-16
  0.698000014         1.97012174E-16
  0.699999988         1.02039154E-16
  0.702000022        -1.17490873E-17
  0.703999996        -1.42764571E-16
  0.705999970        -2.88498019E-16
  0.708000004        -4.45481044E-16
  0.709999979        -6.09280646E-16
  0.712000012        -7.74531215E-16
  0.713999987        -9.35008224E-16
  0.716000021        -1.08374689E-15
  0.717999995        -1.21320677E-15
  0.720000029        -1.31548346E-15
  0.722000003        -1.38256413E-15
  0.723999977        -1.40662569E-15
  0.726000011        -1.38036618E-15
  0.727999985        -1.29736458E-15
  0.730000019        -1.15245651E-15
  0.731999993        -9.42114831E-16
  0.734000027        -6.64819008E-16
  0.736000001        -3.21400061E-16
  0.737999976         8.46583160E-17
  0.740000010         5.46978725E-16
  0.741999984         1.05612779E-15
  0.744000018         1.59954856E-15
  0.745999992         2.16160436E-15
  0.748000026         2.72374583E-15
  0.750000000         3.26481353E-15
  0.751999974         3.76148231E-15
  0.754000008         4.18884643E-15
  0.755999982         4.52114678E-15
  0.758000016         4.73262846E-15
  0.759999990         4.79851237E-15
  0.762000024         4.69606035E-15
  0.763999999         4.40570931E-15
  0.765999973         3.91223131E-15
  0.768000007         3.20588736E-15
  0.769999981         2.28352671E-15
  0.772000015         1.14958486E-15
  0.773999989        -1.83073307E-16
  0.776000023        -1.69251540E-15
  0.777999997        -3.34735647E-15
  0.779999971        -5.10667863E-15
  0.782000005        -6.92029391E-15
  0.783999979        -8.72938349E-15
  0.786000013        -1.04675417E-14
  0.787999988        -1.20622337E-14
  0.790000021        -1.34366598E-14
  0.791999996        -1.45120274E-14
  0.794000030        -1.52101639E-14
  0.796000004        -1.54564556E-14
  0.797999978        -1.51830148E-14
  0.800000012        -1.43319957E-14
  0.801999986        -1.28589639E-14
  0.804000020        -1.07361917E-14
  0.805999994        -7.95575526E-15
  0.808000028        -4.53228992E-15
  0.810000002        -5.05272411E-16
  0.811999977         4.05931858E-15
  0.814000010         9.06810011E-15
  0.815999985         1.44002530E-14
  0.818000019         1.99084794E-14
  0.819999993         2.54210207E-14
  0.822000027         3.07448023E-14
  0.824000001         3.56697094E-14
  0.825999975         3.99739683E-14
  0.828000009         4.34306183E-14
  0.829999983         4.58148839E-14
  0.832000017         4.69123777E-14
  0.833999991         4.65278620E-14
  0.836000025         4.44943764E-14
  0.838000000         4.06824266E-14
  0.839999974         3.50088949E-14
  0.842000008         2.74453769E-14
  0.843999982         1.80255303E-14
  0.846000016         6.85110656E-15
  0.847999990        -5.90374044E-15
  0.850000024        -1.99901639E-14
  0.851999998        -3.50846603E-14
  0.853999972        -5.07917513E-14
  0.856000006        -6.66494312E-14
  0.857999980        -8.21375303E-14
  0.860000014        -9.66890345E-14
  0.861999989        -1.09704272E-13
  0.864000022        -1.20567740E-13
  0.865999997        -1.28667395E-13
  0.867999971        -1.33415875E-13
  0.870000005        -1.34273167E-13
  0.871999979        -1.30770205E-13
  0.874000013        -1.22532450E-13
  0.875999987        -1.09302859E-13
  0.878000021        -9.09633222E-14
  0.879999995        -6.75535813E-14
  0.882000029        -3.92869094E-14
  0.884000003        -6.56149795E-15
  0.885999978         3.00332099E-14
  0.888000011         6.97159615E-14
  0.889999986         1.11519470E-13
  0.892000020         1.54303125E-13
  0.893999994         1.96772733E-13
  0.896000028         2.37507523E-13
  0.898000002         2.74994057E-13
  0.899999976         3.07666653E-13
  0.902000010         3.33953703E-13
  0.903999984         3.52328789E-13
  0.906000018         3.61365533E-13
  0.907999992         3.59794361E-13
  0.910000026         3.46560020E-13
  0.912000000         3.20877548E-13
  0.913999975         2.82284748E-13
  0.916000009         2.30689572E-13
  0.917999983         1.66409489E-13
  0.920000017         9.02015414E-14
  0.921999991         3.28103612E-15
  0.924000025        -9.26730887E-14
  0.925999999        -1.95527446E-13
  0.927999973        -3.02718950E-13
  0.930000007        -4.11295835E-13
  0.931999981        -5.17975148E-13
  0.934000015        -6.19216213E-13
  0.935999990        -7.11309429E-13
  0.938000023        -7.90478577E-13
  0.939999998        -8.52994541E-13
  0.941999972        -8.95298430E-13
  0.944000006        -9.14129774E-13
  0.945999980        -9.06657453E-13
  0.948000014        -8.70608327E-13
  0.949999988        -8.04389921E-13
  0.952000022        -7.07202146E-13
  0.953999996        -5.79134180E-13
  0.955999970        -4.21241248E-13
  0.958000004        -2.35598406E-13
  0.959999979        -2.53260530E-14
  0.962000012         2.05414841E-13
  0.963999987         4.51460429E-13
  0.966000021         7.06716586E-13
  0.967999995         9.64266752E-13
  0.970000029         1.21651474E-12
  0.972000003         1.45536035E-12
  0.973999977         1.67240581E-12
  0.976000011         1.85918880E-12
  0.977999985         2.00743567E-12
  0.980000019         2.10933137E-12
  0.981999993         2.15779608E-12
  0.984000027         2.14676172E-12
  0.986000001         2.07144068E-12
  0.987999976         1.92857557E-12
  0.990000010         1.71666316E-12
  0.991999984         1.43614124E-12
  0.994000018         1.08953254E-12
  0.995999992         6.81534473E-13
  0.998000026         2.19051692E-13
   1.00000000        -2.88837422E-13
   1.00199997        -8.30982147E-13
   1.00399995        -1.39433040E-12
   1.00600004        -1.96417166E-12
   1.00800002        -2.52444701E-12
   1.00999999        -3.05812298E-12
   1.01199996        -3.54762378E-12
   1.01400006        -3.97530923E-12
   1.01600003        -4.32399169E-12
   1.01800001        -4.57747555E-12
   1.01999998        -4.72110849E-12
   1.02199996        -4.74232459E-12
   1.02400005        -4.63116264E-12
   1.02600002        -4.38074880E-12
   1.02800000        -3.98771554E-12
   1.02999997        -3.45255075E-12
   1.03199995        -2.77985816E-12
   1.03400004        -1.97850959E-12
   1.03600001        -1.06168698E-12
   1.03799999        -4.67988414E-14
   1.03999996         1.04473103E-12
   1.04200006         2.18780896E-12
   1.04400003         3.35414162E-12
   1.04600000         4.51283542E-12
   1.04799998         5.63110713E-12
   1.04999995         6.67509234E-12
   1.05200005         7.61074277E-12
   1.05400002         8.40478121E-12
   1.05599999         9.02569686E-12
   1.05799997         9.44474447E-12
   1.05999994         9.63693882E-12
   1.06200004         9.58198885E-12
   1.06400001         9.26516069E-12
   1.06599998         8.67803399E-12
   1.06799996         7.81911862E-12
   1.07000005         6.69431524E-12
   1.07200003         5.31719460E-12
   1.07400000         3.70906821E-12
   1.07599998         1.89885109E-12
   1.07799995        -7.73021919E-14
   1.08000004        -2.17658205E-12
   1.08200002        -4.35032912E-12
   1.08399999        -6.54504706E-12
   1.08599997        -8.70360728E-12
   1.08800006        -1.07666142E-11
   1.09000003        -1.26739131E-11
   1.09200001        -1.43661931E-11
   1.09399998        -1.57866480E-11
   1.09599996        -1.68826550E-11
   1.09800005        -1.76074190E-11
   1.10000002        -1.79215427E-11
   1.10200000        -1.77944603E-11
   1.10399997        -1.72057108E-11
   1.10599995        -1.61459787E-11
   1.10800004        -1.46178920E-11
   1.11000001        -1.26365142E-11
   1.11199999        -1.02295386E-11
   1.11399996        -7.43713077E-12
   1.11600006        -4.31143272E-12
   1.11800003        -9.15715095E-13
   1.12000000         2.67680778E-12
   1.12199998         6.38447932E-12
   1.12399995         1.01189933E-11
   1.12600005         1.37874425E-11
   1.12800002         1.72945720E-11
   1.13000000         2.05451819E-11
   1.13199997         2.34466301E-11
   1.13399994         2.59113443E-11
   1.13600004         2.78593086E-11
   1.13800001         2.92204282E-11
   1.13999999         2.99367302E-11
   1.14199996         2.99642845E-11
   1.14400005         2.92748534E-11
   1.14600003         2.78571576E-11
   1.14800000         2.57177439E-11
   1.14999998         2.28814068E-11
   1.15199995         1.93911293E-11
   1.15400004         1.53075608E-11
   1.15600002         1.07079918E-11
   1.15799999         5.68489570E-12
   1.15999997         3.43995828E-13
   1.16199994        -5.19804599E-12
   1.16400003        -1.08162880E-11
   1.16600001        -1.63804525E-11
   1.16799998        -2.17580849E-11
   1.16999996        -2.68178205E-11
   1.17200005        -3.14327106E-11
   1.17400002        -3.54835016E-11
   1.17600000        -3.88617680E-11
   1.17799997        -4.14728286E-11
   1.17999995        -4.32383469E-11
   1.18200004        -4.40985651E-11
   1.18400002        -4.40140632E-11
   1.18599999        -4.29670570E-11
   1.18799996        -4.09620983E-11
   1.19000006        -3.80262488E-11
   1.19200003        -3.42086533E-11
   1.19400001        -2.95795298E-11
   1.19599998        -2.42286156E-11
   1.19799995        -1.82631046E-11
   1.20000005        -1.18051029E-11
   1.20200002        -4.98871213E-12
   1.20400000         2.04322757E-12
   1.20599997         9.14261375E-12
   1.20799994         1.61596569E-11
   1.21000004         2.29465578E-11
   1.21200001         2.93610553E-11
   1.21399999         3.52698114E-11
   1.21599996         4.05515448E-11
   1.21800005         4.50998371E-11
   1.22000003         4.88254402E-11
   1.22200000         5.16581534E-11
   1.22399998         5.35481347E-11
   1.22599995         5.44666222E-11
   1.22800004         5.44061012E-11
   1.23000002         5.33798492E-11
   1.23199999         5.14209370E-11
   1.23399997         4.85806916E-11
   1.23599994         4.49267221E-11
   1.23800004         4.05405327E-11
   1.24000001         3.55148029E-11
   1.24199998         2.99504831E-11
   1.24399996         2.39537921E-11
   1.24600005         1.76331415E-11
   1.24800003         1.10962307E-11
   1.25000000         4.44727762E-12
   1.25199997        -2.21543010E-12
   1.25399995        -8.80161048E-12
   1.25600004        -1.52306293E-11
   1.25800002        -2.14326300E-11
   1.25999999        -2.73491473E-11
   1.26199996        -3.29331874E-11
   1.26400006        -3.81487203E-11
   1.26600003        -4.29697215E-11
   1.26800001        -4.73786878E-11
   1.26999998        -5.13648152E-11
   1.27199996        -5.49218379E-11
   1.27400005        -5.80456690E-11
   1.27600002        -6.07319472E-11
   1.27800000        -6.29735639E-11
   1.27999997        -6.47584625E-11
   1.28199995        -6.60675889E-11
   1.28400004        -6.68733055E-11
   1.28600001        -6.71382464E-11
   1.28799999        -6.68148453E-11
   1.28999996        -6.58454749E-11
   1.29200006        -6.41633482E-11
   1.29400003        -6.16941637E-11
   1.29600000        -5.83584639E-11
   1.29799998        -5.40747586E-11
   1.29999995        -4.87632539E-11
   1.30200005        -4.23502552E-11
   1.30400002        -3.47728409E-11
   1.30599999        -2.59839858E-11
   1.30799997        -1.59577612E-11
   1.30999994        -4.69446140E-12
   1.31200004         7.77451107E-12
   1.31400001         2.13822467E-11
   1.31599998         3.60225391E-11
   1.31799996         5.15470618E-11
   1.32000005         6.77635795E-11
   1.32200003         8.44353684E-11
   1.32400000         1.01282073E-10
   1.32599998         1.17981971E-10
   1.32799995         1.34175851E-10
   1.33000004         1.49472434E-10
   1.33200002         1.63455388E-10
   1.33399999         1.75691864E-10
   1.33599997         1.85742255E-10
   1.33800006         1.93171298E-10
   1.34000003         1.97559913E-10
   1.34200001         1.98518021E-10
   1.34399998         1.95697486E-10
   1.34599996         1.88805194E-10
   1.34800005         1.77615797E-10
   1.35000002         1.61983704E-10
   1.35200000         1.41853918E-10
   1.35399997         1.17271443E-10
   1.35599995         8.83886575E-11
   1.35800004         5.54706836E-11
   1.36000001         1.88979995E-11
   1.36199999        -2.08336560E-11
   1.36399996        -6.31163524E-11
   1.36600006        -1.07236185E-10
   1.36800003        -1.52382634E-10
   1.37000000        -1.97661054E-10
   1.37199998        -2.42108195E-10
   1.37399995        -2.84710477E-10
   1.37600005        -3.24424904E-10
   1.37800002        -3.60201813E-10
   1.38000000        -3.91009697E-10
   1.38199997        -4.15860679E-10
   1.38399994        -4.33836966E-10
   1.38600004        -4.44116938E-10
   1.38800001        -4.46000542E-10
   1.38999999        -4.38933112E-10
   1.39199996        -4.22527124E-10
   1.39400005        -3.96581268E-10
   1.39600003        -3.61095764E-10
   1.39800000        -3.16283832E-10
   1.39999998        -2.62578570E-10
   1.40199995        -2.00634939E-10
   1.40400004        -1.31326422E-10
   1.40600002        -5.57362177E-11
   1.40799999         2.48569273E-11
   1.40999997         1.08998380E-10
   1.41199994         1.95082672E-10
   1.41400003         2.81382945E-10
   1.41600001         3.66085023E-10
   1.41799998         4.47325149E-10
   1.41999996         5.23230403E-10
   1.42200005         5.91961535E-10
   1.42400002         6.51756371E-10
   1.42600000         7.00974001E-10
   1.42799997         7.38137163E-10
   1.42999995         7.61973040E-10
   1.43200004         7.71450570E-10
   1.43400002         7.65813912E-10
   1.43599999         7.44610207E-10
   1.43799996         7.07711223E-10
   1.44000006         6.55328569E-10
   1.44200003         5.88021076E-10
   1.44400001         5.06694020E-10
   1.44599998         4.12590268E-10
   1.44799995         3.07273235E-10
   1.45000005         1.92601143E-10
   1.45200002         7.06939299E-11
   1.45400000        -5.61074485E-11
   1.45599997        -1.85288368E-10
   1.45799994        -3.14213183E-10
   1.46000004        -4.40182779E-10
   1.46200001        -5.60494928E-10
   1.46399999        -6.72506772E-10
   1.46599996        -7.73697384E-10
   1.46800005        -8.61729132E-10
   1.47000003        -9.34506361E-10
   1.47200000        -9.90229454E-10
   1.47399998        -1.02744346E-09
   1.47599995        -1.04507891E-09
   1.47800004        -1.04248410E-09
   1.48000002        -1.01944908E-09
   1.48199999        -9.76217773E-10
   1.48399997        -9.13489617E-10
   1.48599994        -8.32410363E-10
   1.48800004        -7.34550976E-10
   1.49000001        -6.21875607E-10
   1.49199998        -4.96699848E-10
   1.49399996        -3.61637553E-10
   1.49600005        -2.19540899E-10
   1.49800003        -7.34326697E-11
   1.50000000         7.35673814E-11
   1.50199997         2.18319182E-10
   1.50399995         3.57741170E-10
   1.50600004         4.88888430E-10
   1.50800002         6.09028938E-10
   1.50999999         7.15714155E-10
   1.51199996         8.06844258E-10
   1.51400006         8.80723716E-10
   1.51600003         9.36107636E-10
   1.51800001         9.72234848E-10
   1.51999998         9.88849780E-10
   1.52199996         9.86208670E-10
   1.52400005         9.65072577E-10
   1.52600002         9.26684507E-10
   1.52800000         8.72733441E-10
   1.52999997         8.05304601E-10
   1.53199995         7.26815663E-10
   1.53400004         6.39943876E-10
   1.53600001         5.47542567E-10
   1.53799999         4.52550775E-10
   1.53999996         3.57899127E-10
   1.54200006         2.66413225E-10
   1.54400003         1.80717691E-10
   1.54600000         1.03144798E-10
   1.54799998         3.56494001E-11
   1.54999995        -2.02662383E-11
   1.55200005        -6.36153491E-11
   1.55400002        -9.39747932E-11
   1.55599999        -1.11516484E-10
   1.55799997        -1.17020491E-10
   1.55999994        -1.11867592E-10
   1.56200004        -9.80123899E-11
   1.56400001        -7.79354012E-11
   1.56599998        -5.45750216E-11
   1.56799996        -3.12407981E-11
   1.57000005        -1.15087488E-11
   1.57200003         8.97572327E-13
   1.57400000         2.23833820E-12
   1.57599998        -1.11015789E-11
   1.57799995        -4.24676301E-11
   1.58000004        -9.47887949E-11
   1.58200002        -1.70434777E-10
   1.58399999        -2.71080297E-10
   1.58599997        -3.97582134E-10
   1.58800006        -5.49872814E-10
   1.59000003        -7.26875449E-10
   1.59200001        -9.26442423E-10
   1.59399998        -1.14532317E-09
   1.59599996        -1.37916190E-09
   1.59800005        -1.62252878E-09