  -1.99999996E-02     1.88587819E-34
  -1.79999992E-02     5.65764191E-34
  -1.60000008E-02     9.42918845E-34
  -1.40000004E-02     1.32003102E-33
  -1.20000001E-02     1.69714348E-33
  -9.99999978E-03     2.07429643E-33
  -8.00000038E-03     2.45153553E-33
  -6.00000005E-03     2.82881962E-33
  -4.00000019E-03     3.20604035E-33
  -2.00000009E-03     3.58326421E-33
   0.00000000         3.96046161E-33
   2.00000009E-03     4.33758775E-33
   4.00000019E-03     4.71455225E-33
   6.00000005E-03     5.09148774E-33
   8.00000038E-03     5.46866494E-33
   9.99999978E-03     5.94865712E-33
   1.20000001E-02     4.80647665E-33
   1.40000004E-02    -9.01019946E-33
   1.60000008E-02    -4.17373081E-32
   1.79999992E-02    -8.36995177E-32
   1.99999996E-02    -1.26991640E-31
   2.19999999E-02    -1.62871278E-31
   2.40000002E-02     3.08197457E-32
   2.60000005E-02     4.70091052E-31
   2.80000009E-02     1.08199863E-30
   2.99999993E-02     1.84297296E-30
   3.20000015E-02     2.62058937E-30
   3.40000018E-02     3.39909482E-30
   3.59999985E-02     4.21375905E-30
   3.79999988E-02     5.07208171E-30
   3.99999991E-02     5.85427746E-30
   4.19999994E-02     6.59051196E-30
   4.39999998E-02     7.34076399E-30
   4.60000001E-02     8.06907546E-30
   4.80000004E-02     8.77183601E-30
   5.00000007E-02     9.46849603E-30
   5.20000011E-02     1.01697535E-29
   5.40000014E-02     1.08714397E-29
   5.60000017E-02     1.13718369E-29
   5.79999983E-02     1.15407432E-29
   5.99999987E-02     1.14007883E-29
   6.19999990E-02     1.09623376E-29
   6.40000030E-02     1.02419758E-29
   6.59999996E-02     9.35586148E-30
   6.80000037E-02     8.47228243E-30
   7.00000003E-02     7.63082860E-30
   7.19999969E-02     6.84872500E-30
   7.40000010E-02     6.11045323E-30
   7.59999976E-02     5.39328544E-30
   7.80000016E-02     4.68110025E-30
   7.99999982E-02     3.95047126E-30
   8.20000023E-02     3.36106598E-30
   8.39999989E-02     3.01846129E-30
   8.60000029E-02     2.87103342E-30
   8.79999995E-02     2.99675433E-30
   9.00000036E-02     3.55503496E-30
   9.20000002E-02     4.56475903E-30
   9.39999968E-02     5.98615251E-30
   9.60000008E-02     7.85638132E-30
   9.79999974E-02     1.02326779E-29
  0.100000001         1.29512469E-29
  0.101999998         1.57256197E-29
  0.104000002         1.85018733E-29
  0.105999999         2.12241407E-29
  0.108000003         2.38665166E-29
  0.109999999         2.64678837E-29
  0.112000003         2.87402914E-29
  0.114000000         3.03385064E-29
  0.115999997         3.12175279E-29
  0.118000001         3.13143871E-29
  0.119999997         3.05675506E-29
  0.122000001         2.92022107E-29
  0.123999998         2.74326994E-29
  0.126000002         2.52573886E-29
  0.128000006         2.27301201E-29
  0.129999995         1.98687856E-29
  0.131999999         1.66144635E-29
  0.134000003         1.29652686E-29
  0.136000007         9.12230636E-30
  0.137999997         5.37338517E-30
  0.140000001         1.85295902E-30
  0.142000005        -1.45738194E-30
  0.143999994        -4.62326442E-30
  0.145999998        -7.65566256E-30
  0.148000002        -1.03654926E-29
  0.150000006        -1.25479956E-29
  0.151999995        -1.41673980E-29
  0.153999999        -1.52900015E-29
  0.156000003        -1.60906030E-29
  0.158000007        -1.67141063E-29
  0.159999996        -1.72436076E-29
  0.162000000        -1.76461766E-29
  0.164000005        -1.78838033E-29
  0.165999994        -1.81344766E-29
  0.167999998        -1.86720684E-29
  0.170000002        -1.94658660E-29
  0.172000006        -2.07641760E-29
  0.173999995        -2.31371534E-29
  0.175999999        -2.68488958E-29
  0.178000003        -3.22968401E-29
  0.180000007        -3.97228167E-29
  0.181999996        -4.94589553E-29
  0.184000000        -6.17935525E-29
  0.186000004        -7.68944743E-29
  0.187999994        -9.46743767E-29
  0.189999998        -1.14349936E-28
  0.192000002        -1.35590692E-28
  0.194000006        -1.57686044E-28
  0.195999995        -1.78832394E-28
  0.197999999        -1.96535229E-28
  0.200000003        -2.08484372E-28
  0.202000007        -2.12404915E-28
  0.203999996        -2.04508025E-28
  0.206000000        -1.80157409E-28
  0.208000004        -1.34685601E-28
  0.209999993        -6.34450375E-29
  0.211999997         3.89739128E-29
  0.214000002         1.77503056E-28
  0.216000006         3.55903789E-28
  0.217999995         5.77697516E-28
  0.219999999         8.44492258E-28
  0.222000003         1.15503151E-27
  0.224000007         1.50443411E-27
  0.225999996         1.88419466E-27
  0.228000000         2.28055759E-27
  0.230000004         2.67332057E-27
  0.231999993         3.03568102E-27
  0.233999997         3.33361679E-27
  0.236000001         3.52576182E-27
  0.238000005         3.56255671E-27
  0.239999995         3.38808787E-27
  0.241999999         2.94202092E-27
  0.244000003         2.16057639E-27
  0.246000007         9.80623246E-28
  0.247999996        -6.55745539E-28
  0.250000000        -2.79633087E-27
  0.252000004        -5.47132739E-27
  0.254000008        -8.68583466E-27
  0.256000012        -1.24113705E-26
  0.257999986        -1.65768488E-26
  0.259999990        -2.10593275E-26
  0.261999995        -2.56742871E-26
  0.263999999        -3.01691379E-26
  0.266000003        -3.42173194E-26
  0.268000007        -3.74161288E-26
  0.270000011        -3.92891650E-26
  0.272000015        -3.92921510E-26
  0.273999989        -3.68289544E-26
  0.275999993        -3.12749114E-26
  0.277999997        -2.20067510E-26
  0.280000001        -8.44461963E-27
  0.282000005         9.89386805E-27
  0.284000009         3.33325410E-26
  0.286000013         6.19659301E-26
  0.287999988         9.55793240E-26
  0.289999992         1.33567451E-25
  0.291999996         1.74851414E-25
  0.294000000         2.17800576E-25
  0.296000004         2.60169088E-25
  0.298000008         2.99051327E-25
  0.300000012         3.30868404E-25
  0.301999986         3.51395255E-25
  0.303999990         3.55837134E-25
  0.305999994         3.38968379E-25
  0.307999998         2.95342793E-25
  0.310000002         2.19583279E-25
  0.312000006         1.06755548E-25
  0.314000010        -4.71745354E-26
  0.316000015        -2.44802792E-25
  0.317999989        -4.86678811E-25
  0.319999993        -7.70648671E-25
  0.321999997        -1.09117627E-24
  0.324000001        -1.43868310E-24
  0.326000005        -1.79895253E-24
  0.328000009        -2.15265981E-24
  0.330000013        -2.47509665E-24
  0.331999987        -2.73616306E-24
  0.333999991        -2.90070900E-24
  0.335999995        -2.92930737E-24
  0.338000000        -2.77953345E-24
  0.340000004        -2.40781766E-24
  0.342000008        -1.77191669E-24
  0.344000012        -8.34024375E-25
  0.345999986         4.35491698E-25
  0.347999990         2.05379266E-24
  0.349999994         4.02082325E-24
  0.351999998         6.31429118E-24
  0.354000002         8.88462956E-24
  0.356000006         1.16502457E-23
  0.358000010         1.44934543E-23
  0.360000014         1.72575471E-23
  0.361999989         1.97455072E-23
  0.363999993         2.17209079E-23
  0.365999997         2.29115862E-23
  0.368000001         2.30165836E-23
  0.370000005         2.17168848E-23
  0.372000009         1.86902921E-23
  0.374000013         1.36306755E-23
  0.375999987         6.27157830E-24
  0.377999991        -3.58608555E-24
  0.379999995        -1.60428544E-23
  0.381999999        -3.10670653E-23
  0.384000003        -4.84601325E-23
  0.386000007        -6.78226066E-23
  0.388000011        -8.85233644E-23
  0.389999986        -1.09674701E-22
  0.391999990        -1.30116295E-22
  0.393999994        -1.48411621E-22
  0.395999998        -1.62860195E-22
  0.398000002        -1.71529208E-22
  0.400000006        -1.72307694E-22
  0.402000010        -1.62985870E-22
  0.404000014        -1.41361628E-22
  0.405999988        -1.05374569E-22
  0.407999992        -5.32669870E-23
  0.409999996         1.62311129E-23
  0.412000000         1.03697590E-22
  0.414000005         2.08801763E-22
  0.416000009         3.30085707E-22
  0.418000013         4.64755698E-22
  0.419999987         6.08498676E-22
  0.421999991         7.55341057E-22
  0.423999995         8.97568917E-22
  0.425999999         1.02572961E-21
  0.428000003         1.12873490E-21
  0.430000007         1.19408611E-21
  0.432000011         1.20823673E-21
  0.433999985         1.15710794E-21
  0.435999990         1.02676237E-21
  0.437999994         8.04238417E-22
  0.439999998         4.78535445E-22
  0.442000002         4.17303853E-23
  0.444000006        -5.09805891E-22
  0.446000010        -1.17413785E-21
  0.448000014        -1.94250058E-21
  0.449999988        -2.79811068E-21
  0.451999992        -3.71514238E-21
  0.453999996        -4.65796470E-21
  0.456000000        -5.58074122E-21
  0.458000004        -6.42750840E-21
  0.460000008        -7.13283335E-21
  0.462000012        -7.62315758E-21
  0.463999987        -7.81890374E-21
  0.465999991        -7.63742080E-21
  0.467999995        -6.99678153E-21
  0.469999999        -5.82044224E-21
  0.472000003        -4.04268732E-21
  0.474000007        -1.61475208E-21
  0.476000011         1.48855675E-21
  0.477999985         5.26199112E-21
  0.479999989         9.66305848E-21
  0.481999993         1.46056735E-20
  0.483999997         1.99547048E-20
  0.486000001         2.55219098E-20
  0.488000005         3.10637986E-20
  0.490000010         3.62819705E-20
  0.492000014         4.08264232E-20
  0.493999988         4.43023816E-20
  0.495999992         4.62810041E-20
  0.497999996         4.63142496E-20
  0.500000000         4.39541030E-20
  0.501999974         3.87760041E-20
  0.504000008         3.04062158E-20
  0.505999982         1.85525545E-20
  0.508000016         3.03756170E-21
  0.509999990        -1.61670415E-20
  0.512000024        -3.89061396E-20
  0.513999999        -6.48091680E-20
  0.515999973        -9.32621390E-20
  0.518000007        -1.23386293E-19
  0.519999981        -1.54025670E-19
  0.522000015        -1.83746205E-19
  0.523999989        -2.10848946E-19
  0.526000023        -2.33399350E-19
  0.527999997        -2.49274755E-19
  0.529999971        -2.56231447E-19
  0.532000005        -2.51991707E-19
  0.533999979        -2.34350892E-19
  0.536000013        -2.01302777E-19
  0.537999988        -1.51181306E-19
  0.540000021        -8.28143309E-20
  0.541999996         4.31563107E-21
  0.544000030         1.09910163E-19
  0.546000004         2.32701235E-19
  0.547999978         3.70314129E-19
  0.550000012         5.19157422E-19
  0.551999986         6.74350154E-19
  0.554000020         8.29697568E-19
  0.555999994         9.77726760E-19
  0.558000028         1.10979090E-18
  0.560000002         1.21625277E-18
  0.561999977         1.28675079E-18
  0.564000010         1.31055436E-18
  0.565999985         1.27700608E-18
  0.568000019         1.17604786E-18
  0.569999993         9.98820383E-19
  0.572000027         7.38322700E-19
  0.574000001         3.90110190E-19
  0.575999975        -4.69932841E-20
  0.578000009        -5.70202066E-19
  0.579999983        -1.17213023E-18
  0.582000017        -1.84024815E-18
  0.583999991        -2.55647840E-18
  0.586000025        -3.29697607E-18
  0.588000000        -4.03213822E-18
  0.589999974        -4.72688515E-18
  0.592000008        -5.34125204E-18
  0.593999982        -5.83131685E-18
  0.596000016        -6.15048656E-18
  0.597999990        -6.25114823E-18
  0.600000024        -6.08667329E-18
  0.601999998        -5.61374519E-18
  0.603999972        -4.79496583E-18
  0.606000006        -3.60166929E-18
  0.607999980        -2.01684562E-18
  0.610000014        -3.80723803E-20
  0.611999989         2.31969589E-18
  0.614000022         5.02161415E-18
  0.615999997         8.01089103E-18
  0.617999971         1.12073543E-17
  0.620000005         1.45068107E-17
  0.621999979         1.77813888E-17
  0.624000013         2.08809933E-17
  0.625999987         2.36360226E-17
  0.628000021         2.58614395E-17
  0.629999995         2.73622463E-17
  0.632000029         2.79403744E-17
  0.634000003         2.74029022E-17
  0.635999978         2.55714979E-17
  0.638000011         2.22928385E-17
  0.639999986         1.74497406E-17
  0.642000020         1.09726253E-17
  0.643999994         2.85085503E-18
  0.646000028        -6.85656669E-18
  0.648000002        -1.80115137E-17
  0.649999976        -3.03890871E-17
  0.652000010        -4.36724629E-17
  0.653999984        -5.74508368E-17
  0.656000018        -7.12211242E-17
  0.657999992        -8.43939226E-17
  0.660000026        -9.63041918E-17
  0.662000000        -1.06226978E-16
  0.663999975        -1.13398349E-16
  0.666000009        -1.17041451E-16
  0.667999983        -1.16397401E-16
  0.670000017        -1.10760549E-16
  0.671999991        -9.95172326E-17
  0.674000025        -8.21869517E-17
  0.675999999        -5.84646095E-17
  0.677999973        -2.82622138E-17
  0.680000007         8.25180655E-18
  0.681999981         5.06178088E-17
  0.684000015         9.80566963E-17
  0.685999990         1.49450665E-16
  0.688000023         2.03334931E-16
  0.689999998         2.57902633E-16
  0.691999972         3.11024781E-16
  0.694000006         3.60286761E-16
  0.695999980         4.03042470E-16
  0.698000014         4.36486322E-16
  0.699999988         4.57743328E-16
  0.702000022         4.63975955E-16
  0.703999996         4.52505912E-16
  0.705999970         4.20948826E-16
  0.708000004         3.67356839E-16
  0.709999979         2.90365938E-16
  0.712000012         1.89341814E-16
  0.713999987         6.45184268E-17
  0.716000021        -8.28776145E-17
  0.717999995        -2.50523785E-16
  0.720000029        -4.34927410E-16
  0.722000003        -6.31387200E-16
  0.723999977        -8.33997269E-16
  0.726000011        -1.03570085E-15
  0.727999985        -1.22839704E-15
  0.730000019        -1.40310637E-15
  0.731999993        -1.55019460E-15
  0.734000027        -1.65965635E-15
  0.736000001        -1.72145513E-15
  0.737999976        -1.72591412E-15
  0.740000010        -1.66414986E-15
  0.741999984        -1.52853745E-15
  0.744000018        -1.31319488E-15
  0.745999992        -1.01446680E-15
  0.748000026        -6.31392388E-16
  0.750000000        -1.66134448E-16
  0.751999974         3.75652468E-16
  0.754000008         9.84536358E-16
  0.755999982         1.64712979E-15
  0.758000016         2.34603901E-15
  0.759999990         3.05996052E-15
  0.762000024         3.76394379E-15
  0.763999999         4.42982942E-15
  0.765999973         5.02687288E-15
  0.768000007         5.52255275E-15
  0.769999981         5.88356116E-15
  0.772000015         6.07695656E-15
  0.773999989         6.07146779E-15
  0.776000023         5.83890558E-15
  0.777999997         5.35565549E-15
  0.779999971         4.60419624E-15
  0.782000005         3.57459677E-15
  0.783999979         2.26592727E-15
  0.786000013         6.87522508E-16
  0.787999988        -1.13997453E-15
  0.790000021        -3.18384735E-15
  0.791999996        -5.39889695E-15
  0.794000030        -7.72743923E-15
  0.796000004        -1.00997718E-14
  0.797999978        -1.24351442E-14
  0.800000012        -1.46432684E-14
  0.801999986        -1.66263758E-14
  0.804000020        -1.82818272E-14
  0.805999994        -1.95052240E-14
  0.808000028        -2.01940058E-14
  0.810000002        -2.02514261E-14
  0.811999977        -1.95908353E-14
  0.814000010        -1.81401372E-14
  0.815999985        -1.58462856E-14
  0.818000019        -1.26796555E-14
  0.819999993        -8.63810383E-15
  0.822000027        -3.75056914E-15
  0.824000001         1.92002231E-15
  0.825999975         8.27470467E-15
  0.828000009         1.51774684E-14
  0.829999983         2.24554584E-14
  0.832000017         2.99005273E-14
  0.833999991         3.72722212E-14
  0.836000025         4.43023168E-14
  0.838000000         5.07008748E-14
  0.839999974         5.61638342E-14
  0.842000008         6.03819634E-14
  0.843999982         6.30511675E-14
  0.846000016         6.38837534E-14
  0.847999990         6.26205292E-14
  0.850000024         5.90433396E-14
  0.851999998         5.29876029E-14
  0.853999972         4.43545042E-14
  0.856000006         3.31222883E-14
  0.857999980         1.93562055E-14
  0.860000014         3.21656442E-15
  0.861999989        -1.50355345E-14
  0.864000022        -3.50353528E-14
  0.865999997        -5.63149143E-14
  0.867999971        -7.83069830E-14
  0.870000005        -1.00352953E-13
  0.871999979        -1.21714772E-13
  0.874000013        -1.41590976E-13
  0.875999987        -1.59136593E-13
  0.878000021        -1.73486998E-13
  0.879999995        -1.83784859E-13
  0.882000029        -1.89210057E-13
  0.884000003        -1.89011485E-13
  0.885999978        -1.82540208E-13
  0.888000011        -1.69282692E-13
  0.889999986        -1.48893159E-13
  0.892000020        -1.21223832E-13
  0.893999994        -8.63517902E-14
  0.896000028        -4.46012517E-14
  0.898000002         3.44009811E-15
  0.899999976         5.69117575E-14
  0.902000010         1.14679167E-13
  0.903999984         1.75341526E-13
  0.906000018         2.37249158E-13
  0.907999992         2.98531057E-13
  0.910000026         3.57132509E-13
  0.912000000         4.10862913E-13
  0.913999975         4.57452977E-13
  0.916000009         4.94620404E-13
  0.917999983         5.20142631E-13
  0.920000017         5.31935552E-13
  0.921999991         5.28135261E-13
  0.924000025         5.07181320E-13
  0.925999999         4.67898290E-13
  0.927999973         4.09573579E-13
  0.930000007         3.32027401E-13
  0.931999981         2.35673053E-13
  0.934000015         1.21563756E-13
  0.935999990        -8.57614252E-15
  0.938000023        -1.52338428E-13
  0.939999998        -3.06639398E-13
  0.941999972        -4.67750133E-13
  0.944000006        -6.31350115E-13
  0.945999980        -7.92605944E-13
  0.948000014        -9.46272357E-13
  0.949999988        -1.08681705E-12
  0.952000022        -1.20856656E-12
  0.953999996        -1.30586948E-12
  0.955999970        -1.37327530E-12
  0.958000004        -1.40572352E-12
  0.959999979        -1.39873790E-12
  0.962000012        -1.34862087E-12
  0.963999987        -1.25264144E-12
  0.966000021        -1.10921081E-12
  0.967999995        -9.18037890E-13
  0.970000029        -6.80259018E-13
  0.972000003        -3.98535724E-13
  0.973999977        -7.71139744E-14
  0.976000011         2.78160199E-13
  0.977999985         6.59872601E-13
  0.980000019         1.05912338E-12
  0.981999993         1.46566255E-12
  0.984000027         1.86807883E-12
  0.986000001         2.25403962E-12
  0.987999976         2.61058059E-12
  0.990000010         2.92443869E-12
  0.991999984         3.18242308E-12
  0.994000018         3.37181606E-12
  0.995999992         3.48079248E-12
  0.998000026         3.49884921E-12
   1.00000000         3.41723069E-12
   1.00199997         3.22933737E-12
   1.00399995         2.93110458E-12
   1.00600004         2.52133600E-12
   1.00800002         2.00198213E-12
   1.00999999         1.37834470E-12
   1.01199996         6.59200884E-13
   1.01400006        -1.43163828E-13
   1.01600003        -1.01302549E-12
   1.01800001        -1.93139602E-12
   1.01999998        -2.87630878E-12
   1.02199996        -3.82320998E-12
   1.02400005        -4.74545967E-12
   1.02600002        -5.61492953E-12
   1.02800000        -6.40269305E-12
   1.02999997        -7.07978641E-12
   1.03199995        -7.61803381E-12
   1.03400004        -7.99090915E-12
   1.03600001        -8.17441687E-12
   1.03799999        -8.14796407E-12
   1.03999996        -7.89520532E-12
   1.04200006        -7.40482328E-12
   1.04400003        -6.67122781E-12
   1.04600000        -5.69513794E-12
   1.04799998        -4.48403901E-12
   1.04999995        -3.05246908E-12
   1.05200005        -1.42213986E-12
   1.05400002         3.78145215E-13
   1.05599999         2.31276955E-12
   1.05799997         4.33979198E-12
   1.05999994         6.41164682E-12
   1.06200004         8.47604972E-12
   1.06400001         1.04770879E-11
   1.06599998         1.23564900E-11
   1.06799996         1.40550453E-11
   1.07000005         1.55141403E-11
   1.07200003         1.66773869E-11
   1.07400000         1.74922837E-11
   1.07599998         1.79118942E-11
   1.07799995         1.78964846E-11
   1.08000004         1.74150434E-11
   1.08200002         1.64467034E-11
   1.08399999         1.49819514E-11
   1.08599997         1.30236195E-11
   1.08800006         1.05876167E-11
   1.09000003         7.70333710E-12
   1.09200001         4.41375755E-12
   1.09399998         7.75174467E-13
   1.09599996        -3.14343408E-12
   1.09800005        -7.26140198E-12
   1.10000002        -1.14877439E-11
   1.10200000        -1.57228692E-11
   1.10399997        -1.98606149E-11
   1.10599995        -2.37905719E-11
   1.10800004        -2.74006495E-11
   1.11000001        -3.05798130E-11
   1.11199999        -3.32209746E-11
   1.11399996        -3.52239141E-11
   1.11600006        -3.64982038E-11
   1.11800003        -3.69660275E-11
   1.12000000        -3.65648449E-11
   1.12199998        -3.52497961E-11
   1.12399995        -3.29958040E-11
   1.12600005        -2.97992880E-11
   1.12800002        -2.56794117E-11
   1.13000000        -2.06788683E-11
   1.13199997        -1.48640735E-11
   1.13399994        -8.32483908E-12
   1.13600004        -1.17341445E-12
   1.13800001         6.45704627E-12
   1.13999999         1.44145884E-11
   1.14199996         2.25311367E-11
   1.14400005         3.06256791E-11
   1.14600003         3.85079052E-11
   1.14800000         4.59822250E-11
   1.14999998         5.28521324E-11
   1.15199995         5.89247262E-11
   1.15400004         6.40153763E-11
   1.15600002         6.79524215E-11
   1.15799999         7.05817349E-11
   1.15999997         7.17710960E-11
   1.16199994         7.14142009E-11
   1.16400003         6.94343194E-11
   1.16600001         6.57873755E-11
   1.16799998         6.04643835E-11
   1.16999996         5.34932966E-11
   1.17200005         4.49399615E-11
   1.17400002         3.49083817E-11
   1.17600000         2.35400744E-11
   1.17799997         1.10126084E-11
   1.17999995        -2.46271081E-12
   1.18200004        -1.66439796E-11
   1.18400002        -3.12626175E-11
   1.18599999        -4.60279974E-11
   1.18799996        -6.06327211E-11
   1.19000006        -7.47584217E-11
   1.19200003        -8.80820278E-11
   1.19400001        -1.00282338E-10
   1.19599998        -1.11046762E-10
   1.19799995        -1.20078170E-10
   1.20000005        -1.27101593E-10
   1.20200002        -1.31870737E-10
   1.20400000        -1.34174172E-10
   1.20599997        -1.33840966E-10
   1.20799994        -1.30745720E-10
   1.21000004        -1.24812924E-10
   1.21200001        -1.16020388E-10
   1.21399999        -1.04401862E-10
   1.21599996        -9.00485797E-11
   1.21800005        -7.31097960E-11
   1.22000003        -5.37922033E-11
   1.22200000        -3.23583139E-11
   1.22399998        -9.12368445E-12
   1.22599995         1.55469266E-11
   1.22800004         4.12443933E-11
   1.23000002         6.75210998E-11
   1.23199999         9.38976466E-11
   1.23399997         1.19870461E-10
   1.23599994         1.44920034E-10
   1.23800004         1.68519712E-10
   1.24000001         1.90145108E-10
   1.24199998         2.09283590E-10
   1.24399996         2.25444205E-10
   1.24600005         2.38167319E-10
   1.24800003         2.47034393E-10
   1.25000000         2.51677235E-10
   1.25199997         2.51786925E-10
   1.25399995         2.47122017E-10
   1.25600004         2.37516035E-10
   1.25800002         2.22884017E-10
   1.25999999         2.03228046E-10
   1.26199996         1.78641379E-10
   1.26400006         1.49311508E-10
   1.26600003         1.15521613E-10
   1.26800001         7.76504971E-11
   1.26999998         3.61710176E-11
   1.27199996        -8.35324084E-12
   1.27400005        -5.52729876E-11
   1.27600002        -1.03859948E-10
   1.27800000        -1.53315319E-10
   1.27999997        -2.02779876E-10
   1.28199995        -2.51345722E-10
   1.28400004        -2.98069541E-10
   1.28600001        -3.41987272E-10
   1.28799999        -3.82129967E-10
   1.28999996        -4.17540835E-10
   1.29200006        -4.47292869E-10
   1.29400003        -4.70507466E-10
   1.29600000        -4.86372831E-10
   1.29799998        -4.94163099E-10
   1.29999995        -4.93256269E-10
   1.30200005        -4.83152074E-10
   1.30400002        -4.63488803E-10
   1.30599999        -4.34058262E-10
   1.30799997        -3.94819510E-10
   1.30999994        -3.45909884E-10
   1.31200004        -2.87653901E-10
   1.31400001        -2.20568980E-10
   1.31599998        -1.45368176E-10
   1.31799996        -6.29592559E-11
   1.32000005         2.55597887E-11
   1.32200003         1.18909271E-10
   1.32400000         2.15640283E-10
   1.32599998         3.14151233E-10
   1.32799995         4.12708617E-10
   1.33000004         5.09471243E-10
   1.33200002         6.02518535E-10
   1.33399999         6.89882373E-10
   1.33599997         7.69581510E-10
   1.33800006         8.39658676E-10
   1.34000003         8.98220165E-10
   1.34200001         9.43475964E-10
   1.34399998         9.73780834E-10
   1.34599996         9.87675275E-10
   1.34800005         9.83925608E-10
   1.35000002         9.61561275E-10
   1.35200000         9.19910703E-10
   1.35399997         8.58631943E-10
   1.35599995         7.77739873E-10
   1.35800004         6.77627288E-10
   1.36000001         5.59080171E-10
   1.36199999         4.23285546E-10
   1.36399996         2.71831946E-10
   1.36600006         1.06702112E-10
   1.36800003        -6.97431904E-11
   1.37000000        -2.54789689E-10
   1.37199998        -4.45402520E-10
   1.37399995        -6.38267939E-10
   1.37600005        -8.29842917E-10
   1.37800002        -1.01641240E-09
   1.38000000        -1.19415289E-09
   1.38199997        -1.35920242E-09
   1.38399994        -1.50773527E-09
   1.38600004        -1.63603908E-09
   1.38800001        -1.74059533E-09
   1.38999999        -1.81815929E-09
   1.39199996        -1.86583904E-09
   1.39400005        -1.88117211E-09
   1.39600003        -1.86219573E-09
   1.39800000        -1.80751314E-09
   1.39999998        -1.71634917E-09
   1.40199995        -1.58859836E-09
   1.40400004        -1.42485956E-09
   1.40600002        -1.22646027E-09
   1.40799999        -9.95465599E-10
   1.40999997        -7.34673045E-10
   1.41199994        -4.47592685E-10
   1.41400003        -1.38410741E-10
   1.41600001         1.88061108E-10
   1.41799998         5.26452049E-10
   1.41999996         8.70913841E-10
   1.42200005         1.21521471E-09
   1.42400002         1.55284563E-09
   1.42600000         1.87713756E-09
   1.42799997         2.18138685E-09
   1.42999995         2.45898613E-09
   1.43200004         2.70356004E-09
   1.43400002         2.90910140E-09
   1.43599999         3.07010461E-09
   1.43799996         3.18169668E-09
   1.44000006         3.23975824E-09
   1.44200003         3.24103455E-09
   1.44400001         3.18323523E-09
   1.44599998         3.06511572E-09
   1.44799995         2.88654101E-09
   1.45000005         2.64853139E-09
   1.45200002         2.35328290E-09
   1.45400000         2.00416794E-09
   1.45599997         1.60570823E-09
   1.45799994         1.16352838E-09
   1.46000004         6.84281076E-10
   1.46200001         1.75550990E-10
   1.46399999        -3.54264035E-10
   1.46599996        -8.96091645E-10
   1.46800005        -1.44034251E-09
   1.47000003        -1.97708183E-09
   1.47200000        -2.49621435E-09
   1.47399998        -2.98767855E-09
   1.47599995        -3.44164275E-09
   1.47800004        -3.84870491E-09
   1.48000002        -4.20008961E-09
   1.48199999        -4.48783366E-09
   1.48399997        -4.70496486E-09
   1.48599994        -4.84566209E-09
   1.48800004        -4.90539609E-09
   1.49000001        -4.88104934E-09
   1.49199998        -4.77100670E-09
   1.49399996        -4.57522242E-09
   1.49600005        -4.29525215E-09
   1.49800003        -3.93425514E-09
   1.50000000        -3.49696383E-09
   1.50199997        -2.98962144E-09
   1.50399995        -2.41988807E-09
   1.50600004        -1.79671455E-09
   1.50800002        -1.13018972E-09
   1.50999999        -4.31362918E-10
   1.51199996         2.87957186E-10
   1.51400006         1.01542197E-09
   1.51600003         1.73837333E-09
   1.51800001         2.44408627E-09
   1.51999998         3.12001380E-09
   1.52199996         3.75403131E-09
   1.52400005         4.33467262E-09
   1.52600002         4.85135709E-09
   1.52800000         5.29460031E-09
   1.52999997         5.65619951E-09
   1.53199995         5.92939919E-09
   1.53400004         6.10902395E-09
   1.53600001         6.19158147E-09
   1.53799999         6.17532958E-09
   1.53999996         6.06031003E-09
   1.54200006         5.84834137E-09
   1.54400003         5.54297985E-09
   1.54600000         5.14944221E-09
   1.54799998         4.67449590E-09
   1.54999995         4.12631529E-09
   1.55200005         3.51431351E-09
   1.55400002         2.84894686E-09
   1.55599999         2.14150075E-09
   1.55799997         1.40386003E-09
   1.55999994         6.48271159E-10
   1.56200004        -1.12901744E-10
   1.56400001        -8.67419192E-10
   1.56599998        -1.60340108E-09
   1.56799996        -2.30955077E-09
   1.57000005        -2.97536040E-09
   1.57200003        -3.59129704E-09
   1.57400000        -4.14896073E-09
   1.57599998        -4.64121719E-09
   1.57799995        -5.06229680E-09
   1.58000004        -5.40786127E-09
   1.58200002        -5.67503600E-09
   1.58399999        -5.86241145E-09
   1.58599997        -5.97000627E-09
   1.58800006        -5.99920291E-09
   1.59000003        -5.95265393E-09
   1.59200001        -5.83416027E-09
   1.59399998        -5.64852876E-09
   1.59599996        -5.40141265E-09
   1.59800005        -5.09913844E-09