  -1.99999996E-02     8.35350778E-32
  -1.79999992E-02     2.50605239E-31
  -1.60000008E-02     4.17675383E-31
  -1.40000004E-02     5.84745480E-31
  -1.20000001E-02     7.51815624E-31
  -9.99999978E-03     9.18885721E-31
  -8.00000038E-03     1.08595582E-30
  -6.00000005E-03     1.25302591E-30
  -4.00000019E-03     1.42009592E-30
  -2.00000009E-03     1.58716601E-30
   0.00000000         1.75423630E-30
   2.00000009E-03     1.92130640E-30
   4.00000019E-03     2.08837649E-30
   6.00000005E-03     2.25544678E-30
   8.00000038E-03     2.42251687E-30
   9.99999978E-03     2.58965506E-30
   1.20000001E-02     2.75800860E-30
   1.40000004E-02     2.89927839E-30
   1.60000008E-02     3.00634505E-30
   1.79999992E-02     3.11014214E-30
   1.99999996E-02     3.21745631E-30
   2.19999999E-02     3.54031966E-30
   2.40000002E-02     4.15891519E-30
   2.60000005E-02     4.82871225E-30
   2.80000009E-02     5.47677827E-30
   2.99999993E-02     6.13525334E-30
   3.20000015E-02     6.79832206E-30
   3.40000018E-02     7.46599833E-30
   3.59999985E-02     8.14057260E-30
   3.79999988E-02     8.81747002E-30
   3.99999991E-02     9.45534403E-30
   4.19999994E-02     1.00628576E-29
   4.39999998E-02     1.07852265E-29
   4.60000001E-02     1.16767673E-29
   4.80000004E-02     1.27415508E-29
   5.00000007E-02     1.38301511E-29
   5.20000011E-02     1.48176145E-29
   5.40000014E-02     1.57488753E-29
   5.60000017E-02     1.66573260E-29
   5.79999983E-02     1.75949198E-29
   5.99999987E-02     1.85345690E-29
   6.19999990E-02     1.94375337E-29
   6.40000030E-02     2.03001623E-29
   6.59999996E-02     2.11669270E-29
   6.80000037E-02     2.20473494E-29
   7.00000003E-02     2.29382304E-29
   7.19999969E-02     2.38620283E-29
   7.40000010E-02     2.48335486E-29
   7.59999976E-02     2.58176597E-29
   7.80000016E-02     2.67823128E-29
   7.99999982E-02     2.73149619E-29
   8.20000023E-02     2.70472215E-29
   8.39999989E-02     2.62504492E-29
   8.60000029E-02     2.54077526E-29
   8.79999995E-02     2.47671446E-29
   9.00000036E-02     2.43157096E-29
   9.20000002E-02     2.39352888E-29
   9.39999968E-02     2.32331369E-29
   9.60000008E-02     2.22382000E-29
   9.79999974E-02     2.12411551E-29
  0.100000001         2.02494080E-29
  0.101999998         1.92753554E-29
  0.104000002         1.83159790E-29
  0.105999999         1.73727939E-29
  0.108000003         1.64501681E-29
  0.109999999         1.55644826E-29
  0.112000003         1.46860027E-29
  0.114000000         1.37719895E-29
  0.115999997         1.28981680E-29
  0.118000001         1.21730885E-29
  0.119999997         1.16290456E-29
  0.122000001         1.12746753E-29
  0.123999998         1.12081615E-29
  0.126000002         1.13780751E-29
  0.128000006         1.15979185E-29
  0.129999995         1.18712998E-29
  0.131999999         1.21921808E-29
  0.134000003         1.25043898E-29
  0.136000007         1.27503333E-29
  0.137999997         1.29816405E-29
  0.140000001         1.32250103E-29
  0.142000005         1.33880599E-29
  0.143999994         1.33647757E-29
  0.145999998         1.31818936E-29
  0.148000002         1.29681620E-29
  0.150000006         1.25677431E-29
  0.151999995         1.18765359E-29
  0.153999999         1.09256471E-29
  0.156000003         9.75558147E-30
  0.158000007         8.69339800E-30
  0.159999996         8.14194934E-30
  0.162000000         8.51275254E-30
  0.164000005         1.01567835E-29
  0.165999994         1.30871108E-29
  0.167999998         1.72904935E-29
  0.170000002         2.27638961E-29
  0.172000006         2.97094796E-29
  0.173999995         3.84062179E-29
  0.175999999         4.85260168E-29
  0.178000003         5.94464578E-29
  0.180000007         7.00766402E-29
  0.181999996         7.93712383E-29
  0.184000000         8.62211813E-29
  0.186000004         8.85713515E-29
  0.187999994         8.38844986E-29
  0.189999998         6.99652251E-29
  0.192000002         4.44465782E-29
  0.194000006         4.73785387E-30
  0.195999995        -5.14209573E-29
  0.197999999        -1.25673585E-28
  0.200000003        -2.18229289E-28
  0.202000007        -3.27749582E-28
  0.203999996        -4.51775498E-28
  0.206000000        -5.86226979E-28
  0.208000004        -7.24228044E-28
  0.209999993        -8.56690136E-28
  0.211999997        -9.71910820E-28
  0.214000002        -1.05459889E-27
  0.216000006        -1.08680159E-27
  0.217999995        -1.04901937E-27
  0.219999999        -9.21058181E-28
  0.222000003        -6.83210118E-28
  0.224000007        -3.17494511E-28
  0.225999996         1.90449940E-28
  0.228000000         8.47614865E-28
  0.230000004         1.65059341E-27
  0.231999993         2.58397225E-27
  0.233999997         3.61684636E-27
  0.236000001         4.69919549E-27
  0.238000005         5.75971460E-27
  0.239999995         6.70461820E-27
  0.241999999         7.41774768E-27
  0.244000003         7.76173572E-27
  0.246000007         7.58233304E-27
  0.247999996         6.71525472E-27
  0.250000000         4.99459078E-27
  0.252000004         2.26664371E-27
  0.254000008        -1.59347293E-27
  0.256000012        -6.66322688E-27
  0.257999986        -1.29512487E-26
  0.259999990        -2.03729168E-26
  0.261999995        -2.87249863E-26
  0.263999999        -3.76626756E-26
  0.266000003        -4.66783943E-26
  0.268000007        -5.50865268E-26
  0.270000011        -6.20171567E-26
  0.272000015        -6.64195799E-26
  0.273999989        -6.70836960E-26
  0.275999993        -6.26775442E-26
  0.277999997        -5.18060241E-26
  0.280000001        -3.30950261E-26
  0.282000005        -5.29865737E-27
  0.284000009         3.25673952E-26
  0.286000013         8.10691090E-26
  0.287999988         1.40178894E-25
  0.289999992         2.09087534E-25
  0.291999996         2.86010914E-25
  0.294000000         3.68006521E-25
  0.296000004         4.50814039E-25
  0.298000008         5.28738410E-25
  0.300000012         5.94597153E-25
  0.301999986         6.39752931E-25
  0.303999990         6.54256386E-25
  0.305999994         6.27122282E-25
  0.307999998         5.46760973E-25
  0.310000002         4.01579850E-25
  0.312000006         1.80766725E-25
  0.314000010        -1.24742254E-25
  0.316000015        -5.21122451E-25
  0.317999989        -1.01037305E-24
  0.319999993        -1.58892058E-24
  0.321999997        -2.24617592E-24
  0.324000001        -2.96312387E-24
  0.326000005        -3.71104861E-24
  0.328000009        -4.45051065E-24
  0.330000013        -5.13071543E-24
  0.331999987        -5.68943248E-24
  0.333999991        -6.05361406E-24
  0.335999995        -6.14087983E-24
  0.338000000        -5.86201553E-24
  0.340000004        -5.12461675E-24
  0.342000008        -3.83796292E-24
  0.344000012        -1.91917394E-24
  0.345999986         6.99396683E-25
  0.347999990         4.06162471E-24
  0.349999994         8.17816360E-24
  0.351999998         1.30163935E-23
  0.354000002         1.84902228E-23
  0.356000006         2.44503272E-23
  0.358000010         3.06755505E-23
  0.360000014         3.68662500E-23
  0.361999989         4.26405762E-23
  0.363999993         4.75346472E-23
  0.365999997         5.10076956E-23
  0.368000001         5.24531413E-23
  0.370000005         5.12165608E-23
  0.372000009         4.66213135E-23
  0.374000013         3.80022697E-23
  0.375999987         2.47478761E-23
  0.377999991         6.35019303E-24
  0.379999995        -1.75378910E-23
  0.381999999        -4.70397411E-23
  0.384000003        -8.19885669E-23
  0.386000007        -1.21860405E-22
  0.388000011        -1.65710280E-22
  0.389999986        -2.12115887E-22
  0.391999990        -2.59134143E-22
  0.393999994        -3.04276273E-22
  0.395999998        -3.44507321E-22
  0.398000002        -3.76276731E-22
  0.400000006        -3.95585623E-22
  0.402000010        -3.98096447E-22
  0.404000014        -3.79289296E-22
  0.405999988        -3.34667613E-22
  0.407999992        -2.60014057E-22
  0.409999996        -1.51694708E-22
  0.412000000        -7.00645272E-24
  0.414000005         1.75441416E-22
  0.416000009         3.95323822E-22
  0.418000013         6.50192032E-22
  0.419999987         9.35082648E-22
  0.421999991         1.24216881E-21
  0.423999995         1.56048350E-21
  0.425999999         1.87574695E-21
  0.428000003         2.17033210E-21
  0.430000007         2.42340413E-21
  0.432000011         2.61126621E-21
  0.433999985         2.70794254E-21
  0.435999990         2.68602206E-21
  0.437999994         2.51777966E-21
  0.439999998         2.17657917E-21
  0.442000002         1.63854554E-21
  0.444000006         8.84485286E-22
  0.446000010        -9.79972936E-23
  0.448000014        -1.31225065E-21
  0.449999988        -2.75028506E-21
  0.451999992        -4.39055070E-21
  0.453999996        -6.19592085E-21
  0.456000000        -8.11202940E-21
  0.458000004        -1.00661362E-20
  0.460000008        -1.19666903E-20
  0.462000012        -1.37037849E-20
  0.463999987        -1.51506627E-20
  0.465999991        -1.61664421E-20
  0.467999995        -1.66001869E-20
  0.469999999        -1.62964016E-20
  0.472000003        -1.51019948E-20
  0.474000007        -1.28746607E-20
  0.476000011        -9.49255588E-21
  0.477999985        -4.86506802E-21
  0.479999989         1.05565493E-21
  0.481999993         8.26283396E-21
  0.483999997         1.66833832E-20
  0.486000001         2.61670687E-20
  0.488000005         3.64772368E-20
  0.490000010         4.72839250E-20
  0.492000014         5.81601933E-20
  0.493999988         6.85825850E-20
  0.495999992         7.79364985E-20
  0.497999996         8.55273669E-20
  0.500000000         9.05981263E-20
  0.501999974         9.23535780E-20
  0.504000008         8.99917383E-20
  0.505999982         8.27421658E-20
  0.508000016         6.99106881E-20
  0.509999990         5.09297365E-20
  0.512000024         2.54127882E-20
  0.513999999        -6.78873672E-21
  0.515999973        -4.55286865E-20
  0.518000007        -9.03121157E-20
  0.519999981        -1.40247297E-19
  0.522000015        -1.94007458E-19
  0.523999989        -2.49805857E-19
  0.526000023        -3.05388413E-19
  0.527999997        -3.58047506E-19
  0.529999971        -4.04660736E-19
  0.532000005        -4.41757460E-19
  0.533999979        -4.65615883E-19
  0.536000013        -4.72391009E-19
  0.537999988        -4.58274913E-19
  0.540000021        -4.19686343E-19
  0.541999996        -3.53487208E-19
  0.544000030        -2.57220471E-19
  0.546000004        -1.29362207E-19
  0.547999978         3.04217739E-20
  0.550000012         2.21025632E-19
  0.551999986         4.39673172E-19
  0.554000020         6.81722349E-19
  0.555999994         9.40520073E-19
  0.558000028         1.20732490E-18
  0.560000002         1.47131277E-18
  0.561999977         1.71968182E-18
  0.564000010         1.93787200E-18
  0.565999985         2.10990655E-18
  0.568000019         2.21886650E-18
  0.569999993         2.24749770E-18
  0.572000027         2.17894904E-18
  0.574000001         1.99763001E-18
  0.575999975         1.69016884E-18
  0.578000009         1.24644931E-18
  0.579999983         6.60687095E-19
  0.582000017        -6.74940412E-20
  0.583999991        -9.32035371E-19
  0.586000025        -1.91952514E-18
  0.588000000        -3.00844927E-18
  0.589999974        -4.16867513E-18
  0.592000008        -5.36123920E-18
  0.593999982        -6.53849547E-18
  0.596000016        -7.64468907E-18
  0.597999990        -8.61700348E-18
  0.600000024        -9.38711360E-18
  0.601999998        -9.88327142E-18
  0.603999972        -1.00329158E-17
  0.606000006        -9.76579109E-18
  0.607999980        -9.01750697E-18
  0.610000014        -7.73347533E-18
  0.611999989        -5.87309526E-18
  0.614000022        -3.41405522E-18
  0.615999997        -3.56565354E-19
  0.617999971         3.27266647E-18
  0.620000005         7.41695136E-18
  0.621999979         1.19868645E-17
  0.624000013         1.68584554E-17
  0.625999987         2.18726903E-17
  0.628000021         2.68363381E-17
  0.629999995         3.15245215E-17
  0.632000029         3.56851043E-17
  0.634000003         3.90450226E-17
  0.635999978         4.13185980E-17
  0.638000011         4.22178261E-17
  0.639999986         4.14645061E-17
  0.642000020         3.88039756E-17
  0.643999994         3.40201453E-17
  0.646000028         2.69513526E-17
  0.648000002         1.75065216E-17
  0.649999976         5.68095237E-18
  0.652000010        -8.42901511E-18
  0.653999984        -2.46132422E-17
  0.656000018        -4.25378590E-17
  0.657999992        -6.17389676E-17
  0.660000026        -8.16209418E-17
  0.662000000        -1.01460022E-16
  0.663999975        -1.20414005E-16
  0.666000009        -1.37538550E-16
  0.667999983        -1.51810433E-16
  0.670000017        -1.62157920E-16
  0.671999991        -1.67498039E-16
  0.674000025        -1.66780377E-16
  0.675999999        -1.59036339E-16
  0.677999973        -1.43432986E-16
  0.680000007        -1.19329552E-16
  0.681999981        -8.63348655E-17
  0.684000015        -4.43634565E-17
  0.685999990         6.31241833E-18
  0.688000023         6.50174549E-17
  0.689999998         1.30637719E-16
  0.691999972         2.01597706E-16
  0.694000006         2.75853035E-16
  0.695999980         3.50901398E-16
  0.698000014         4.23814100E-16
  0.699999988         4.91289909E-16
  0.702000022         5.49732800E-16
  0.703999996         5.95353095E-16
  0.705999970         6.24292452E-16
  0.708000004         6.32770352E-16
  0.709999979         6.17249373E-16
  0.712000012         5.74615716E-16
  0.713999987         5.02369471E-16
  0.716000021         3.98818263E-16
  0.717999995         2.63267131E-16
  0.720000029         9.61964532E-17
  0.722000003        -1.00581582E-16
  0.723999977        -3.23796820E-16
  0.726000011        -5.68635029E-16
  0.727999985        -8.28701143E-16
  0.730000019        -1.09604073E-15
  0.731999993        -1.36122642E-15
  0.734000027        -1.61351592E-15
  0.736000001        -1.84108498E-15
  0.737999976        -2.03133747E-15
  0.740000010        -2.17128976E-15
  0.741999984        -2.24802608E-15
  0.744000018        -2.24921531E-15
  0.745999992        -2.16368002E-15
  0.748000026        -1.98199823E-15
  0.750000000        -1.69712252E-15
  0.751999974        -1.30499359E-15
  0.754000008        -8.05121704E-16
  0.755999982        -2.01110450E-16
  0.758000016         4.98905847E-16
  0.759999990         1.28194096E-15
  0.762000024         2.12997806E-15
  0.763999999         3.01996384E-15
  0.765999973         3.92399532E-15
  0.768000007         4.80971777E-15
  0.769999981         5.64095313E-15
  0.772000015         6.37855493E-15
  0.773999989         6.98149839E-15
  0.776000023         7.40818404E-15
  0.777999997         7.61794667E-15
  0.779999971         7.57271934E-15
  0.782000005         7.23883251E-15
  0.783999979         6.58887787E-15
  0.786000013         5.60358204E-15
  0.787999988         4.27362300E-15
  0.790000021         2.60130637E-15
  0.791999996         6.02022262E-16
  0.794000030        -1.69459571E-15
  0.796000004        -4.24390315E-15
  0.797999978        -6.98593557E-15
  0.800000012        -9.84563823E-15
  0.801999986        -1.27336801E-14
  0.804000020        -1.55479216E-14
  0.805999994        -1.81755296E-14
  0.808000028        -2.04957697E-14
  0.810000002        -2.23834453E-14
  0.811999977        -2.37129330E-14
  0.814000010        -2.43627462E-14
  0.815999985        -2.42205158E-14
  0.818000019        -2.31882605E-14
  0.819999993        -2.11877838E-14
  0.822000027        -1.81660158E-14
  0.824000001        -1.41000941E-14
  0.825999975        -9.00196631E-15
  0.828000009        -2.92228929E-15
  0.829999983         4.04660843E-15
  0.832000017         1.17689129E-14
  0.833999991         2.00648722E-14
  0.836000025         2.87118792E-14
  0.838000000         3.74472351E-14
  0.839999974         4.59727030E-14
  0.842000008         5.39608505E-14
  0.843999982         6.10632354E-14
  0.846000016         6.69202988E-14
  0.847999990         7.11728243E-14
  0.850000024         7.34747414E-14
  0.851999998         7.35069422E-14
  0.853999972         7.09917761E-14
  0.856000006         6.57077406E-14
  0.857999980         5.75038877E-14
  0.860000014         4.63133865E-14
  0.861999989         3.21656730E-14
  0.864000022         1.51965927E-14
  0.865999997        -4.34404023E-15
  0.867999971        -2.60880371E-14
  0.870000005        -4.95480969E-14
  0.871999979        -7.41211292E-14
  0.874000013        -9.90960379E-14
  0.875999987        -1.23666106E-13
  0.878000021        -1.46946095E-13
  0.879999995        -1.67993982E-13
  0.882000029        -1.85837104E-13
  0.884000003        -1.99502104E-13
  0.885999978        -2.08048327E-13
  0.888000011        -2.10603656E-13
  0.889999986        -2.06401858E-13
  0.892000020        -1.94820383E-13
  0.893999994        -1.75417176E-13
  0.896000028        -1.47965448E-13
  0.898000002        -1.12484566E-13
  0.899999976        -6.92660041E-14
  0.902000010        -1.88926769E-14
  0.903999984         3.77496191E-14
  0.906000018         9.94697692E-14
  0.907999992         1.64779052E-13
  0.910000026         2.31909679E-13
  0.912000000         2.98844689E-13
  0.913999975         3.63359381E-13
  0.916000009         4.23073821E-13
  0.917999983         4.75516057E-13
  0.920000017         5.18194862E-13
  0.921999991         5.48680079E-13
  0.924000025         5.64689842E-13
  0.925999999         5.64180538E-13
  0.927999973         5.45438748E-13
  0.930000007         5.07170803E-13
  0.931999981         4.48587375E-13
  0.934000015         3.69479783E-13
  0.935999990         2.70284636E-13
  0.938000023         1.52133379E-13
  0.939999998         1.68837434E-14
  0.941999972        -1.32869383E-13
  0.944000006        -2.93806429E-13
  0.945999980        -4.61920270E-13
  0.948000014        -6.32579655E-13
  0.949999988        -8.00618740E-13
  0.952000022        -9.60452421E-13
  0.953999996        -1.10621625E-12
  0.955999970        -1.23192819E-12
  0.958000004        -1.33166915E-12
  0.959999979        -1.39977873E-12
  0.962000012        -1.43105937E-12
  0.963999987        -1.42098583E-12
  0.966000021        -1.36591053E-12
  0.967999995        -1.26326011E-12
  0.970000029        -1.11171554E-12
  0.972000003        -9.11367336E-13
  0.973999977        -6.63840781E-13
  0.976000011        -3.72382084E-13
  0.977999985        -4.19018763E-14
  0.980000019         3.21030935E-13
  0.981999993         7.08248347E-13
  0.984000027         1.11009747E-12
  0.986000001         1.51561207E-12
  0.987999976         1.91273928E-12
  0.990000010         2.28862090E-12
  0.991999984         2.62992232E-12
  0.994000018         2.92320443E-12
  0.995999992         3.15533038E-12
  0.998000026         3.31389647E-12
   1.00000000         3.38767534E-12
   1.00199997         3.36705815E-12
   1.00399995         3.24448584E-12
   1.00600004         3.01484770E-12
   1.00800002         2.67583937E-12
   1.00999999         2.22826271E-12
   1.01199996         1.67625148E-12
   1.01400006         1.02741676E-12
   1.01600003         2.92892907E-13
   1.01800001        -5.12718015E-13
   1.01999998        -1.37151228E-12
   1.02199996        -2.26256448E-12
   1.02400005        -3.16232175E-12
   1.02600002        -4.04510540E-12
   1.02800000        -4.88371539E-12
   1.02999997        -5.65012837E-12
   1.03199995        -6.31626869E-12
   1.03400004        -6.85484308E-12
   1.03600001        -7.24020713E-12
   1.03799999        -7.44924868E-12
   1.03999996        -7.46225824E-12
   1.04200006        -7.26376164E-12
   1.04400003        -6.84328288E-12
   1.04600000        -6.19601549E-12
   1.04799998        -5.32336718E-12
   1.04999995        -4.23336409E-12
   1.05200005        -2.94088148E-12
   1.05400002        -1.46769088E-12
   1.05599999         1.57692300E-13
   1.05799997         1.90037352E-12
   1.05999994         3.71965306E-12
   1.06200004         5.56980850E-12
   1.06400001         7.40107715E-12
   1.06599998         9.16081880E-12
   1.06799996         1.07948390E-11
   1.07000005         1.22488400E-11
   1.07200003         1.34699673E-11
   1.07400000         1.44084180E-11
   1.07599998         1.50190485E-11
   1.07799995         1.52629558E-11
   1.08000004         1.51089731E-11
   1.08200002         1.45350329E-11
   1.08399999         1.35293521E-11
   1.08599997         1.20913861E-11
   1.08800006         1.02325266E-11
   1.09000003         7.97649360E-12
   1.09200001         5.35939565E-12
   1.09399998         2.42944922E-12
   1.09599996        -7.53667473E-13
   1.09800005        -4.11982080E-12
   1.10000002        -7.58977690E-12
   1.10200000        -1.10768894E-11
   1.10399997        -1.44890827E-11
   1.10599995        -1.77310978E-11
   1.10800004        -2.07069396E-11
   1.11000001        -2.33224742E-11
   1.11199999        -2.54881099E-11
   1.11399996        -2.71214769E-11
   1.11600006        -2.81500396E-11
   1.11800003        -2.85135769E-11
   1.12000000        -2.81664241E-11
   1.12199998        -2.70794290E-11
   1.12399995        -2.52415294E-11
   1.12600005        -2.26609218E-11
   1.12800002        -1.93657416E-11
   1.13000000        -1.54042282E-11
   1.13199997        -1.08443480E-11
   1.13399994        -5.77286309E-12
   1.13600004        -2.93838169E-13
   1.13800001         5.47337045E-12
   1.13999999         1.13966319E-11
   1.14199996         1.73340006E-11
   1.14400005         2.31370652E-11
   1.14600003         2.86545891E-11
   1.14800000         3.37363609E-11
   1.14999998         3.82371634E-11
   1.15199995         4.20207549E-11
   1.15400004         4.49637168E-11
   1.15600002         4.69591137E-11
   1.15799999         4.79198486E-11
   1.15999997         4.77815322E-11
   1.16199994         4.65049041E-11
   1.16400003         4.40776096E-11
   1.16600001         4.05153515E-11
   1.16799998         3.58622958E-11
   1.16999996         3.01907631E-11
   1.17200005         2.36001566E-11
   1.17400002         1.62151646E-11
   1.17600000         8.18324488E-12
   1.17799997        -3.28526052E-13
   1.17999995        -9.13719794E-12
   1.18200004        -1.80481619E-11
   1.18400002        -2.68597488E-11
   1.18599999        -3.53680904E-11
   1.18799996        -4.33720941E-11
   1.19000006        -5.06784371E-11
   1.19200003        -5.71063891E-11
   1.19400001        -6.24923932E-11
   1.19599998        -6.66941988E-11
   1.19799995        -6.95945523E-11
   1.20000005        -7.11041503E-11
   1.20200002        -7.11639844E-11
   1.20400000        -6.97468680E-11
   1.20599997        -6.68581857E-11
   1.20799994        -6.25357197E-11
   1.21000004        -5.68487722E-11
   1.21200001        -4.98963856E-11
   1.21399999        -4.18048929E-11
   1.21599996        -3.27247465E-11
   1.21800005        -2.28268342E-11
   1.22000003        -1.22982969E-11
   1.22200000        -1.33804643E-12
   1.22399998         9.84789854E-12
   1.22599995         2.10511539E-11
   1.22800004         3.20656175E-11
   1.23000002         4.26918327E-11
   1.23199999         5.27410893E-11
   1.23399997         6.20389920E-11
   1.23599994         7.04284686E-11
   1.23800004         7.77722262E-11
   1.24000001         8.39544129E-11
   1.24199998         8.88816590E-11
   1.24399996         9.24834306E-11
   1.24600005         9.47116344E-11
   1.24800003         9.55397358E-11
   1.25000000         9.49612194E-11
   1.25199997         9.29877078E-11
   1.25399995         8.96467831E-11
   1.25600004         8.49795304E-11
   1.25800002         7.90381580E-11
   1.25999999         7.18836102E-11
   1.26199996         6.35834510E-11
   1.26400006         5.42101156E-11
   1.26600003         4.38395466E-11
   1.26800001         3.25504172E-11
   1.26999998         2.04239299E-11
   1.27199996         7.54423000E-12
   1.27400005        -6.00055379E-12
   1.27600002        -2.01167364E-11
   1.27800000        -3.47029731E-11
   1.27999997        -4.96477269E-11
   1.28199995        -6.48265330E-11
   1.28400004        -8.00992328E-11
   1.28600001        -9.53071094E-11
   1.28799999        -1.10270584E-10
   1.28999996        -1.24787208E-10
   1.29200006        -1.38630482E-10
   1.29400003        -1.51549565E-10
   1.29600000        -1.63270064E-10
   1.29799998        -1.73496176E-10
   1.29999995        -1.81914053E-10
   1.30200005        -1.88196764E-10
   1.30400002        -1.92010602E-10
   1.30599999        -1.93022973E-10
   1.30799997        -1.90911564E-10
   1.30999994        -1.85374688E-10
   1.31200004        -1.76142670E-10
   1.31400001        -1.62989899E-10
   1.31599998        -1.45747386E-10
   1.31799996        -1.24315128E-10
   1.32000005        -9.86741799E-11
   1.32200003        -6.88978735E-11
   1.32400000        -3.51616999E-11
   1.32599998         2.24863227E-12
   1.32799995         4.29313494E-11
   1.33000004         8.63654842E-11
   1.33200002         1.31910732E-10
   1.33399999         1.78810675E-10
   1.33599997         2.26199615E-10
   1.33800006         2.73113171E-10
   1.34000003         3.18502696E-10
   1.34200001         3.61253472E-10
   1.34399998         4.00206285E-10
   1.34599996         4.34182496E-10
   1.34800005         4.62011734E-10
   1.35000002         4.82562212E-10
   1.35200000         4.94772223E-10
   1.35399997         4.97683061E-10
   1.35599995         4.90471663E-10
   1.35800004         4.72482331E-10
   1.36000001         4.43257181E-10
   1.36199999         4.02563455E-10
   1.36399996         3.50417195E-10
   1.36600006         2.87102481E-10
   1.36800003         2.13185108E-10
   1.37000000         1.29520131E-10
   1.37199998         3.72524997E-11
   1.37399995        -6.21897880E-11
   1.37600005        -1.67109840E-10
   1.37800002        -2.75564183E-10
   1.38000000        -3.85392801E-10
   1.38199997        -4.94256525E-10
   1.38399994        -5.99681582E-10
   1.38600004        -6.99110159E-10
   1.38800001        -7.89956711E-10
   1.38999999        -8.69668115E-10
   1.39199996        -9.35787225E-10
   1.39400005        -9.86017490E-10
   1.39600003        -1.01828768E-09
   1.39800000        -1.03081488E-09
   1.39999998        -1.02216424E-09
   1.40199995        -9.91302818E-10
   1.40400004        -9.37647737E-10
   1.40600002        -8.61104799E-10
   1.40799999        -7.62098218E-10
   1.40999997        -6.41588338E-10
   1.41199994        -5.01078068E-10
   1.41400003        -3.42605638E-10
   1.41600001        -1.68724396E-10
   1.41799998         1.75310894E-11
   1.41999996         2.12692405E-10
   1.42200005         4.12917478E-10
   1.42400002         6.14062579E-10
   1.42600000         8.11765322E-10
   1.42799997         1.00153685E-09
   1.42999995         1.17886079E-09
   1.43200004         1.33929801E-09
   1.43400002         1.47859414E-09
   1.43599999         1.59278624E-09
   1.43799996         1.67830905E-09
   1.44000006         1.73209402E-09
   1.44200003         1.75166193E-09
   1.44400001         1.73520454E-09
   1.44599998         1.68165359E-09
   1.44799995         1.59073488E-09
   1.45000005         1.46300450E-09
   1.45200002         1.29986766E-09
   1.45400000         1.10357767E-09
   1.45599997         8.77213246E-10
   1.45799994         6.24637175E-10
   1.46000004         3.50433321E-10
   1.46200001         5.98244093E-11
   1.46399999        -2.41427794E-10
   1.46599996        -5.47139278E-10
   1.46800005        -8.50833737E-10
   1.47000003        -1.14588417E-09
   1.47200000        -1.42566225E-09
   1.47399998        -1.68369274E-09
   1.47599995        -1.91380822E-09
   1.47800004        -2.11030105E-09
   1.48000002        -2.26806951E-09
   1.48199999        -2.38275155E-09
   1.48399997        -2.45084575E-09
   1.48599994        -2.46981524E-09
   1.48800004        -2.43816878E-09
   1.49000001        -2.35552133E-09
   1.49199998        -2.22262697E-09
   1.49399996        -2.04138617E-09
   1.49600005        -1.81482585E-09
   1.49800003        -1.54705004E-09
   1.50000000        -1.24316446E-09
   1.50199997        -9.09175124E-10
   1.50399995        -5.51862001E-10
   1.50600004        -1.78631623E-10
   1.50800002         2.02648232E-10
   1.50999999         5.83828930E-10
   1.51199996         9.56671076E-10
   1.51400006         1.31304023E-09
   1.51600003         1.64510272E-09
   1.51800001         1.94551864E-09
   1.51999998         2.20762386E-09
   1.52199996         2.42559750E-09
   1.52400005         2.59461297E-09
   1.52600002         2.71096234E-09
   1.52800000         2.77215695E-09
   1.52999997         2.77699574E-09
   1.53199995         2.72560374E-09
   1.53400004         2.61943267E-09
   1.53600001         2.46123233E-09
   1.53799999         2.25498309E-09
   1.53999996         2.00579819E-09
   1.54200006         1.71979386E-09
   1.54400003         1.40393119E-09
   1.54600000         1.06583542E-09
   1.54799998         7.13593851E-10
   1.54999995         3.55539986E-10
   1.55200005         3.02324084E-14
   1.55400002        -3.44783369E-10
   1.55599999        -6.71176503E-10
   1.55799997        -9.72064984E-10
   1.55999994        -1.24120092E-09
   1.56200004        -1.47334778E-09
   1.56400001        -1.66442649E-09
   1.56599998        -1.81162940E-09
   1.56799996        -1.91349825E-09
   1.57000005        -1.96996286E-09
   1.57200003        -1.98233741E-09
   1.57400000        -1.95327554E-09
   1.57599998        -1.88668303E-09
   1.57799995        -1.78759163E-09
   1.58000004        -1.66199277E-09
   1.58200002        -1.51663970E-09
   1.58399999        -1.35882161E-09
   1.58599997        -1.19611399E-09
   1.58800006        -1.03611453E-09
   1.59000003        -8.86170359E-10
   1.59200001        -7.53106633E-10
   1.59399998        -6.42962739E-10
   1.59599996        -5.60746116E-10
   1.59800005        -5.10210652E-10