  -1.99999996E-02   0.00000000    
  -1.79999992E-02   0.00000000    
  -1.60000008E-02   0.00000000    
  -1.40000004E-02   0.00000000    
  -1.20000001E-02   0.00000000    
  -9.99999978E-03   0.00000000    
  -8.00000038E-03   0.00000000    
  -6.00000005E-03   0.00000000    
  -4.00000019E-03   0.00000000    
  -2.00000009E-03   0.00000000    
   0.00000000       0.00000000    
   2.00000009E-03   0.00000000    
   4.00000019E-03   0.00000000    
   6.00000005E-03   0.00000000    
   8.00000038E-03   0.00000000    
   9.99999978E-03   0.00000000    
   1.20000001E-02   0.00000000    
   1.40000004E-02   0.00000000    
   1.60000008E-02   0.00000000    
   1.79999992E-02   0.00000000    
   1.99999996E-02   0.00000000    
   2.19999999E-02   0.00000000    
   2.40000002E-02   0.00000000    
   2.60000005E-02   0.00000000    
   2.80000009E-02   0.00000000    
   2.99999993E-02   0.00000000    
   3.20000015E-02   0.00000000    
   3.40000018E-02   0.00000000    
   3.59999985E-02  -0.00000000    
   3.79999988E-02  -3.93791689E-38
   3.99999991E-02  -1.07801084E-37
   4.19999994E-02  -2.82672572E-37
   4.39999998E-02  -7.44299164E-37
   4.60000001E-02  -1.37085123E-36
   4.80000004E-02  -2.63302107E-36
   5.00000007E-02  -5.67414976E-36
   5.20000011E-02  -1.05361207E-35
   5.40000014E-02  -1.86672851E-35
   5.60000017E-02  -3.57240482E-35
   5.79999983E-02  -6.36102639E-35
   5.99999987E-02  -1.05458649E-34
   6.19999990E-02  -1.73887011E-34
   6.40000030E-02  -2.84770119E-34
   6.59999996E-02  -4.58804078E-34
   6.80000037E-02  -7.29481259E-34
   7.00000003E-02  -1.14858269E-33
   7.19999969E-02  -1.78491948E-33
   7.40000010E-02  -2.73429335E-33
   7.59999976E-02  -4.12766282E-33
   7.80000016E-02  -6.13686919E-33
   7.99999982E-02  -8.99095736E-33
   8.20000023E-02  -1.29847060E-32
   8.39999989E-02  -1.84841755E-32
   8.60000029E-02  -2.59342236E-32
   8.79999995E-02  -3.58592222E-32
   9.00000036E-02  -4.88492253E-32
   9.20000002E-02  -6.55313944E-32
   9.39999968E-02  -8.65229023E-32
   9.60000008E-02  -1.12344946E-31
   9.79999974E-02  -1.43283005E-31
  0.100000001      -1.79198001E-31
  0.101999998      -2.19258096E-31
  0.104000002      -2.61572931E-31
  0.105999999      -3.02714363E-31
  0.108000003      -3.37114453E-31
  0.109999999      -3.56306961E-31
  0.112000003      -3.48022312E-31
  0.114000000      -2.95140912E-31
  0.115999997      -1.74504958E-31
  0.118000001       4.43478401E-32
  0.119999997       4.00474939E-31
  0.122000001       9.42726721E-31
  0.123999998       1.73070760E-30
  0.126000002       2.83529068E-30
  0.128000006       4.33843104E-30
  0.129999995       6.33193931E-30
  0.131999999       8.91484985E-30
  0.134000003       1.21889217E-29
  0.136000007       1.62518049E-29
  0.137999997       2.11873810E-29
  0.140000001       2.70527736E-29
  0.142000005       3.38616551E-29
  0.143999994       4.15635393E-29
  0.145999998       5.00190548E-29
  0.148000002       5.89714031E-29
  0.150000006       6.80147336E-29
  0.151999995       7.65606324E-29
  0.153999999       8.38046448E-29
  0.156000003       8.86954175E-29
  0.158000007       8.99101075E-29
  0.159999996       8.58403046E-29
  0.162000000       7.45939931E-29
  0.164000005       5.40195724E-29
  0.165999994       2.17586946E-29
  0.167999998      -2.46646761E-29
  0.170000002      -8.77125011E-29
  0.172000006      -1.69651461E-28
  0.173999995      -2.72317659E-28
  0.175999999      -3.96825178E-28
  0.178000003      -5.43219326E-28
  0.180000007      -7.10080259E-28
  0.181999996      -8.94089288E-28
  0.184000000      -1.08957599E-27
  0.186000004      -1.28807312E-27
  0.187999994      -1.47791502E-27
  0.189999998      -1.64392488E-27
  0.192000002      -1.76724237E-27
  0.194000006      -1.82535442E-27
  0.195999995      -1.79239559E-27
  0.197999999      -1.63978779E-27
  0.200000003      -1.33728265E-27
  0.202000007      -8.54472235E-28
  0.203999996      -1.62805683E-28
  0.206000000       7.61862064E-28
  0.208000004       1.93620363E-27
  0.209999993       3.36587997E-27
  0.211999997       5.04164009E-27
  0.214000002       6.93521441E-27
  0.216000006       8.99523145E-27
  0.217999995       1.11434515E-26
  0.219999999       1.32716926E-26
  0.222000003       1.52398621E-26
  0.224000007       1.68755883E-26
  0.225999996       1.79759660E-26
  0.228000000       1.83119330E-26
  0.230000004       1.76357513E-26
  0.231999993       1.56920489E-26
  0.233999997       1.22326673E-26
  0.236000001       7.03543441E-27
  0.238000005      -7.32628566E-29
  0.239999995      -9.19258920E-27
  0.241999999      -2.03188460E-26
  0.244000003      -3.33157808E-26
  0.246000007      -4.78852960E-26
  0.247999996      -6.35406813E-26
  0.250000000      -7.95849658E-26
  0.252000004      -9.50973485E-26
  0.254000008      -1.08930955E-25
  0.256000012      -1.19725247E-25
  0.257999986      -1.25936565E-25
  0.259999990      -1.25889640E-25
  0.261999995      -1.17852614E-25
  0.263999999      -1.00137214E-25
  0.266000003      -7.12239154E-26
  0.268000007      -2.99110756E-26
  0.270000011       2.45156661E-26
  0.272000015       9.20994922E-26
  0.273999989       1.72022337E-25
  0.275999993       2.62419683E-25
  0.277999997       3.60214301E-25
  0.280000001       4.60984922E-25
  0.282000005       5.58888526E-25
  0.284000009       6.46655711E-25
  0.286000013       7.15680251E-25
  0.287999988       7.56221785E-25
  0.289999992       7.57738962E-25
  0.291999996       7.09367293E-25
  0.294000000       6.00548862E-25
  0.296000004       4.21812899E-25
  0.298000008       1.65698224E-25
  0.300000012      -1.72206117E-25
  0.301999986      -5.92136991E-25
  0.303999990      -1.08900187E-24
  0.305999994      -1.65125735E-24
  0.307999998      -2.25990407E-24
  0.310000002      -2.88769358E-24
  0.312000006      -3.49865255E-24
  0.314000010      -4.04804329E-24
  0.316000015      -4.48287209E-24
  0.317999989      -4.74306169E-24
  0.319999993      -4.76339024E-24
  0.321999997      -4.47626499E-24
  0.324000001      -3.81539124E-24
  0.326000005      -2.72032234E-24
  0.328000009      -1.14184668E-24
  0.330000013       9.51908101E-25
  0.331999987       3.56885012E-24
  0.333999991       6.68605056E-24
  0.335999995       1.02429841E-23
  0.338000000       1.41353288E-23
  0.340000004       1.82098395E-23
  0.342000008       2.22609037E-23
  0.344000012       2.60293885E-23
  0.345999986       2.92044574E-23
  0.347999990       3.14289915E-23
  0.349999994       3.23092025E-23
  0.351999998       3.14289095E-23
  0.354000002       2.83688329E-23
  0.356000006       2.27309749E-23
  0.358000010       1.41679387E-23
  0.360000014       2.41670260E-24
  0.361999989      -1.26640827E-23
  0.363999993      -3.10545319E-23
  0.365999997      -5.25334757E-23
  0.368000001      -7.66401720E-23
  0.370000005      -1.02640365E-22
  0.372000009      -1.29499810E-22
  0.374000013      -1.55868578E-22
  0.375999987      -1.80079653E-22
  0.377999991      -2.00165465E-22
  0.379999995      -2.13895760E-22
  0.381999999      -2.18839709E-22
  0.384000003      -2.12454807E-22
  0.386000007      -1.92203675E-22
  0.388000011      -1.55699383E-22
  0.389999986      -1.00877261E-22
  0.391999990      -2.61906364E-23
  0.393999994       6.91753832E-23
  0.395999998       1.85079314E-22
  0.398000002       3.20197935E-22
  0.400000006       4.71812432E-22
  0.402000010       6.35620749E-22
  0.404000014       8.05592481E-22
  0.405999988       9.73884406E-22
  0.407999992       1.13083516E-21
  0.409999996       1.26505824E-21
  0.412000000       1.36365096E-21
  0.414000005       1.41253509E-21
  0.416000009       1.39694024E-21
  0.418000013       1.30203863E-21
  0.419999987       1.11373003E-21
  0.421999991       8.19570288E-22
  0.423999995       4.09825509E-22
  0.425999999      -1.21374619E-22
  0.428000003      -7.74823927E-22
  0.430000007      -1.54501869E-21
  0.432000011      -2.41899014E-21
  0.433999985      -3.37526687E-21
  0.435999990      -4.38304750E-21
  0.437999994      -5.40167681E-21
  0.439999998      -6.38052147E-21
  0.442000002      -7.25933867E-21
  0.444000006      -7.96922685E-21
  0.446000010      -8.43424533E-21
  0.448000014      -8.57375532E-21
  0.449999988      -8.30552989E-21
  0.451999992      -7.54963948E-21
  0.453999996      -6.23306562E-21
  0.456000000      -4.29499841E-21
  0.458000004      -1.69265690E-21
  0.460000008       1.59252503E-21
  0.462000012       5.54859992E-21
  0.463999987       1.01269848E-20
  0.465999991       1.52368688E-20
  0.467999995       2.07405506E-20
  0.469999999       2.64501276E-20
  0.472000003       3.21260277E-20
  0.474000007       3.74777893E-20
  0.476000011       4.21676029E-20
  0.477999985       4.58169396E-20
  0.479999989       4.80166746E-20
  0.481999993       4.83408324E-20
  0.483999997       4.63641293E-20
  0.486000001       4.16831433E-20
  0.488000005       3.39408878E-20
  0.490000010       2.28542151E-20
  0.492000014       8.24332979E-21
  0.493999988      -9.93763560E-21
  0.495999992      -3.15702787E-20
  0.497999996      -5.63433299E-20
  0.500000000      -8.37276029E-20
  0.501999974      -1.12956372E-19
  0.504000008      -1.43013363E-19
  0.505999982      -1.72630319E-19
  0.508000016      -2.00296331E-19
  0.509999990      -2.24280847E-19
  0.512000024      -2.42671863E-19
  0.513999999      -2.53430614E-19
  0.515999973      -2.54463478E-19
  0.518000007      -2.43710673E-19
  0.519999981      -2.19251459E-19
  0.522000015      -1.79423436E-19
  0.523999989      -1.22953445E-19
  0.526000023      -4.90957123E-20
  0.527999997       4.22274863E-20
  0.529999971       1.50289256E-19
  0.532000005       2.73432616E-19
  0.533999979       4.08964350E-19
  0.536000013       5.53077101E-19
  0.537999988       7.00808301E-19
  0.540000021       8.46045552E-19
  0.541999996       9.81587005E-19
  0.544000030       1.09926410E-18
  0.546000004       1.19013278E-18
  0.547999978       1.24473756E-18
  0.550000012       1.25345036E-18
  0.551999986       1.20688102E-18
  0.554000020       1.09635521E-18
  0.555999994       9.14449822E-19
  0.558000028       6.55571396E-19
  0.560000002       3.16559694E-19
  0.561999977      -1.02707779E-19
  0.564000010      -5.98736850E-19
  0.565999985      -1.16389534E-18
  0.568000019      -1.78598427E-18
  0.569999993      -2.44793597E-18
  0.572000027      -3.12767950E-18
  0.574000001      -3.79820782E-18
  0.575999975      -4.42787921E-18
  0.578000009      -4.98098386E-18
  0.579999983      -5.41859963E-18
  0.582000017      -5.69974343E-18
  0.583999991      -5.78282504E-18
  0.586000025      -5.62739201E-18
  0.588000000      -5.19613809E-18
  0.589999974      -4.45712666E-18
  0.592000008      -3.38617820E-18
  0.593999982      -1.96933402E-18
  0.596000016      -2.05305918E-19
  0.597999990       1.89220336E-18
  0.600000024       4.29242962E-18
  0.601999998       6.94586952E-18
  0.603999972       9.78313293E-18
  0.606000006       1.27144650E-17
  0.607999980       1.56300823E-17
  0.610000014       1.84014417E-17
  0.611999989       2.08835543E-17
  0.614000022       2.29184037E-17
  0.615999997       2.43395314E-17
  0.617999971       2.49777741E-17
  0.620000005       2.46680826E-17
  0.621999979       2.32573476E-17
  0.624000013       2.06130183E-17
  0.625999987       1.66323059E-17
  0.628000021       1.12516498E-17
  0.629999995       4.45608648E-18
  0.632000029      -3.71187167E-18
  0.634000003      -1.31443648E-17
  0.635999978      -2.36617727E-17
  0.638000011      -3.50083052E-17
  0.639999986      -4.68500938E-17
  0.642000020      -5.87762978E-17
  0.643999994      -7.03036486E-17
  0.646000028      -8.08847842E-17
  0.648000002      -8.99206736E-17
  0.649999976      -9.67772332E-17
  0.652000010      -1.00806099E-16
  0.653999984      -1.01369376E-16
  0.656000018      -9.78678808E-17
  0.657999992      -8.97723899E-17
  0.660000026      -7.66568986E-17
  0.662000000      -5.82328865E-17
  0.663999975      -3.43833735E-17
  0.666000009      -5.19518559E-18
  0.667999983       2.90121093E-17
  0.670000017       6.76622756E-17
  0.671999991       1.09905410E-16
  0.674000025       1.54609506E-16
  0.675999999       2.00362229E-16
  0.677999973       2.45484654E-16
  0.680000007       2.88057800E-16
  0.681999981       3.25963292E-16
  0.684000015       3.56938255E-16
  0.685999990       3.78644533E-16
  0.688000023       3.88751568E-16
  0.689999998       3.85031638E-16
  0.691999972       3.65465256E-16
  0.694000006       3.28354069E-16
  0.695999980       2.72437983E-16
  0.698000014       1.97012148E-16
  0.699999988       1.02039095E-16
  0.702000022      -1.17491816E-17
  0.703999996      -1.42764650E-16
  0.705999970      -2.88498098E-16
  0.708000004      -4.45481097E-16
  0.709999979      -6.09280699E-16
  0.712000012      -7.74531268E-16
  0.713999987      -9.35008330E-16
  0.716000021      -1.08374700E-15
  0.717999995      -1.21320688E-15
  0.720000029      -1.31548357E-15
  0.722000003      -1.38256423E-15
  0.723999977      -1.40662579E-15
  0.726000011      -1.38036618E-15
  0.727999985      -1.29736458E-15
  0.730000019      -1.15245662E-15
  0.731999993      -9.42114831E-16
  0.734000027      -6.64819061E-16
  0.736000001      -3.21400087E-16
  0.737999976       8.46582630E-17
  0.740000010       5.46978725E-16
  0.741999984       1.05612779E-15
  0.744000018       1.59954856E-15
  0.745999992       2.16160436E-15
  0.748000026       2.72374583E-15
  0.750000000       3.26481353E-15
  0.751999974       3.76148231E-15
  0.754000008       4.18884686E-15
  0.755999982       4.52114762E-15
  0.758000016       4.73262973E-15
  0.759999990       4.79851322E-15
  0.762000024       4.69606162E-15
  0.763999999       4.40571059E-15
  0.765999973       3.91223258E-15
  0.768000007       3.20588842E-15
  0.769999981       2.28352777E-15
  0.772000015       1.14958602E-15
  0.773999989      -1.83072301E-16
  0.776000023      -1.69251445E-15
  0.777999997      -3.34735541E-15
  0.779999971      -5.10667736E-15
  0.782000005      -6.92029306E-15
  0.783999979      -8.72938264E-15
  0.786000013      -1.04675408E-14
  0.787999988      -1.20622328E-14
  0.790000021      -1.34366598E-14
  0.791999996      -1.45120274E-14
  0.794000030      -1.52101639E-14
  0.796000004      -1.54564573E-14
  0.797999978      -1.51830165E-14
  0.800000012      -1.43319974E-14
  0.801999986      -1.28589656E-14
  0.804000020      -1.07361934E-14
  0.805999994      -7.95575611E-15
  0.808000028      -4.53228949E-15
  0.810000002      -5.05270664E-16
  0.811999977       4.05932197E-15
  0.814000010       9.06810265E-15
  0.815999985       1.44002547E-14
  0.818000019       1.99084811E-14
  0.819999993       2.54210224E-14
  0.822000027       3.07448023E-14
  0.824000001       3.56697060E-14
  0.825999975       3.99739649E-14
  0.828000009       4.34306149E-14
  0.829999983       4.58148805E-14
  0.832000017       4.69123743E-14
  0.833999991       4.65278586E-14
  0.836000025       4.44943764E-14
  0.838000000       4.06824233E-14
  0.839999974       3.50088881E-14
  0.842000008       2.74453701E-14
  0.843999982       1.80255303E-14
  0.846000016       6.85111249E-15
  0.847999990      -5.90373367E-15
  0.850000024      -1.99901554E-14
  0.851999998      -3.50846468E-14
  0.853999972      -5.07917310E-14
  0.856000006      -6.66494041E-14
  0.857999980      -8.21374964E-14
  0.860000014      -9.66890007E-14
  0.861999989      -1.09704238E-13
  0.864000022      -1.20567713E-13
  0.865999997      -1.28667368E-13
  0.867999971      -1.33415848E-13
  0.870000005      -1.34273154E-13
  0.871999979      -1.30770191E-13
  0.874000013      -1.22532450E-13
  0.875999987      -1.09302866E-13
  0.878000021      -9.09633222E-14
  0.879999995      -6.75536016E-14
  0.882000029      -3.92869500E-14
  0.884000003      -6.56155640E-15
  0.885999978       3.00331456E-14
  0.888000011       6.97158870E-14
  0.889999986       1.11519389E-13
  0.892000020       1.54303030E-13
  0.893999994       1.96772638E-13
  0.896000028       2.37507442E-13
  0.898000002       2.74993976E-13
  0.899999976       3.07666571E-13
  0.902000010       3.33953622E-13
  0.903999984       3.52328708E-13
  0.906000018       3.61365451E-13
  0.907999992       3.59794280E-13
  0.910000026       3.46559966E-13
  0.912000000       3.20877521E-13
  0.913999975       2.82284802E-13
  0.916000009       2.30689708E-13
  0.917999983       1.66409665E-13
  0.920000017       9.02017447E-14
  0.921999991       3.28126439E-15
  0.924000025      -9.26728854E-14
  0.925999999      -1.95527229E-13
  0.927999973      -3.02718733E-13
  0.930000007      -4.11295618E-13
  0.931999981      -5.17974932E-13
  0.934000015      -6.19216050E-13
  0.935999990      -7.11309321E-13
  0.938000023      -7.90478468E-13
  0.939999998      -8.52994487E-13
  0.941999972      -8.95298430E-13
  0.944000006      -9.14129774E-13
  0.945999980      -9.06657562E-13
  0.948000014      -8.70608436E-13
  0.949999988      -8.04390029E-13
  0.952000022      -7.07202363E-13
  0.953999996      -5.79134451E-13
  0.955999970      -4.21241628E-13
  0.958000004      -2.35598840E-13
  0.959999979      -2.53265325E-14
  0.962000012       2.05414353E-13
  0.963999987       4.51459914E-13
  0.966000021       7.06716098E-13
  0.967999995       9.64266210E-13
  0.970000029       1.21651419E-12
  0.972000003       1.45535992E-12
  0.973999977       1.67240560E-12
  0.976000011       1.85918858E-12
  0.977999985       2.00743567E-12
  0.980000019       2.10933137E-12
  0.981999993       2.15779629E-12
  0.984000027       2.14676215E-12
  0.986000001       2.07144111E-12
  0.987999976       1.92857622E-12
  0.990000010       1.71666370E-12
  0.991999984       1.43614190E-12
  0.994000018       1.08953298E-12
  0.995999992       6.81534907E-13
  0.998000026       2.19052071E-13
   1.00000000      -2.88837124E-13
   1.00199997      -8.30981714E-13
   1.00399995      -1.39433007E-12
   1.00600004      -1.96417123E-12
   1.00800002      -2.52444658E-12
   1.00999999      -3.05812298E-12
   1.01199996      -3.54762422E-12
   1.01400006      -3.97530966E-12
   1.01600003      -4.32399212E-12
   1.01800001      -4.57747599E-12
   1.01999998      -4.72110979E-12
   1.02199996      -4.74232589E-12
   1.02400005      -4.63116481E-12
   1.02600002      -4.38075054E-12
   1.02800000      -3.98771727E-12
   1.02999997      -3.45255335E-12
   1.03199995      -2.77986076E-12
   1.03400004      -1.97851197E-12
   1.03600001      -1.06168882E-12
   1.03799999      -4.68004643E-14
   1.03999996       1.04473006E-12
   1.04200006       2.18780853E-12
   1.04400003       3.35414205E-12
   1.04600000       4.51283672E-12
   1.04799998       5.63110886E-12
   1.04999995       6.67509450E-12
   1.05200005       7.61074537E-12
   1.05400002       8.40478381E-12
   1.05599999       9.02569772E-12
   1.05799997       9.44474620E-12
   1.05999994       9.63694055E-12
   1.06200004       9.58198972E-12
   1.06400001       9.26516155E-12
   1.06599998       8.67803399E-12
   1.06799996       7.81911688E-12
   1.07000005       6.69431481E-12
   1.07200003       5.31719417E-12
   1.07400000       3.70906864E-12
   1.07599998       1.89885130E-12
   1.07799995      -7.73027814E-14
   1.08000004      -2.17658335E-12
   1.08200002      -4.35033086E-12
   1.08399999      -6.54504922E-12
   1.08599997      -8.70360901E-12
   1.08800006      -1.07666159E-11
   1.09000003      -1.26739157E-11
   1.09200001      -1.43661966E-11
   1.09399998      -1.57866515E-11
   1.09599996      -1.68826602E-11
   1.09800005      -1.76074242E-11
   1.10000002      -1.79215462E-11
   1.10200000      -1.77944673E-11
   1.10399997      -1.72057178E-11
   1.10599995      -1.61459873E-11
   1.10800004      -1.46178989E-11
   1.11000001      -1.26365186E-11
   1.11199999      -1.02295412E-11
   1.11399996      -7.43713251E-12
   1.11600006      -4.31143099E-12
   1.11800003      -9.15708156E-13
   1.12000000       2.67682057E-12
   1.12199998       6.38449580E-12
   1.12399995       1.01190115E-11
   1.12600005       1.37874608E-11
   1.12800002       1.72945928E-11
   1.13000000       2.05452062E-11
   1.13199997       2.34466526E-11
   1.13399994       2.59113651E-11
   1.13600004       2.78593260E-11
   1.13800001       2.92204455E-11
   1.13999999       2.99367441E-11
   1.14199996       2.99642915E-11
   1.14400005       2.92748534E-11
   1.14600003       2.78571541E-11
   1.14800000       2.57177404E-11
   1.14999998       2.28813999E-11
   1.15199995       1.93911189E-11
   1.15400004       1.53075417E-11
   1.15600002       1.07079666E-11
   1.15799999       5.68486274E-12
   1.15999997       3.43957800E-13
   1.16199994      -5.19808328E-12
   1.16400003      -1.08163244E-11
   1.16600001      -1.63804890E-11
   1.16799998      -2.17581179E-11
   1.16999996      -2.68178518E-11
   1.17200005      -3.14327384E-11
   1.17400002      -3.54835258E-11
   1.17600000      -3.88617853E-11
   1.17799997      -4.14728356E-11
   1.17999995      -4.32383400E-11
   1.18200004      -4.40985408E-11
   1.18400002      -4.40140251E-11
   1.18599999      -4.29669980E-11
   1.18799996      -4.09620220E-11
   1.19000006      -3.80261586E-11
   1.19200003      -3.42085527E-11
   1.19400001      -2.95794084E-11
   1.19599998      -2.42284821E-11
   1.19799995      -1.82629623E-11
   1.20000005      -1.18049589E-11
   1.20200002      -4.98856902E-12
   1.20400000       2.04337242E-12
   1.20599997       9.14275079E-12
   1.20799994       1.61597836E-11
   1.21000004       2.29466723E-11
   1.21200001       2.93611489E-11
   1.21399999       3.52698738E-11
   1.21599996       4.05515795E-11
   1.21800005       4.50998336E-11
   1.22000003       4.88253986E-11
   1.22200000       5.16580702E-11
   1.22399998       5.35480063E-11
   1.22599995       5.44664661E-11
   1.22800004       5.44059138E-11
   1.23000002       5.33796306E-11
   1.23199999       5.14206837E-11
   1.23399997       4.85804105E-11
   1.23599994       4.49264272E-11
   1.23800004       4.05402274E-11
   1.24000001       3.55144872E-11
   1.24199998       2.99501743E-11
   1.24399996       2.39534989E-11
   1.24600005       1.76328761E-11
   1.24800003       1.10960052E-11
   1.25000000       4.44710284E-12
   1.25199997      -2.21554242E-12
   1.25399995      -8.80165212E-12
   1.25600004      -1.52305911E-11
   1.25800002      -2.14325137E-11
   1.25999999      -2.73489582E-11
   1.26199996      -3.29329064E-11
   1.26400006      -3.81483560E-11
   1.26600003      -4.29692740E-11
   1.26800001      -4.73781674E-11
   1.26999998      -5.13642254E-11
   1.27199996      -5.49212030E-11
   1.27400005      -5.80449924E-11
   1.27600002      -6.07312325E-11
   1.27800000      -6.29728630E-11
   1.27999997      -6.47577963E-11
   1.28199995      -6.60669783E-11
   1.28400004      -6.68727643E-11
   1.28600001      -6.71377884E-11
   1.28799999      -6.68144914E-11
   1.28999996      -6.58452598E-11
   1.29200006      -6.41632789E-11
   1.29400003      -6.16942539E-11
   1.29600000      -5.83587206E-11
   1.29799998      -5.40751922E-11
   1.29999995      -4.87638888E-11
   1.30200005      -4.23510706E-11
   1.30400002      -3.47738262E-11
   1.30599999      -2.59851307E-11
   1.30799997      -1.59590396E-11
   1.30999994      -4.69584441E-12
   1.31200004       7.77304957E-12
   1.31400001       2.13807340E-11
   1.31599998       3.60210160E-11
   1.31799996       5.15455560E-11
   1.32000005       6.77621362E-11
   1.32200003       8.44340500E-11
   1.32400000       1.01280914E-10
   1.32599998       1.17981000E-10
   1.32799995       1.34175102E-10
   1.33000004       1.49471949E-10
   1.33200002       1.63455208E-10
   1.33399999       1.75692030E-10
   1.33599997       1.85742796E-10
   1.33800006       1.93172214E-10
   1.34000003       1.97561204E-10
   1.34200001       1.98519659E-10
   1.34399998       1.95699457E-10
   1.34599996       1.88807497E-10
   1.34800005       1.77618420E-10
   1.35000002       1.61986591E-10
   1.35200000       1.41856998E-10
   1.35399997       1.17274634E-10
   1.35599995       8.83919396E-11
   1.35800004       5.54739830E-11
   1.36000001       1.89012157E-11
   1.36199999      -2.08306272E-11
   1.36399996      -6.31135838E-11
   1.36600006      -1.07233784E-10
   1.36800003      -1.52380691E-10
   1.37000000      -1.97659639E-10
   1.37199998      -2.42107362E-10
   1.37399995      -2.84710311E-10
   1.37600005      -3.24425459E-10
   1.37800002      -3.60203173E-10
   1.38000000      -3.91011806E-10
   1.38199997      -4.15863566E-10
   1.38399994      -4.33840630E-10
   1.38600004      -4.44121351E-10
   1.38800001      -4.46005594E-10
   1.38999999      -4.38938663E-10
   1.39199996      -4.22533120E-10
   1.39400005      -3.96587568E-10
   1.39600003      -3.61102176E-10
   1.39800000      -3.16290188E-10
   1.39999998      -2.62584648E-10
   1.40199995      -2.00640574E-10
   1.40400004      -1.31331446E-10
   1.40600002      -5.57404400E-11
   1.40799999       2.48537076E-11
   1.40999997       1.08996395E-10
   1.41199994       1.95082048E-10
   1.41400003       2.81383805E-10
   1.41600001       3.66087438E-10
   1.41799998       4.47329063E-10
   1.41999996       5.23235733E-10
   1.42200005       5.91968141E-10
   1.42400002       6.51764198E-10
   1.42600000       7.00982772E-10
   1.42799997       7.38146710E-10
   1.42999995       7.61983032E-10
   1.43200004       7.71460784E-10
   1.43400002       7.65824071E-10
   1.43599999       7.44619866E-10
   1.43799996       7.07719994E-10
   1.44000006       6.55336230E-10
   1.44200003       5.88027349E-10
   1.44400001       5.06698516E-10
   1.44599998       4.12592654E-10
   1.44799995       3.07273262E-10
   1.45000005       1.92598715E-10
   1.45200002       7.06890449E-11
   1.45400000      -5.61147309E-11
   1.45599997      -1.85297930E-10
   1.45799994      -3.14224841E-10
   1.46000004      -4.40196130E-10
   1.46200001      -5.60509472E-10
   1.46399999      -6.72522094E-10
   1.46599996      -7.73712816E-10
   1.46800005      -8.61744121E-10
   1.47000003      -9.34520350E-10
   1.47200000      -9.90241777E-10
   1.47399998      -1.02745346E-09
   1.47599995      -1.04508602E-09
   1.47800004      -1.04248798E-09
   1.48000002      -1.01944919E-09
   1.48199999      -9.76213776E-10
   1.48399997      -9.13481346E-10
   1.48599994      -8.32397817E-10
   1.48800004      -7.34534267E-10
   1.49000001      -6.21855289E-10
   1.49199998      -4.96676422E-10
   1.49399996      -3.61611713E-10
   1.49600005      -2.19513643E-10
   1.49800003      -7.34047892E-11
   1.50000000       7.35948108E-11
   1.50199997       2.18344953E-10
   1.50399995       3.57764013E-10
   1.50600004       4.88907193E-10
   1.50800002       6.09042428E-10
   1.50999999       7.15721260E-10
   1.51199996       8.06843925E-10
   1.51400006       8.80715334E-10
   1.51600003       9.36090427E-10
   1.51800001       9.72208869E-10
   1.51999998       9.88815252E-10
   1.52199996       9.86165927E-10
   1.52400005       9.65022395E-10
   1.52600002       9.26627886E-10
   1.52800000       8.72672046E-10
   1.52999997       8.05239986E-10
   1.53199995       7.26749827E-10
   1.53400004       6.39878928E-10
   1.53600001       5.47480838E-10
   1.53799999       4.52494903E-10
   1.53999996       3.57851693E-10
   1.54200006       2.66376532E-10
   1.54400003       1.80694057E-10
   1.54600000       1.03136229E-10
   1.54799998       3.56576019E-11
   1.54999995      -2.02399434E-11
   1.55200005      -6.35701908E-11
   1.55400002      -9.39106362E-11
   1.55599999      -1.11433897E-10
   1.55799997      -1.16920293E-10
   1.55999994      -1.11751448E-10
   1.56200004      -9.78828407E-11
   1.56400001      -7.77953604E-11
   1.56599998      -5.44280350E-11
   1.56799996      -3.10908105E-11
   1.57000005      -1.13601750E-11
   1.57200003       1.04005454E-12
   1.57400000       2.36984521E-12
   1.57599998      -1.09859994E-11
   1.57799995      -4.23726089E-11
   1.58000004      -9.47188369E-11
   1.58200002      -1.70393921E-10
   1.58399999      -2.71071832E-10
   1.58599997      -3.97608585E-10
   1.58800006      -5.49935930E-10
   1.59000003      -7.26975813E-10
   1.59200001      -9.26579591E-10
   1.59399998      -1.14549559E-09
   1.59599996      -1.37936673E-09
   1.59800005      -1.62276226E-09
   1.60000002      -1.86924165E-09
   1.60200000      -2.11145523E-09
   1.60399997      -2.34127628E-09
   1.60599995      -2.54996779E-09
   1.60800004      -2.72837797E-09
   1.61000001      -2.86716273E-09
   1.61199999      -2.95703106E-09
   1.61399996      -2.98900549E-09
   1.61600006      -2.95469738E-09
   1.61800003      -2.84658452E-09
   1.62000000      -2.65828692E-09
   1.62199998      -2.38483566E-09
   1.62399995      -2.02292116E-09
   1.62600005      -1.57112034E-09
   1.62800002      -1.03009201E-09
   1.63000000      -4.02732292E-10
   1.63199997       3.05712317E-10
   1.63399994       1.08758247E-09
   1.63600004       1.93279792E-09
   1.63800001       2.82890666E-09
   1.63999999       3.76119358E-09
   1.64199996       4.71284922E-09
   1.64400005       5.66520209E-09
   1.64600003       6.59799948E-09
   1.64800000       7.48975193E-09
   1.64999998       8.31812397E-09
   1.65199995       9.06036135E-09
   1.65400004       9.69376401E-09
   1.65600002       1.01961719E-08
   1.65799999       1.05464775E-08
   1.65999997       1.07251390E-08
   1.66199994       1.07146869E-08
   1.66400003       1.05002185E-08
   1.66600001       1.00698507E-08
   1.66799998       9.41515310E-09
   1.66999996       8.53150794E-09
   1.67200005       7.41842499E-09
   1.67400002       6.07977979E-09
   1.67600000       4.52397320E-09
   1.67799997       2.76400969E-09
   1.67999995       8.17485468E-10
   1.68200004      -1.29351463E-09
   1.68400002      -3.54261243E-09
   1.68599999      -5.89942362E-09
   1.68799996      -8.32993141E-09
   1.69000006      -1.07969473E-08
   1.69200003      -1.32606397E-08