  -1.99999996E-02     4.25451419E-31
  -1.79999992E-02     1.27635421E-30
  -1.60000008E-02     2.12725696E-30
  -1.40000004E-02     2.97815970E-30
  -1.20000001E-02     3.82906245E-30
  -9.99999978E-03     4.67996500E-30
  -8.00000038E-03     5.53086756E-30
  -6.00000005E-03     6.38177049E-30
  -4.00000019E-03     7.23267267E-30
  -2.00000009E-03     8.08357560E-30
   0.00000000         8.93447854E-30
   2.00000009E-03     9.78538072E-30
   4.00000019E-03     1.06362844E-29
   6.00000005E-03     1.14871881E-29
   8.00000038E-03     1.23380918E-29
   9.99999978E-03     1.31889955E-29
   1.20000001E-02     1.40398984E-29
   1.40000004E-02     1.48886181E-29
   1.60000008E-02     1.57305414E-29
   1.79999992E-02     1.65869904E-29
   1.99999996E-02     1.74740692E-29
   2.19999999E-02     1.83666219E-29
   2.40000002E-02     1.93722522E-29
   2.60000005E-02     2.01527022E-29
   2.80000009E-02     2.02978812E-29
   2.99999993E-02     2.01420419E-29
   3.20000015E-02     1.98119330E-29
   3.40000018E-02     1.91971175E-29
   3.59999985E-02     1.84613942E-29
   3.79999988E-02     1.77146209E-29
   3.99999991E-02     1.70209144E-29
   4.19999994E-02     1.65287280E-29
   4.39999998E-02     1.62806968E-29
   4.60000001E-02     1.62148180E-29
   4.80000004E-02     1.62782894E-29
   5.00000007E-02     1.61680013E-29
   5.20000011E-02     1.56408803E-29
   5.40000014E-02     1.49320779E-29
   5.60000017E-02     1.41355660E-29
   5.79999983E-02     1.31636544E-29
   5.99999987E-02     1.20021314E-29
   6.19999990E-02     1.07200744E-29
   6.40000030E-02     9.39477730E-30
   6.59999996E-02     8.04000671E-30
   6.80000037E-02     6.70749941E-30
   7.00000003E-02     5.40969083E-30
   7.19999969E-02     4.12729157E-30
   7.40000010E-02     2.83932084E-30
   7.59999976E-02     1.53928540E-30
   7.80000016E-02     2.45925902E-31
   7.99999982E-02    -1.03029908E-30
   8.20000023E-02    -2.30504794E-30
   8.39999989E-02    -3.61447623E-30
   8.60000029E-02    -5.23963498E-30
   8.79999995E-02    -7.25696798E-30
   9.00000036E-02    -9.50820630E-30
   9.20000002E-02    -1.19924919E-29
   9.39999968E-02    -1.47420909E-29
   9.60000008E-02    -1.75476187E-29
   9.79999974E-02    -1.98213159E-29
  0.100000001        -2.14773147E-29
  0.101999998        -2.24847220E-29
  0.104000002        -2.28635374E-29
  0.105999999        -2.29753828E-29
  0.108000003        -2.26223613E-29
  0.109999999        -2.16566293E-29
  0.112000003        -2.02774017E-29
  0.114000000        -1.85833928E-29
  0.115999997        -1.64880683E-29
  0.118000001        -1.40714114E-29
  0.119999997        -1.14731371E-29
  0.122000001        -8.43037315E-30
  0.123999998        -4.46190873E-30
  0.126000002         5.29637376E-32
  0.128000006         4.81504491E-30
  0.129999995         1.01900194E-29
  0.131999999         1.62344008E-29
  0.134000003         2.26018366E-29
  0.136000007         2.91576585E-29
  0.137999997         3.60597701E-29
  0.140000001         4.30739288E-29
  0.142000005         5.03699773E-29
  0.143999994         5.81823918E-29
  0.145999998         6.59883243E-29
  0.148000002         7.36698357E-29
  0.150000006         8.08756002E-29
  0.151999995         8.71681370E-29
  0.153999999         9.20633092E-29
  0.156000003         9.42513763E-29
  0.158000007         9.31264948E-29
  0.159999996         8.68058214E-29
  0.162000000         7.43263491E-29
  0.164000005         5.52880080E-29
  0.165999994         2.74798726E-29
  0.167999998        -1.02845058E-29
  0.170000002        -5.95714025E-29
  0.172000006        -1.21771374E-28
  0.173999995        -1.97526445E-28
  0.175999999        -2.87623072E-28
  0.178000003        -3.92132216E-28
  0.180000007        -5.09740741E-28
  0.181999996        -6.38266087E-28
  0.184000000        -7.74543109E-28
  0.186000004        -9.13718655E-28
  0.187999994        -1.04964164E-27
  0.189999998        -1.17422533E-27
  0.192000002        -1.27767550E-27
  0.194000006        -1.34849002E-27
  0.195999995        -1.37328637E-27
  0.197999999        -1.33652855E-27
  0.200000003        -1.22124181E-27
  0.202000007        -1.00986936E-27
  0.203999996        -6.84323691E-28
  0.206000000        -2.28187165E-28
  0.208000004         3.72660222E-28
  0.209999993         1.13040368E-27
  0.211999997         2.05287531E-27
  0.214000002         3.14198118E-27
  0.216000006         4.39328040E-27
  0.217999995         5.79237375E-27
  0.219999999         7.31216050E-27
  0.222000003         8.91315063E-27
  0.224000007         1.05405137E-26
  0.225999996         1.21232005E-26
  0.228000000         1.35727078E-26
  0.230000004         1.47814599E-26
  0.231999993         1.56240142E-26
  0.233999997         1.59559552E-26
  0.236000001         1.56150841E-26
  0.238000005         1.44257299E-26
  0.239999995         1.22021467E-26
  0.241999999         8.75427219E-27
  0.244000003         3.89655032E-27
  0.246000007        -2.54289390E-27
  0.247999996        -1.07099539E-26
  0.250000000        -2.07081488E-26
  0.252000004        -3.25813359E-26
  0.254000008        -4.62928508E-26
  0.256000012        -6.17020191E-26
  0.257999986        -7.85380981E-26
  0.259999990        -9.63752724E-26
  0.261999995        -1.14605453E-25
  0.263999999        -1.32410759E-25
  0.266000003        -1.48744124E-25
  0.268000007        -1.62311619E-25
  0.270000011        -1.71563380E-25
  0.272000015        -1.74700175E-25
  0.273999989        -1.69694569E-25
  0.275999993        -1.54330504E-25
  0.277999997        -1.26268787E-25
  0.280000001        -8.31433694E-26
  0.282000005        -2.26883792E-26
  0.284000009         5.71000634E-26
  0.286000013         1.57764662E-25
  0.287999988         2.80151131E-25
  0.289999992         4.24139447E-25
  0.291999996         5.88345134E-25
  0.294000000         7.69805132E-25
  0.296000004         9.63660254E-25
  0.298000008         1.16285187E-24
  0.300000012         1.35785513E-24
  0.301999986         1.53648213E-24
  0.303999990         1.68378160E-24
  0.305999994         1.78207347E-24
  0.307999998         1.81116390E-24
  0.310000002         1.74876658E-24
  0.312000006         1.57118363E-24
  0.314000010         1.25427543E-24
  0.316000015         7.74737287E-25
  0.317999989         1.11711135E-25
  0.319999993        -7.51277008E-25
  0.321999997        -1.82407183E-24
  0.324000001        -3.10738385E-24
  0.326000005        -4.59009880E-24
  0.328000009        -6.24650830E-24
  0.330000013        -8.03360326E-24
  0.331999987        -9.88861047E-24
  0.333999991        -1.17269877E-23
  0.335999995        -1.34411170E-23
  0.338000000        -1.48999732E-23
  0.340000004        -1.59500654E-23
  0.342000008        -1.64179104E-23
  0.344000012        -1.61143741E-23
  0.345999986        -1.48410737E-23
  0.347999990        -1.23990830E-23
  0.349999994        -8.60001802E-24
  0.351999998        -3.27953617E-24
  0.354000002         3.68689487E-24
  0.356000006         1.23662474E-23
  0.358000010         2.27487022E-23
  0.360000014         3.47276197E-23
  0.361999989         4.80796491E-23
  0.363999993         6.24461220E-23
  0.365999997         7.73171282E-23
  0.368000001         9.20198357E-23
  0.370000005         1.05712845E-22
  0.372000009         1.17388384E-22
  0.374000013         1.25884252E-22
  0.375999987         1.29907367E-22
  0.377999991         1.28070482E-22
  0.379999995         1.18943501E-22
  0.381999999         1.01119946E-22
  0.384000003         7.32992388E-23
  0.386000007         3.43837332E-23
  0.388000011        -1.64108911E-23
  0.389999986        -7.94345445E-23
  0.391999990        -1.54474957E-22
  0.393999994        -2.40628451E-22
  0.395999998        -3.36175889E-22
  0.398000002        -4.38471762E-22
  0.400000006        -5.43855400E-22
  0.402000010        -6.47594925E-22
  0.404000014        -7.43873771E-22
  0.405999988        -8.25832304E-22
  0.407999992        -8.85673753E-22
  0.409999996        -9.14845905E-22
  0.412000000        -9.04304905E-22
  0.414000005        -8.44869575E-22
  0.416000009        -7.27666100E-22
  0.418000013        -5.44662386E-22
  0.419999987        -2.89285215E-22
  0.421999991         4.28935481E-23
  0.423999995         4.53420133E-22
  0.425999999         9.40199313E-22
  0.428000003         1.49674586E-21
  0.430000007         2.11148777E-21
  0.432000011         2.76717057E-21
  0.433999985         3.44041461E-21
  0.435999990         4.10148581E-21
  0.437999994         4.71433617E-21
  0.439999998         5.23697901E-21
  0.442000002         5.62224928E-21
  0.444000006         5.81899831E-21
  0.446000010         5.77376591E-21
  0.448000014         5.43294165E-21
  0.449999988         4.74542208E-21
  0.451999992         3.66573772E-21
  0.453999996         2.15759077E-21
  0.456000000         1.97726900E-22
  0.458000004        -2.21999222E-21
  0.460000008        -5.08046820E-21
  0.462000012        -8.34339683E-21
  0.463999987        -1.19396857E-20
  0.465999991        -1.57685069E-20
  0.467999995        -1.96952916E-20
  0.469999999        -2.35509581E-20
  0.472000003        -2.71326582E-20
  0.474000007        -3.02063806E-20
  0.476000011        -3.25116263E-20
  0.477999985        -3.37683980E-20
  0.479999989        -3.36866332E-20
  0.481999993        -3.19781659E-20
  0.483999997        -2.83711156E-20
  0.486000001        -2.26265321E-20
  0.488000005        -1.45569991E-20
  0.490000010        -4.04659421E-21
  0.492000014         8.92837104E-21
  0.493999988         2.42787720E-20
  0.495999992         4.17832256E-20
  0.497999996         6.10709837E-20
  0.500000000         8.16084631E-20
  0.501999974         1.02690809E-19
  0.504000008         1.23439943E-19
  0.505999982         1.42810536E-19
  0.508000016         1.59605120E-19
  0.509999990         1.72499573E-19
  0.512000024         1.80079869E-19
  0.513999999         1.80890480E-19
  0.515999973         1.73494568E-19
  0.518000007         1.56545443E-19
  0.519999981         1.28868019E-19
  0.522000015         8.95486409E-20
  0.523999989         3.80303395E-20
  0.526000023        -2.57895673E-20
  0.527999997        -1.01463932E-19
  0.529999971        -1.87907078E-19
  0.532000005        -2.83318510E-19
  0.533999979        -3.85124953E-19
  0.536000013        -4.89947038E-19
  0.537999988        -5.93597112E-19
  0.540000021        -6.91114055E-19
  0.541999996        -7.76840572E-19
  0.544000030        -8.44547942E-19
  0.546000004        -8.87610913E-19
  0.547999978        -8.99234765E-19
  0.550000012        -8.72733035E-19
  0.551999986        -8.01854358E-19
  0.554000020        -6.81150354E-19
  0.555999994        -5.06377379E-19
  0.558000028        -2.74918750E-19
  0.560000002         1.37871880E-20
  0.561999977         3.57833008E-19
  0.564000010         7.52461957E-19
  0.565999985         1.18974618E-18
  0.568000019         1.65834896E-18
  0.569999993         2.14339743E-18
  0.572000027         2.62648932E-18
  0.574000001         3.08586283E-18
  0.575999975         3.49674557E-18
  0.578000009         3.83190509E-18
  0.579999983         4.06241055E-18
  0.582000017         4.15860545E-18
  0.583999991         4.09129114E-18
  0.586000025         3.83310657E-18
  0.588000000         3.36007093E-18
  0.589999974         2.65325440E-18
  0.592000008         1.70052659E-18
  0.593999982         4.98313298E-19
  0.596000016        -9.46709969E-19
  0.597999990        -2.61607718E-18
  0.600000024        -4.47823590E-18
  0.601999998        -6.48759988E-18
  0.603999972        -8.58404613E-18
  0.606000006        -1.06929663E-17
  0.607999980        -1.27259553E-17
  0.610000014        -1.45822231E-17
  0.611999989        -1.61507858E-17
  0.614000022        -1.73134908E-17
  0.615999997        -1.79488548E-17
  0.617999971        -1.79367300E-17
  0.620000005        -1.71636850E-17
  0.621999979        -1.55290355E-17
  0.624000013        -1.29513414E-17
  0.625999987        -9.37518896E-18
  0.628000021        -4.77798588E-18
  0.629999995         8.23485545E-19
  0.632000029         7.36710711E-18
  0.634000003         1.47403933E-17
  0.635999978         2.27767722E-17
  0.638000011         3.12535371E-17
  0.639999986         3.98918438E-17
  0.642000020         4.83590830E-17
  0.643999994         5.62739243E-17
  0.646000028         6.32142343E-17
  0.648000002         6.87280151E-17
  0.649999976         7.23473472E-17
  0.652000010         7.36053632E-17
  0.653999984         7.20557958E-17
  0.656000018         6.72949412E-17
  0.657999992         5.89853164E-17
  0.660000026         4.68803818E-17
  0.662000000         3.08494495E-17
  0.663999975         1.09017227E-17
  0.666000009        -1.27916070E-17
  0.667999983        -3.98784667E-17
  0.670000017        -6.98114629E-17
  0.671999991        -1.01839228E-16
  0.674000025        -1.35004810E-16
  0.675999999        -1.68152213E-16
  0.677999973        -1.99942140E-16
  0.680000007        -2.28877620E-16
  0.681999981        -2.53340064E-16
  0.684000015        -2.71635869E-16
  0.685999990        -2.82053183E-16
  0.688000023        -2.82928142E-16
  0.689999998        -2.72719224E-16
  0.691999972        -2.50088119E-16
  0.694000006        -2.13984623E-16
  0.695999980        -1.63732620E-16
  0.698000014        -9.91142898E-17
  0.699999988        -2.04483216E-17
  0.702000022         7.13414228E-17
  0.703999996         1.74671309E-16
  0.705999970         2.87261430E-16
  0.708000004         4.06121355E-16
  0.709999979         5.27562189E-16
  0.712000012         6.47237939E-16
  0.713999987         7.60218793E-16
  0.716000021         8.61098565E-16
  0.717999995         9.44136381E-16
  0.720000029         1.00343165E-15
  0.722000003         1.03313180E-15
  0.723999977         1.02766675E-15
  0.726000011         9.82006906E-16
  0.727999985         8.91937023E-16
  0.730000019         7.54336732E-16
  0.731999993         5.67459347E-16
  0.734000027         3.31196315E-16
  0.736000001         4.73155251E-17
  0.737999976        -2.80338842E-16
  0.740000010        -6.45698986E-16
  0.741999984        -1.04039098E-15
  0.744000018        -1.45372940E-15
  0.745999992        -1.87280022E-15
  0.748000026        -2.28264029E-15
  0.750000000        -2.66651880E-15
  0.751999974        -3.00632703E-15
  0.754000008        -3.28307217E-15
  0.755999982        -3.47747238E-15
  0.758000016        -3.57064452E-15
  0.759999990        -3.54486825E-15
  0.762000024        -3.38441204E-15
  0.763999999        -3.07639317E-15
  0.765999973        -2.61164504E-15
  0.768000007        -1.98556360E-15
  0.769999981        -1.19889329E-15
  0.772000015        -2.58418053E-16
  0.773999989         8.22482809E-16
  0.776000023         2.02345033E-15
  0.777999997         3.31697043E-15
  0.779999971         4.66844284E-15
  0.782000005         6.03651964E-15
  0.783999979         7.37373775E-15
  0.786000013         8.62745832E-15
  0.787999988         9.74111945E-15
  0.790000021         1.06557914E-14
  0.791999996         1.13120149E-14
  0.794000030         1.16519013E-14
  0.796000004         1.16214318E-14
  0.797999978         1.11729143E-14
  0.800000012         1.02675098E-14
  0.801999986         8.87776503E-15
  0.804000020         6.99003860E-15
  0.805999994         4.60673734E-15
  0.808000028         1.74824625E-15
  0.810000002        -1.54555360E-15
  0.811999977        -5.21427595E-15
  0.814000010        -9.17663213E-15
  0.815999985        -1.33307400E-14
  0.818000019        -1.75552000E-14
  0.819999993        -2.17110062E-14
  0.822000027        -2.56443003E-14
  0.824000001        -2.91899988E-14
  0.825999975        -3.21762440E-14
  0.828000009        -3.44296193E-14
  0.829999983        -3.57810637E-14
  0.832000017        -3.60722872E-14
  0.833999991        -3.51626111E-14
  0.836000025        -3.29359580E-14
  0.838000000        -2.93078075E-14
  0.839999974        -2.42318677E-14
  0.842000008        -1.77061514E-14
  0.843999982        -9.77825930E-15
  0.846000016        -5.49509131E-16
  0.847999990         9.82231942E-15
  0.850000024         2.11218677E-14
  0.851999998         3.30769551E-14
  0.853999972         4.53613757E-14
  0.856000006         5.75998803E-14
  0.857999980         6.93753594E-14
  0.860000014         8.02383198E-14
  0.861999989         8.97184955E-14
  0.864000022         9.73383971E-14
  0.865999997         1.02628721E-13
  0.867999971         1.05145019E-13
  0.870000005         1.04485478E-13
  0.871999979         1.00309098E-13
  0.874000013         9.23538318E-14
  0.875999987         8.04539879E-14
  0.878000021         6.45562298E-14
  0.879999995         4.47336294E-14
  0.882000029         2.11968216E-14
  0.884000003        -5.69815200E-15
  0.885999978        -3.54460690E-14
  0.888000011        -6.73933023E-14
  0.889999986        -1.00743612E-13
  0.892000020        -1.34569331E-13
  0.893999994        -1.67827910E-13
  0.896000028        -1.99384115E-13
  0.898000002        -2.28037451E-13
  0.899999976        -2.52554542E-13
  0.902000010        -2.71705943E-13
  0.903999984        -2.84306378E-13
  0.906000018        -2.89257767E-13
  0.907999992        -2.85593570E-13
  0.910000026        -2.72523350E-13
  0.912000000        -2.49475977E-13
  0.913999975        -2.16139959E-13
  0.916000009        -1.72499317E-13
  0.917999983        -1.18863646E-13
  0.920000017        -5.58902764E-14
  0.921999991         1.54024539E-14
  0.924000025         9.36321401E-14
  0.925999999         1.77060664E-13
  0.927999973         2.63614814E-13
  0.930000007         3.50919380E-13
  0.931999981         4.36343019E-13
  0.934000015         5.17056504E-13
  0.935999990         5.90102728E-13
  0.938000023         6.52477096E-13
  0.939999998         7.01216971E-13
  0.941999972         7.33498006E-13
  0.944000006         7.46734488E-13
  0.945999980         7.38682227E-13
  0.948000014         7.07538845E-13
  0.949999988         6.52040162E-13
  0.952000022         5.71548234E-13
  0.953999996         4.66127516E-13
  0.955999970         3.36606204E-13
  0.958000004         1.84619193E-13
  0.959999979         1.26301227E-14
  0.962000012        -1.76070191E-13
  0.963999987        -3.77391261E-13
  0.966000021        -5.86496780E-13
  0.967999995        -7.97885954E-13
  0.970000029        -1.00550232E-12
  0.972000003        -1.20286788E-12
  0.973999977        -1.38324215E-12
  0.976000011        -1.53980138E-12
  0.977999985        -1.66583555E-12
  0.980000019        -1.75495881E-12
  0.981999993        -1.80132580E-12
  0.984000027        -1.79985031E-12
  0.986000001        -1.74641844E-12
  0.987999976        -1.63808984E-12
  0.990000010        -1.47327994E-12
  0.991999984        -1.25191632E-12
  0.994000018        -9.75561754E-13
  0.995999992        -6.47500174E-13
  0.998000026        -2.72776430E-13
   1.00000000         1.41811462E-13
   1.00199997         5.87772398E-13
   1.00399995         1.05503692E-12
   1.00600004         1.53212555E-12
   1.00800002         2.00637228E-12
   1.00999999         2.46419812E-12
   1.01199996         2.89143124E-12
   1.01400006         3.27366780E-12
   1.01600003         3.59666485E-12
   1.01800001         3.84675885E-12
   1.01999998         4.01129564E-12
   1.02199996         4.07906087E-12
   1.02400005         4.04070223E-12
   1.02600002         3.88912600E-12
   1.02800000         3.61985680E-12
   1.02999997         3.23134900E-12
   1.03199995         2.72523388E-12
   1.03400004         2.10649575E-12
   1.03600001         1.38356731E-12
   1.03799999         5.68329455E-13
   1.03999996        -3.23981456E-13
   1.04200006        -1.27496744E-12
   1.04400003        -2.26336224E-12
   1.04600000        -3.26542461E-12
   1.04799998        -4.25542240E-12
   1.04999995        -5.20620482E-12
   1.05200005        -6.08984738E-12
   1.05400002        -6.87835813E-12
   1.05599999        -7.54442689E-12
   1.05799997        -8.06220542E-12
   1.05999994        -8.40808673E-12
   1.06200004        -8.56147878E-12
   1.06400001        -8.50553395E-12
   1.06599998        -8.22782120E-12
   1.06799996        -7.72092199E-12
   1.07000005        -6.98292205E-12
   1.07200003        -6.01778133E-12
   1.07400000        -4.83556944E-12
   1.07599998        -3.45255747E-12
   1.07799995        -1.89114262E-12
   1.08000004        -1.79611385E-13
   1.08200002         1.64826757E-12
   1.08399999         3.55381219E-12
   1.08599997         5.49415157E-12
   1.08800006         7.42309946E-12
   1.09000003         9.29215819E-12
   1.09200001         1.10516232E-11
   1.09399998         1.26517841E-11
   1.09599996         1.40441729E-11
   1.09800005         1.51828428E-11
   1.10000002         1.60256374E-11
   1.10200000         1.65354327E-11
   1.10399997         1.66812952E-11
   1.10599995         1.64395355E-11
   1.10800004         1.57946399E-11
   1.11000001         1.47400130E-11
   1.11199999         1.32785571E-11
   1.11399996         1.14230257E-11
   1.11600006         9.19614385E-12
   1.11800003         6.63049563E-12
   1.12000000         3.76817588E-12
   1.12199998         6.60180352E-13
   1.12399995        -2.63442870E-12
   1.12600005        -6.04958401E-12
   1.12800002        -9.51348288E-12
   1.13000000        -1.29500291E-11
   1.13199997        -1.62804336E-11
   1.13399994        -1.94249200E-11
   1.13600004        -2.23045159E-11
   1.13800001        -2.48428708E-11
   1.13999999        -2.69680753E-11
   1.14199996        -2.86144389E-11
   1.14400005        -2.97241502E-11
   1.14600003        -3.02488277E-11
   1.14800000        -3.01508957E-11
   1.14999998        -2.94047356E-11
   1.15199995        -2.79976233E-11
   1.15400004        -2.59303985E-11
   1.15600002        -2.32178460E-11
   1.15799999        -1.98887937E-11
   1.15999997        -1.59859122E-11
   1.16199994        -1.15652106E-11
   1.16400003        -6.69523898E-12
   1.16600001        -1.45604004E-12
   1.16799998         4.06217204E-12
   1.16999996         9.76055087E-12
   1.17200005         1.55333645E-11
   1.17400002         2.12698938E-11
   1.17600000         2.68564476E-11
   1.17799997         3.21784648E-11
   1.17999995         3.71226626E-11
   1.18200004         4.15791741E-11
   1.18400002         4.54436488E-11
   1.18599999         4.86192857E-11
   1.18799996         5.10187136E-11
   1.19000006         5.25657642E-11
   1.19200003         5.31970440E-11
   1.19400001         5.28633110E-11
   1.19599998         5.15306409E-11
   1.19799995         4.91813326E-11
   1.20000005         4.58145917E-11
   1.20200002         4.14469466E-11
   1.20400000         3.61124360E-11
   1.20599997         2.98625152E-11
   1.20799994         2.27657320E-11
   1.21000004         1.49071658E-11
   1.21200001         6.38761700E-12
   1.21399999        -2.67737937E-12
   1.21599996        -1.21587896E-11
   1.21800005        -2.19154885E-11
   1.22000003        -3.17958576E-11
   1.22200000        -4.16395390E-11
   1.22399998        -5.12793939E-11
   1.22599995        -6.05435424E-11
   1.22800004        -6.92575997E-11
   1.23000002        -7.72470213E-11
   1.23199999        -8.43395978E-11
   1.23399997        -9.03679631E-11
   1.23599994        -9.51723006E-11
   1.23800004        -9.86030910E-11
   1.24000001        -1.00523888E-10
   1.24199998        -1.00814121E-10
   1.24399996        -9.93719551E-11
   1.24600005        -9.61170726E-11
   1.24800003        -9.09933448E-11
   1.25000000        -8.39714548E-11
   1.25199997        -7.50513054E-11
   1.25399995        -6.42641773E-11
   1.25600004        -5.16746056E-11
   1.25800002        -3.73818858E-11
   1.25999999        -2.15211095E-11
   1.26199996        -4.26376989E-12
   1.26400006         1.41823419E-11
   1.26600003         3.35737688E-11
   1.26800001         5.36327892E-11
   1.26999998         7.40495582E-11
   1.27199996         9.44851003E-11
   1.27400005         1.14575058E-10
   1.27600002         1.33934322E-10
   1.27800000         1.52162533E-10
   1.27999997         1.68850336E-10
   1.28199995         1.83586354E-10
   1.28400004         1.95964939E-10
   1.28600001         2.05594430E-10
   1.28799999         2.12105847E-10
   1.28999996         2.15161985E-10
   1.29200006         2.14466458E-10
   1.29400003         2.09772852E-10
   1.29600000         2.00893552E-10
   1.29799998         1.87707974E-10
   1.29999995         1.70170239E-10
   1.30200005         1.48315721E-10
   1.30400002         1.22266530E-10
   1.30599999         9.22355317E-11
   1.30799997         5.85287097E-11
   1.30999994         2.15457131E-11
   1.31200004        -1.82214816E-11
   1.31400001        -6.01920874E-11
   1.31599998        -1.03702144E-10
   1.31799996        -1.48012436E-10
   1.32000005        -1.92318508E-10
   1.32200003        -2.35762854E-10
   1.32400000        -2.77449203E-10
   1.32599998        -3.16458415E-10
   1.32799995        -3.51866286E-10
   1.33000004        -3.82762211E-10
   1.33200002        -4.08269252E-10
   1.33399999        -4.27564401E-10
   1.33599997        -4.39899256E-10
   1.33800006        -4.44620174E-10
   1.34000003        -4.41187892E-10
   1.34200001        -4.29195346E-10
   1.34399998        -4.08384271E-10
   1.34599996        -3.78659271E-10
   1.34800005        -3.40099116E-10
   1.35000002        -2.92964958E-10
   1.35200000        -2.37705244E-10
   1.35399997        -1.74956480E-10
   1.35599995        -1.05540229E-10
   1.35800004        -3.04558531E-11
   1.36000001         4.91310569E-11
   1.36199999         1.31904321E-10
   1.36399996         2.16417009E-10
   1.36600006         3.01115050E-10
   1.36800003         3.84364290E-10
   1.37000000         4.64480704E-10
   1.37199998         5.39763012E-10
   1.37399995         6.08527062E-10
   1.37600005         6.69142020E-10
   1.37800002         7.20066173E-10
   1.38000000         7.59883045E-10
   1.38199997         7.87336196E-10
   1.38399994         8.01362032E-10
   1.38600004         8.01119560E-10
   1.38800001         7.86017085E-10
   1.38999999         7.55734364E-10
   1.39199996         7.10239756E-10
   1.39400005         6.49801879E-10
   1.39600003         5.74995107E-10
   1.39800000         4.86699070E-10
   1.39999998         3.86091686E-10
   1.40199995         2.74634648E-10
   1.40400004         1.54053520E-10
   1.40600002         2.63109499E-11
   1.40799999        -1.06425924E-10
   1.40999997        -2.41823506E-10
   1.41199994        -3.77424397E-10
   1.41400003        -5.10693821E-10
   1.41600001        -6.39069242E-10
   1.41799998        -7.60011665E-10
   1.41999996        -8.71058281E-10
   1.42200005        -9.69874181E-10
   1.42400002        -1.05430298E-09
   1.42600000        -1.12241516E-09
   1.42799997        -1.17255194E-09
   1.42999995        -1.20336507E-09
   1.43200004        -1.21385046E-09
   1.43400002        -1.20337562E-09
   1.43599999        -1.17169896E-09
   1.43799996        -1.11898202E-09
   1.44000006        -1.04579256E-09
   1.44200003        -9.53099932E-10
   1.44400001        -8.42260872E-10
   1.44599998        -7.14997839E-10
   1.44799995        -5.73368353E-10
   1.45000005        -4.19727503E-10
   1.45200002        -2.56683508E-10
   1.45400000        -8.70469738E-11
   1.45599997         8.62239655E-11
   1.45799994         2.60082650E-10
   1.46000004         4.31454816E-10
   1.46200001         5.97301153E-10
   1.46399999         7.54678819E-10
   1.46599996         9.00801489E-10
   1.46800005         1.03309628E-09
   1.47000003         1.14925602E-09
   1.47200000         1.24728627E-09
   1.47399998         1.32554479E-09
   1.47599995         1.38277434E-09
   1.47800004         1.41812595E-09
   1.48000002         1.43117429E-09
   1.48199999         1.42192313E-09
   1.48399997         1.39080070E-09
   1.48599994         1.33864642E-09
   1.48800004         1.26668864E-09
   1.49000001         1.17651333E-09
   1.49199998         1.07002462E-09
   1.49399996         9.49399448E-10
   1.49600005         8.17035328E-10
   1.49800003         6.75494494E-10
   1.50000000         5.27444144E-10
   1.50199997         3.75595027E-10
   1.50399995         2.22639976E-10
   1.50600004         7.11933221E-11
   1.50800002        -7.62668609E-11
   1.50999999        -2.17452445E-10
   1.51199996        -3.50313750E-10
   1.51400006        -4.73081241E-10
   1.51600003        -5.84300053E-10
   1.51800001        -6.82855938E-10
   1.51999998        -7.67992281E-10
   1.52199996        -8.39317449E-10
   1.52400005        -8.96803076E-10
   1.52600002        -9.40772460E-10
   1.52800000        -9.71879466E-10
   1.52999997        -9.91079441E-10
   1.53199995        -9.99591854E-10
   1.53400004        -9.98855554E-10
   1.53600001        -9.90478477E-10
   1.53799999        -9.76183134E-10
   1.53999996        -9.57748103E-10
   1.54200006        -9.36948297E-10
   1.54400003        -9.15494902E-10
   1.54600000        -8.94976482E-10
   1.54799998        -8.76803463E-10
   1.54999995        -8.62156624E-10
   1.55200005        -8.51941573E-10
   1.55400002        -8.46749781E-10
   1.55599999        -8.46828552E-10
   1.55799997        -8.52059312E-10
   1.55999994        -8.61946015E-10
   1.56200004        -8.75614026E-10
   1.56400001        -8.91819174E-10
   1.56599998        -9.08967623E-10
   1.56799996        -9.25145849E-10
   1.57000005        -9.38160882E-10
   1.57200003        -9.45589385E-10
   1.57400000        -9.44834877E-10
   1.57599998        -9.33192745E-10
   1.57799995        -9.07920183E-10
   1.58000004        -8.66310912E-10
   1.58200002        -8.05773337E-10
   1.58399999        -7.23908156E-10
   1.58599997        -6.18587126E-10
   1.58800006        -4.88028562E-10
   1.59000003        -3.30869027E-10
   1.59200001        -1.46228862E-10
   1.59399998         6.62288835E-11
   1.59599996         3.06248804E-10
   1.59800005         5.72943637E-10