  -6.00000000       0.00000000    
  -5.99499989       0.00000000    
  -5.98999977       3.28331141E-28
  -5.98500013       2.52344721E-27
  -5.98000002       1.03377703E-26
  -5.97499990       2.91726063E-26
  -5.96999979       5.98185459E-26
  -5.96500015       7.94033984E-26
  -5.96000004      -6.18435846E-28
  -5.95499992      -4.12239530E-25
  -5.94999981      -1.65887607E-24
  -5.94500017      -4.70804139E-24
  -5.94000006      -1.12611559E-23
  -5.93499994      -2.41084223E-23
  -5.92999983      -4.75692403E-23
  -5.92500019      -8.80086042E-23
  -5.92000008      -1.54406976E-22
  -5.91499996      -2.58946331E-22
  -5.90999985      -4.17558516E-22
  -5.90500021      -6.50364900E-22
  -5.90000010      -9.81920942E-22
  -5.89499998      -1.44116724E-21
  -5.88999987      -2.06097139E-21
  -5.88500023      -2.87715773E-21
  -5.88000011      -3.92690263E-21
  -5.87500000      -5.24640636E-21
  -5.86999989      -6.86776559E-21
  -5.86499977      -8.81499075E-21
  -5.86000013      -1.10991935E-20
  -5.85500002      -1.37129663E-20
  -5.84999990      -1.66241137E-20
  -5.84499979      -1.97688589E-20
  -5.84000015      -2.30448577E-20
  -5.83500004      -2.63042999E-20
  -5.82999992      -2.93475119E-20
  -5.82499981      -3.19175491E-20
  -5.82000017      -3.36962265E-20
  -5.81500006      -3.43022042E-20
  -5.80999994      -3.32915930E-20
  -5.80499983      -3.01616095E-20
  -5.80000019      -2.43577888E-20
  -5.79500008      -1.52849374E-20
  -5.78999996      -2.32235420E-21
  -5.78499985       1.51570637E-20
  -5.78000021       3.77634478E-20
  -5.77500010       6.60631609E-20
  -5.76999998       1.00548851E-19
  -5.76499987       1.41607388E-19
  -5.76000023       1.89486696E-19
  -5.75500011       2.44262816E-19
  -5.75000000       3.05808983E-19
  -5.74499989       3.73767815E-19
  -5.73999977       4.47529062E-19
  -5.73500013       5.26214462E-19
  -5.73000002       6.08671238E-19
  -5.72499990       6.93476224E-19
  -5.71999979       7.78951692E-19
  -5.71500015       8.63193730E-19
  -5.71000004       9.44115000E-19
  -5.70499992       1.01949917E-18
  -5.69999981       1.08706990E-18
  -5.69500017       1.14456950E-18
  -5.69000006       1.18984916E-18
  -5.68499994       1.22096449E-18
  -5.67999983       1.23627592E-18
  -5.67500019       1.23454742E-18
  -5.67000008       1.21504312E-18
  -5.66499996       1.17761185E-18
  -5.65999985       1.12276006E-18
  -5.65500021       1.05170400E-18
  -5.65000010       9.66399246E-19
  -5.64499998       8.69542703E-19
  -5.63999987       7.64543136E-19
  -5.63500023       6.55457452E-19
  -5.63000011       5.46894133E-19
  -5.62500000       4.43880988E-19
  -5.61999989       3.51698249E-19
  -5.61499977       2.75685365E-19
  -5.61000013       2.21019273E-19
  -5.60500002       1.92476902E-19
  -5.59999990       1.94187163E-19
  -5.59499979       2.29378425E-19
  -5.59000015       3.00141400E-19
  -5.58500004       4.07207884E-19
  -5.57999992       5.49766517E-19
  -5.57499981       7.25318335E-19
  -5.57000017       9.29588468E-19
  -5.56500006       1.15650758E-18
  -5.55999994       1.39826125E-18
  -5.55499983       1.64542075E-18
  -5.55000019       1.88715694E-18
  -5.54500008       2.11154085E-18
  -5.53999996       2.30592374E-18
  -5.53499985       2.45739354E-18
  -5.53000021       2.55329438E-18
  -5.52500010       2.58180440E-18
  -5.51999998       2.53254683E-18
  -5.51499987       2.39721553E-18
  -5.51000023       2.17019953E-18
  -5.50500011       1.84917591E-18
  -5.50000000       1.43565219E-18
  -5.49499989       9.35417713E-19
  -5.48999977       3.58903044E-19
  -5.48500013      -2.78589260E-19
  -5.48000002      -9.56816979E-19
  -5.47499990      -1.65067665E-18
  -5.46999979      -2.33046536E-18
  -5.46500015      -2.96234574E-18
  -5.46000004      -3.50896633E-18
  -5.45499992      -3.93028209E-18
  -5.44999981      -4.18454335E-18
  -5.44500017      -4.22942079E-18
  -5.44000006      -4.02327250E-18
  -5.43499994      -3.52648560E-18
  -5.42999983      -2.70287862E-18
  -5.42500019      -1.52111804E-18
  -5.42000008       4.39023784E-20
  -5.41499996       2.00975214E-18
  -5.40999985       4.38530836E-18
  -5.40500021       7.16974761E-18
  -5.40000010       1.03517658E-17
  -5.39499998       1.39090734E-17
  -5.38999987       1.78081696E-17
  -5.38500023       2.20044006E-17
  -5.38000011       2.64424247E-17
  -5.37500000       3.10569626E-17
  -5.36999989       3.57738807E-17
  -5.36499977       4.05116271E-17
  -5.36000013       4.51829576E-17
  -5.35500002       4.96968623E-17
  -5.34999990       5.39608030E-17
  -5.34499979       5.78829560E-17
  -5.34000015       6.13747170E-17
  -5.33500004       6.43530635E-17
  -5.32999992       6.67429008E-17
  -5.32499981       6.84793712E-17
  -5.32000017       6.95097736E-17
  -5.31500006       6.97953891E-17
  -5.30999994       6.93128120E-17
  -5.30499983       6.80549416E-17
  -5.30000019       6.60315254E-17
  -5.29500008       6.32692120E-17
  -5.28999996       5.98111471E-17
  -5.28499985       5.57159479E-17
  -5.28000021       5.10563370E-17
  -5.27500010       4.59172392E-17
  -5.26999998       4.03934329E-17
  -5.26499987       3.45869261E-17
  -5.26000023       2.86040512E-17
  -5.25500011       2.25522737E-17
  -5.25000000       1.65370395E-17
  -5.24499989       1.06584960E-17
  -5.23999977       5.00843096E-18
  -5.23500013      -3.32614494E-19
  -5.23000002      -5.29796154E-18
  -5.22499990      -9.83693441E-18
  -5.21999979      -1.39165296E-17
  -5.21500015      -1.75225160E-17
  -5.21000004      -2.06599608E-17
  -5.20499992      -2.33530524E-17
  -5.19999981      -2.56442831E-17
  -5.19500017      -2.75930710E-17
  -5.19000006      -2.92734752E-17
  -5.18499994      -3.07716978E-17
  -5.17999983      -3.21827753E-17
  -5.17500019      -3.36070711E-17
  -5.17000008      -3.51463020E-17
  -5.16499996      -3.68994551E-17
  -5.15999985      -3.89586484E-17
  -5.15500021      -4.14050417E-17
  -5.15000010      -4.43049153E-17
  -5.14499998      -4.77061959E-17
  -5.13999987      -5.16353998E-17
  -5.13500023      -5.60951672E-17
  -5.13000011      -6.10624728E-17
  -5.12500000      -6.64877255E-17
  -5.11999989      -7.22945069E-17
  -5.11499977      -7.83802997E-17
  -5.11000013      -8.46181745E-17
  -5.10500002      -9.08590736E-17
  -5.09999990      -9.69352115E-17
  -5.09499979      -1.02663960E-16
  -5.09000015      -1.07852520E-16
  -5.08500004      -1.12303056E-16
  -5.07999992      -1.15818216E-16
  -5.07499981      -1.18206717E-16
  -5.07000017      -1.19289278E-16
  -5.06500006      -1.18904103E-16
  -5.05999994      -1.16912345E-16
  -5.05499983      -1.13202764E-16
  -5.05000019      -1.07696136E-16
  -5.04500008      -1.00348595E-16
  -5.03999996      -9.11541785E-17
  -5.03499985      -8.01463236E-17
  -5.03000021      -6.73985109E-17
  -5.02500010      -5.30234883E-17
  -5.01999998      -3.71716505E-17
  -5.01499987      -2.00281999E-17
  -5.01000023      -1.80930766E-18
  -5.00500011       1.72425203E-17
  -5.00000000       3.68640551E-17
  -4.99499989       5.67775317E-17
  -4.98999977       7.66971128E-17
  -4.98500013       9.63359291E-17
  -4.98000002       1.15412977E-16
  -4.97499990       1.33660052E-16
  -4.96999979       1.50828179E-16
  -4.96500015       1.66693569E-16
  -4.96000004       1.81063033E-16
  -4.95499992       1.93777858E-16
  -4.94999981       2.04717818E-16
  -4.94500017       2.13802789E-16
  -4.94000006       2.20994205E-16
  -4.93499994       2.26294460E-16
  -4.92999983       2.29745564E-16
  -4.92500019       2.31426580E-16
  -4.92000008       2.31449609E-16
  -4.91499996       2.29955284E-16
  -4.90999985       2.27106924E-16
  -4.90500021       2.23084444E-16
  -4.90000010       2.18077341E-16
  -4.89499998       2.12277931E-16
  -4.88999987       2.05874190E-16
  -4.88500023       1.99043094E-16
  -4.88000011       1.91943992E-16
  -4.87500000       1.84713348E-16
  -4.86999989       1.77459345E-16
  -4.86499977       1.70258453E-16
  -4.86000013       1.63152495E-16
  -4.85500002       1.56147612E-16
  -4.84999990       1.49213536E-16
  -4.84499979       1.42285402E-16
  -4.84000015       1.35266119E-16
  -4.83500004       1.28030089E-16
  -4.82999992       1.20428100E-16
  -4.82499981       1.12293408E-16
  -4.82000017       1.03448326E-16
  -4.81500006       9.37114636E-17
  -4.80999994       8.29054276E-17
  -4.80499983       7.08646160E-17
  -4.80000019       5.74427106E-17
  -4.79500008       4.25200415E-17
  -4.78999996       2.60098506E-17
  -4.78499985       7.86456526E-18
  -4.78000021      -1.19202765E-17
  -4.77500010      -3.33021856E-17
  -4.76999998      -5.61894658E-17
  -4.76499987      -8.04409389E-17
  -4.76000023      -1.05866817E-16
  -4.75500011      -1.32230552E-16
  -4.75000000      -1.59253020E-16
  -4.74499989      -1.86616909E-16
  -4.73999977      -2.13973281E-16
  -4.73500013      -2.40949322E-16
  -4.73000002      -2.67154615E-16
  -4.72499990      -2.92191347E-16
  -4.71999979      -3.15661413E-16
  -4.71500015      -3.37176791E-16
  -4.71000004      -3.56366296E-16
  -4.70499992      -3.72885423E-16
  -4.69999981      -3.86421513E-16
  -4.69500017      -3.96702296E-16
  -4.69000006      -4.03498915E-16
  -4.68499994      -4.06631084E-16
  -4.67999983      -4.05969551E-16
  -4.67500019      -4.01436707E-16
  -4.67000008      -3.93006188E-16
  -4.66499996      -3.80701579E-16
  -4.65999985      -3.64593685E-16
  -4.65500021      -3.44794767E-16
  -4.65000010      -3.21453927E-16
  -4.64499998      -2.94751160E-16
  -4.63999987      -2.64891052E-16
  -4.63500023      -2.32094439E-16
  -4.63000011      -1.96591437E-16
  -4.62500000      -1.58614754E-16
  -4.61999989      -1.18391489E-16
  -4.61499977      -7.61384218E-17
  -4.61000013      -3.20553729E-17
  -4.60500002       1.36800892E-17
  -4.59999990       6.09133090E-17
  -4.59499979       1.09519216E-16
  -4.59000015       1.59400894E-16
  -4.58500004       2.10489329E-16
  -4.57999992       2.62743532E-16
  -4.57499981       3.16147689E-16
  -4.57000017       3.70707993E-16
  -4.56500006       4.26446678E-16
  -4.55999994       4.83400644E-16
  -4.55499983       5.41612031E-16
  -4.55000019       6.01124407E-16
  -4.54500008       6.61976683E-16
  -4.53999996       7.24198082E-16
  -4.53499985       7.87798663E-16
  -4.53000021       8.52770219E-16
  -4.52500010       9.19077652E-16
  -4.51999998       9.86655423E-16
  -4.51499987       1.05540549E-15
  -4.51000023       1.12519730E-15
  -4.50500011       1.19586377E-15
  -4.50000000       1.26720269E-15
  -4.49499989       1.33897952E-15
  -4.48999977       1.41092650E-15
  -4.48500013       1.48274706E-15
  -4.48000002       1.55412260E-15
  -4.47499990       1.62471041E-15
  -4.46999979       1.69415102E-15
  -4.46500015       1.76207481E-15
  -4.46000004       1.82810674E-15
  -4.45499992       1.89186651E-15
  -4.44999981       1.95298206E-15
  -4.44500017       2.01108195E-15
  -4.44000006       2.06581468E-15
  -4.43499994       2.11683507E-15
  -4.42999983       2.16382253E-15
  -4.42500019       2.20647001E-15
  -4.42000008       2.24449289E-15
  -4.41499996       2.27763136E-15
  -4.40999985       2.30564422E-15
  -4.40500021       2.32831125E-15
  -4.40000010       2.34543423E-15
  -4.39499998       2.35682809E-15
  -4.38999987       2.36232788E-15
  -4.38500023       2.36178493E-15
  -4.38000011       2.35506140E-15
  -4.37500000       2.34202471E-15
  -4.36999989       2.32255418E-15
  -4.36499977       2.29653354E-15
  -4.36000013       2.26384675E-15
  -4.35500002       2.22438200E-15
  -4.34999990       2.17802812E-15
  -4.34499979       2.12467076E-15
  -4.34000015       2.06419240E-15
  -4.33500004       1.99647466E-15
  -4.32999992       1.92139599E-15
  -4.32499981       1.83883441E-15
  -4.32000017       1.74865664E-15
  -4.31500006       1.65073455E-15
  -4.30999994       1.54493706E-15
  -4.30499983       1.43112961E-15
  -4.30000019       1.30917772E-15
  -4.29500008       1.17894577E-15
  -4.28999996       1.04029728E-15
  -4.28499985       8.93103281E-16
  -4.28000021       7.37224284E-16
  -4.27500010       5.72529210E-16
  -4.26999998       3.98892458E-16
  -4.26499987       2.16183931E-16
  -4.26000023       2.42778072E-17
  -4.25500011      -1.76945315E-16
  -4.25000000      -3.87609873E-16
  -4.24499989      -6.07830049E-16
  -4.23999977      -8.37705315E-16
  -4.23500013      -1.07733570E-15
  -4.23000002      -1.32681962E-15
  -4.22499990      -1.58623924E-15
  -4.21999979      -1.85565013E-15
  -4.21500015      -2.13511426E-15
  -4.21000004      -2.42465934E-15
  -4.20499992      -2.72430444E-15
  -4.19999981      -3.03402797E-15
  -4.19500017      -3.35380430E-15
  -4.19000006      -3.68355062E-15
  -4.18499994      -4.02318204E-15
  -4.17999983      -4.37255772E-15
  -4.17500019      -4.73150614E-15
  -4.17000008      -5.09982190E-15
  -4.16499996      -5.47726486E-15
  -4.15999985      -5.86354661E-15
  -4.15500021      -6.25835968E-15
  -4.15000010      -6.66135509E-15
  -4.14499998      -7.07215421E-15
  -4.13999987      -7.49035132E-15
  -4.13500023      -7.91553644E-15
  -4.13000011      -8.34724881E-15
  -4.12500000      -8.78505981E-15
  -4.11999989      -9.22851120E-15
  -4.11499977      -9.67715491E-15
  -4.11000013      -1.01305886E-14
  -4.10500002      -1.05883735E-14
  -4.09999990      -1.10501487E-14
  -4.09499979      -1.15155739E-14
  -4.09000015      -1.19843371E-14
  -4.08500004      -1.24562065E-14
  -4.07999992      -1.29309727E-14
  -4.07499981      -1.34084884E-14
  -4.07000017      -1.38886807E-14
  -4.06500006      -1.43715386E-14
  -4.05999994      -1.48570968E-14
  -4.05499983      -1.53454486E-14
  -4.05000019      -1.58367565E-14
  -4.04500008      -1.63312442E-14
  -4.03999996      -1.68291454E-14
  -4.03499985      -1.73307532E-14
  -4.03000021      -1.78364132E-14
  -4.02500010      -1.83464897E-14
  -4.01999998      -1.88613519E-14
  -4.01499987      -1.93814013E-14
  -4.01000023      -1.99070446E-14
  -4.00500011      -2.04386983E-14
  -4.00000000      -2.09767523E-14
  -3.99499989      -2.15216198E-14
  -3.99000001      -2.20736735E-14
  -3.98499990      -2.26333455E-14
  -3.98000002      -2.32009829E-14
  -3.97499990      -2.37769704E-14
  -3.97000003      -2.43617026E-14
  -3.96499991      -2.49555286E-14
  -3.96000004      -2.55589075E-14
  -3.95499992      -2.61722322E-14
  -3.95000005      -2.67960126E-14
  -3.94499993      -2.74307436E-14
  -3.94000006      -2.80770297E-14
  -3.93499994      -2.87354979E-14
  -3.93000007      -2.94069172E-14
  -3.92499995      -3.00921126E-14
  -3.92000008      -3.07920227E-14
  -3.91499996      -3.15077384E-14
  -3.91000009      -3.22404558E-14
  -3.90499997      -3.29914962E-14
  -3.90000010      -3.37622827E-14
  -3.89499998      -3.45544855E-14
  -3.89000010      -3.53698224E-14
  -3.88499999      -3.62101435E-14
  -3.88000011      -3.70774781E-14
  -3.87500000      -3.79740049E-14
  -3.86999989      -3.89019498E-14
  -3.86500001      -3.98636677E-14
  -3.85999990      -4.08616520E-14
  -3.85500002      -4.18984136E-14
  -3.84999990      -4.29765510E-14
  -3.84500003      -4.40987917E-14
  -3.83999991      -4.52678259E-14
  -3.83500004      -4.64864353E-14
  -3.82999992      -4.77573608E-14
  -3.82500005      -4.90833977E-14
  -3.81999993      -5.04673750E-14
  -3.81500006      -5.19120371E-14
  -3.80999994      -5.34202030E-14
  -3.80500007      -5.49946644E-14
  -3.79999995      -5.66381591E-14
  -3.79500008      -5.83535160E-14
  -3.78999996      -6.01435202E-14
  -3.78500009      -6.20109907E-14
  -3.77999997      -6.39586921E-14
  -3.77500010      -6.59896129E-14
  -3.76999998      -6.81066192E-14
  -3.76500010      -7.03126725E-14
  -3.75999999      -7.26108762E-14
  -3.75500011      -7.50044219E-14
  -3.75000000      -7.74964945E-14
  -3.74499989      -8.00905701E-14
  -3.74000001      -8.27901116E-14
  -3.73499990      -8.55987847E-14
  -3.73000002      -8.85203776E-14
  -3.72499990      -9.15588880E-14
  -3.72000003      -9.47183277E-14
  -3.71499991      -9.80029453E-14
  -3.71000004      -1.01417233E-13
  -3.70499992      -1.04965604E-13
  -3.70000005      -1.08652772E-13
  -3.69499993      -1.12483482E-13
  -3.69000006      -1.16462666E-13
  -3.68499994      -1.20595157E-13
  -3.68000007      -1.24886172E-13
  -3.67499995      -1.29340833E-13
  -3.67000008      -1.33964197E-13
  -3.66499996      -1.38761601E-13
  -3.66000009      -1.43738252E-13
  -3.65499997      -1.48899420E-13
  -3.65000010      -1.54250283E-13
  -3.64499998      -1.59796235E-13
  -3.64000010      -1.65542479E-13
  -3.63499999      -1.71494316E-13
  -3.63000011      -1.77656975E-13
  -3.62500000      -1.84035878E-13
  -3.61999989      -1.90636054E-13
  -3.61500001      -1.97462923E-13
  -3.60999990      -2.04521729E-13
  -3.60500002      -2.11817746E-13
  -3.59999990      -2.19356692E-13
  -3.59500003      -2.27143635E-13
  -3.58999991      -2.35184485E-13
  -3.58500004      -2.43484703E-13
  -3.57999992      -2.52050090E-13
  -3.57500005      -2.60886581E-13
  -3.56999993      -2.70000060E-13
  -3.56500006      -2.79396867E-13
  -3.55999994      -2.89083319E-13
  -3.55500007      -2.99065948E-13
  -3.54999995      -3.09351150E-13
  -3.54500008      -3.19945947E-13
  -3.53999996      -3.30857276E-13
  -3.53500009      -3.42092457E-13
  -3.52999997      -3.53658726E-13
  -3.52500010      -3.65563455E-13
  -3.51999998      -3.77814398E-13
  -3.51500010      -3.90419468E-13
  -3.50999999      -4.03386255E-13
  -3.50500011      -4.16723053E-13
  -3.50000000      -4.30437858E-13
  -3.49499989      -4.44538991E-13
  -3.49000001      -4.59034720E-13
  -3.48499990      -4.73933447E-13
  -3.48000002      -4.89243628E-13
  -3.47499990      -5.04973830E-13
  -3.47000003      -5.21132670E-13
  -3.46499991      -5.37728987E-13
  -3.46000004      -5.54771398E-13
  -3.45499992      -5.72269012E-13
  -3.45000005      -5.90230447E-13
  -3.44499993      -6.08665353E-13
  -3.44000006      -6.27582296E-13
  -3.43499994      -6.46991033E-13
  -3.43000007      -6.66900563E-13
  -3.42499995      -6.87321239E-13
  -3.42000008      -7.08262496E-13
  -3.41499996      -7.29734144E-13
  -3.41000009      -7.51746809E-13
  -3.40499997      -7.74310737E-13
  -3.40000010      -7.97436878E-13
  -3.39499998      -8.21135965E-13
  -3.39000010      -8.45419383E-13
  -3.38499999      -8.70299113E-13
  -3.38000011      -8.95786646E-13
  -3.37500000      -9.21893855E-13
  -3.36999989      -9.48634075E-13
  -3.36500001      -9.76019396E-13
  -3.35999990      -1.00406380E-12
  -3.35500002      -1.03278042E-12
  -3.34999990      -1.06218354E-12
  -3.34500003      -1.09228696E-12
  -3.33999991      -1.12310562E-12
  -3.33500004      -1.15465395E-12
  -3.32999992      -1.18694833E-12
  -3.32500005      -1.22000348E-12
  -3.31999993      -1.25383579E-12
  -3.31500006      -1.28846098E-12
  -3.30999994      -1.32389694E-12
  -3.30500007      -1.36015960E-12
  -3.29999995      -1.39726718E-12
  -3.29500008      -1.43523648E-12
  -3.28999996      -1.47408594E-12
  -3.28500009      -1.51383387E-12
  -3.27999997      -1.55449915E-12
  -3.27500010      -1.59610053E-12
  -3.26999998      -1.63865796E-12
  -3.26500010      -1.68219117E-12
  -3.25999999      -1.72672022E-12
  -3.25500011      -1.77226582E-12
  -3.25000000      -1.81884976E-12
  -3.24499989      -1.86649285E-12
  -3.24000001      -1.91521625E-12
  -3.23499990      -1.96504336E-12
  -3.23000002      -2.01599718E-12
  -3.22499990      -2.06810090E-12
  -3.22000003      -2.12137773E-12
  -3.21499991      -2.17585238E-12
  -3.21000004      -2.23155023E-12
  -3.20499992      -2.28849622E-12
  -3.20000005      -2.34671635E-12
  -3.19499993      -2.40623667E-12
  -3.19000006      -2.46708556E-12
  -3.18499994      -2.52928928E-12
  -3.18000007      -2.59287687E-12
  -3.17499995      -2.65787652E-12
  -3.17000008      -2.72431903E-12
  -3.16499996      -2.79223086E-12
  -3.16000009      -2.86164473E-12
  -3.15499997      -2.93259189E-12
  -3.15000010      -3.00510159E-12
  -3.14499998      -3.07920811E-12
  -3.14000010      -3.15494267E-12
  -3.13499999      -3.23233866E-12
  -3.13000011      -3.31143034E-12
  -3.12500000      -3.39225111E-12
  -3.11999989      -3.47483630E-12
  -3.11500001      -3.55922106E-12
  -3.10999990      -3.64543942E-12
  -3.10500002      -3.73352911E-12
  -3.09999990      -3.82352656E-12
  -3.09500003      -3.91546908E-12
  -3.08999991      -4.00939264E-12
  -3.08500004      -4.10533716E-12
  -3.07999992      -4.20334123E-12
  -3.07500005      -4.30344432E-12
  -3.06999993      -4.40568458E-12
  -3.06500006      -4.51010540E-12
  -3.05999994      -4.61674535E-12
  -3.05500007      -4.72564522E-12
  -3.04999995      -4.83684924E-12
  -3.04500008      -4.95039903E-12
  -3.03999996      -5.06633754E-12
  -3.03500009      -5.18470770E-12
  -3.02999997      -5.30555417E-12
  -3.02500010      -5.42892294E-12
  -3.01999998      -5.55485952E-12
  -3.01500010      -5.68340557E-12
  -3.00999999      -5.81461398E-12
  -3.00500011      -5.94852683E-12
  -3.00000000      -6.08519745E-12
  -2.99499989      -6.22466705E-12
  -2.99000001      -6.36698593E-12
  -2.98499990      -6.51220961E-12
  -2.98000002      -6.66038405E-12
  -2.97499990      -6.81155956E-12
  -2.97000003      -6.96578819E-12
  -2.96499991      -7.12311937E-12
  -2.96000004      -7.28360514E-12
  -2.95499992      -7.44730059E-12
  -2.95000005      -7.61425558E-12
  -2.94499993      -7.78452823E-12
  -2.94000006      -7.95816711E-12
  -2.93499994      -8.13523034E-12
  -2.93000007      -8.31576735E-12
  -2.92499995      -8.49984059E-12
  -2.92000008      -8.68750037E-12
  -2.91499996      -8.87880828E-12
  -2.91000009      -9.07381028E-12
  -2.90499997      -9.27257229E-12
  -2.90000010      -9.47514896E-12
  -2.89499998      -9.68159320E-12
  -2.89000010      -9.89196745E-12
  -2.88499999      -1.01063324E-11
  -2.88000011      -1.03247419E-11
  -2.87500000      -1.05472523E-11
  -2.86999989      -1.07739304E-11
  -2.86500001      -1.10048255E-11
  -2.85999990      -1.12400115E-11
  -2.85500002      -1.14795421E-11
  -2.84999990      -1.17234738E-11
  -2.84500003      -1.19718705E-11
  -2.83999991      -1.22247976E-11
  -2.83500004      -1.24823095E-11
  -2.82999992      -1.27444730E-11
  -2.82500005      -1.30113515E-11
  -2.81999993      -1.32830032E-11
  -2.81500006      -1.35594929E-11
  -2.80999994      -1.38408868E-11
  -2.80500007      -1.41272462E-11
  -2.79999995      -1.44186225E-11
  -2.79500008      -1.47151007E-11
  -2.78999996      -1.50167344E-11
  -2.78500009      -1.53235827E-11
  -2.77999997      -1.56357149E-11
  -2.77500010      -1.59531902E-11
  -2.76999998      -1.62760742E-11
  -2.76500010      -1.66044331E-11
  -2.75999999      -1.69383257E-11
  -2.75500011      -1.72778250E-11
  -2.75000000      -1.76229812E-11
  -2.74499989      -1.79738637E-11
  -2.74000001      -1.83305489E-11
  -2.73499990      -1.86930714E-11
  -2.73000002      -1.90615267E-11
  -2.72499990      -1.94359494E-11
  -2.72000003      -1.98164211E-11
  -2.71499991      -2.02029886E-11
  -2.71000004      -2.05957265E-11
  -2.70499992      -2.09946921E-11
  -2.70000005      -2.13999391E-11
  -2.69499993      -2.18115352E-11
  -2.69000006      -2.22295446E-11
  -2.68499994      -2.26540193E-11
  -2.68000007      -2.30850287E-11
  -2.67499995      -2.35226179E-11
  -2.67000008      -2.39668528E-11
  -2.66499996      -2.44177942E-11
  -2.66000009      -2.48754975E-11
  -2.65499997      -2.53400200E-11
  -2.65000010      -2.58114155E-11
  -2.64499998      -2.62897534E-11
  -2.64000010      -2.67750648E-11
  -2.63499999      -2.72674279E-11
  -2.63000011      -2.77668739E-11
  -2.62500000      -2.82734773E-11
  -2.61999989      -2.87872642E-11
  -2.61500001      -2.93083023E-11
  -2.60999990      -2.98366505E-11
  -2.60500002      -3.03723401E-11
  -2.59999990      -3.09154265E-11
  -2.59500003      -3.14659583E-11
  -2.58999991      -3.20239668E-11
  -2.58500004      -3.25895179E-11
  -2.57999992      -3.31626358E-11
  -2.57500005      -3.37433519E-11
  -2.56999993      -3.43317180E-11
  -2.56500006      -3.49277898E-11
  -2.55999994      -3.55315950E-11
  -2.55500007      -3.61431718E-11
  -2.54999995      -3.67625305E-11
  -2.54500008      -3.73897371E-11
  -2.53999996      -3.80248021E-11
  -2.53500009      -3.86677391E-11
  -2.52999997      -3.93186143E-11
  -2.52500010      -3.99774103E-11
  -2.51999998      -4.06442172E-11
  -2.51500010      -4.13189830E-11
  -2.50999999      -4.20017840E-11
  -2.50500011      -4.26926133E-11
  -2.50000000      -4.33914814E-11
  -2.49499989      -4.40984124E-11
  -2.49000001      -4.48134099E-11
  -2.48499990      -4.55364912E-11
  -2.48000002      -4.62676425E-11
  -2.47499990      -4.70069123E-11
  -2.47000003      -4.77542346E-11
  -2.46499991      -4.85096546E-11
  -2.46000004      -4.92731342E-11
  -2.45499992      -5.00447010E-11
  -2.45000005      -5.08243309E-11
  -2.44499993      -5.16119994E-11
  -2.44000006      -5.24077136E-11
  -2.43499994      -5.32114248E-11
  -2.43000007      -5.40231505E-11
  -2.42499995      -5.48428490E-11
  -2.42000008      -5.56704925E-11
  -2.41499996      -5.65059978E-11
  -2.41000009      -5.73494099E-11
  -2.40499997      -5.82006422E-11
  -2.40000010      -5.90596738E-11
  -2.39499998      -5.99264249E-11
  -2.39000010      -6.08008990E-11
  -2.38499999      -6.16830059E-11
  -2.38000011      -6.25726970E-11
  -2.37500000      -6.34699307E-11
  -2.36999989      -6.43746306E-11
  -2.36500001      -6.52867066E-11
  -2.35999990      -6.62061239E-11
  -2.35500002      -6.71327785E-11
  -2.34999990      -6.80665871E-11
  -2.34500003      -6.90075289E-11
  -2.33999991      -6.99554373E-11
  -2.33500004      -7.09102221E-11
  -2.32999992      -7.18718418E-11
  -2.32500005      -7.28401159E-11
  -2.31999993      -7.38150444E-11
  -2.31500006      -7.47963705E-11
  -2.30999994      -7.57840873E-11
  -2.30500007      -7.67780561E-11
  -2.29999995      -7.77780340E-11
  -2.29500008      -7.87840765E-11
  -2.28999996      -7.97958366E-11
  -2.28500009      -8.08133283E-11
  -2.27999997      -8.18363294E-11
  -2.27500010      -8.28646388E-11
  -2.26999998      -8.38982286E-11
  -2.26500010      -8.49368839E-11
  -2.25999999      -8.59803340E-11
  -2.25500011      -8.70284608E-11
  -2.25000000      -8.80810841E-11
  -2.24499989      -8.91380095E-11
  -2.24000001      -9.01990219E-11
  -2.23499990      -9.12639062E-11
  -2.23000002      -9.23325166E-11
  -2.22499990      -9.34045133E-11
  -2.22000003      -9.44797782E-11
  -2.21499991      -9.55580545E-11
  -2.21000004      -9.66391897E-11
  -2.20499992      -9.77228368E-11
  -2.20000005      -9.88087459E-11
  -2.19499993      -9.98967992E-11
  -2.19000006      -1.00986518E-10
  -2.18499994      -1.02077777E-10
  -2.18000007      -1.03170292E-10
  -2.17499995      -1.04263695E-10
  -2.17000008      -1.05357743E-10
  -2.16499996      -1.06452146E-10
  -2.16000009      -1.07546839E-10
  -2.15499997      -1.08641193E-10
  -2.15000010      -1.09735124E-10
  -2.14499998      -1.10828090E-10
  -2.14000010      -1.11919987E-10
  -2.13499999      -1.13010150E-10
  -2.13000011      -1.14098599E-10
  -2.12500000      -1.15184792E-10
  -2.11999989      -1.16268384E-10
  -2.11500001      -1.17349075E-10
  -2.10999990      -1.18426366E-10
  -2.10500002      -1.19499910E-10
  -2.09999990      -1.20569429E-10
  -2.09500003      -1.21634564E-10
  -2.08999991      -1.22694591E-10
  -2.08500004      -1.23749511E-10
  -2.07999992      -1.24798449E-10
  -2.07500005      -1.25841212E-10
  -2.06999993      -1.26877481E-10
  -2.06500006      -1.27906588E-10
  -2.05999994      -1.28928340E-10
  -2.05500007      -1.29942043E-10
  -2.04999995      -1.30947364E-10
  -2.04500008      -1.31943692E-10
  -2.03999996      -1.32930750E-10
  -2.03500009      -1.33907815E-10
  -2.02999997      -1.34874570E-10
  -2.02500010      -1.35830514E-10
  -2.01999998      -1.36775133E-10
  -2.01500010      -1.37707790E-10
  -2.00999999      -1.38628040E-10
  -2.00500011      -1.39535244E-10
  -2.00000000      -1.40429099E-10
  -1.99500000      -1.41308812E-10
  -1.99000001      -1.42174064E-10
  -1.98500001      -1.43023926E-10
  -1.98000002      -1.43858259E-10
  -1.97500002      -1.44676326E-10
  -1.97000003      -1.45477574E-10
  -1.96500003      -1.46261253E-10
  -1.96000004      -1.47026849E-10
  -1.95500004      -1.47773849E-10
  -1.95000005      -1.48501697E-10
  -1.94500005      -1.49209478E-10
  -1.94000006      -1.49897095E-10
  -1.93499994      -1.50563492E-10
  -1.92999995      -1.51208171E-10
  -1.92499995      -1.51830382E-10
  -1.91999996      -1.52429749E-10
  -1.91499996      -1.53005539E-10
  -1.90999997      -1.53556917E-10
  -1.90499997      -1.54083718E-10
  -1.89999998      -1.54584928E-10
  -1.89499998      -1.55059993E-10
  -1.88999999      -1.55508259E-10
  -1.88499999      -1.55928909E-10
  -1.88000000      -1.56321608E-10
  -1.87500000      -1.56685498E-10
  -1.87000000      -1.57019633E-10
  -1.86500001      -1.57323821E-10
  -1.86000001      -1.57597310E-10
  -1.85500002      -1.57839408E-10
  -1.85000002      -1.58049004E-10
  -1.84500003      -1.58226057E-10
  -1.84000003      -1.58369623E-10
  -1.83500004      -1.58479119E-10
  -1.83000004      -1.58554087E-10
  -1.82500005      -1.58593694E-10
  -1.82000005      -1.58597024E-10
  -1.81500006      -1.58563218E-10
  -1.80999994      -1.58492261E-10
  -1.80499995      -1.58382960E-10
  -1.79999995      -1.58235119E-10
  -1.79499996      -1.58047769E-10
  -1.78999996      -1.57820645E-10
  -1.78499997      -1.57553109E-10
  -1.77999997      -1.57243510E-10
  -1.77499998      -1.56892416E-10
  -1.76999998      -1.56499064E-10
  -1.76499999      -1.56062330E-10
  -1.75999999      -1.55581659E-10
  -1.75500000      -1.55056856E-10
  -1.75000000      -1.54487118E-10
  -1.74500000      -1.53872151E-10
  -1.74000001      -1.53210444E-10
  -1.73500001      -1.52502649E-10
  -1.73000002      -1.51747490E-10
  -1.72500002      -1.50944854E-10
  -1.72000003      -1.50094201E-10