  -6.00000000        -2.63119101E-30
  -5.99499989        -5.95721308E-29
  -5.98999977        -1.73317048E-28
  -5.98500013        -3.43593221E-28
  -5.98000002        -5.69994808E-28
  -5.97499990        -8.51985955E-28
  -5.96999979        -1.18890612E-27
  -5.96500015        -1.57997496E-27
  -5.96000004        -2.02429913E-27
  -5.95499992        -2.52087917E-27
  -5.94999981        -3.06861673E-27
  -5.94500017        -3.66632389E-27
  -5.94000006        -4.31272876E-27
  -5.93499994        -5.00648378E-27
  -5.92999983        -5.74617569E-27
  -5.92500019        -6.53033001E-27
  -5.92000008        -7.35741908E-27
  -5.91499996        -8.22586866E-27
  -5.90999985        -9.13405864E-27
  -5.90500021        -1.00803366E-26
  -5.90000010        -1.10630054E-26
  -5.89499998        -1.20803463E-26
  -5.88999987        -1.31306036E-26
  -5.88500023        -1.42119856E-26
  -5.88000011        -1.53226848E-26
  -5.87500000        -1.64608447E-26
  -5.86999989        -1.76245917E-26
  -5.86499977        -1.88119891E-26
  -5.86000013        -2.00210879E-26
  -5.85500002        -2.12498790E-26
  -5.84999990        -2.24963239E-26
  -5.84499979        -2.37583149E-26
  -5.84000015        -2.50337120E-26
  -5.83500004        -2.63203102E-26
  -5.82999992        -2.76158478E-26
  -5.82499981        -2.89180261E-26
  -5.82000017        -3.02244722E-26
  -5.81500006        -3.15327610E-26
  -5.80999994        -3.28404212E-26
  -5.80499983        -3.41449445E-26
  -5.80000019        -3.54437547E-26
  -5.79500008        -3.67342448E-26
  -5.78999996        -3.80137741E-26
  -5.78499985        -3.92796833E-26
  -5.78000021        -4.05292852E-26
  -5.77500010        -4.17598897E-26
  -5.76999998        -4.29688129E-26
  -5.76499987        -4.41533645E-26
  -5.76000023        -4.53108854E-26
  -5.75500011        -4.64387377E-26
  -5.75000000        -4.75343269E-26
  -5.74499989        -4.85950921E-26
  -5.73999977        -4.96185528E-26
  -5.73500013        -5.06022624E-26
  -5.73000002        -5.15438788E-26
  -5.72499990        -5.24411187E-26
  -5.71999979        -5.32917696E-26
  -5.71500015        -5.40937145E-26
  -5.71000004        -5.48449196E-26
  -5.70499992        -5.55434745E-26
  -5.69999981        -5.61875116E-26
  -5.69500017        -5.67752746E-26
  -5.69000006        -5.73050933E-26
  -5.68499994        -5.77753962E-26
  -5.67999983        -5.81846609E-26
  -5.67500019        -5.85314885E-26
  -5.67000008        -5.88145109E-26
  -5.66499996        -5.90324768E-26
  -5.65999985        -5.91841600E-26
  -5.65500021        -5.92684387E-26
  -5.65000010        -5.92842159E-26
  -5.64499998        -5.92304686E-26
  -5.63999987        -5.91062045E-26
  -5.63500023        -5.89105300E-26
  -5.63000011        -5.86425577E-26
  -5.62500000        -5.83014308E-26
  -5.61999989        -5.78864222E-26
  -5.61499977        -5.73967676E-26
  -5.61000013        -5.68317891E-26
  -5.60500002        -5.61909012E-26
  -5.59999990        -5.54735493E-26
  -5.59499979        -5.46792465E-26
  -5.59000015        -5.38075491E-26
  -5.58500004        -5.28581550E-26
  -5.57999992        -5.18308177E-26
  -5.57499981        -5.07253709E-26
  -5.57000017        -4.95417283E-26
  -5.56500006        -4.82799668E-26
  -5.55999994        -4.69402345E-26
  -5.55499983        -4.55227963E-26
  -5.55000019        -4.40280528E-26
  -5.54500008        -4.24565217E-26
  -5.53999996        -4.08088501E-26
  -5.53499985        -3.90858484E-26
  -5.53000021        -3.72883734E-26
  -5.52500010        -3.54174727E-26
  -5.51999998        -3.34743449E-26
  -5.51499987        -3.14602998E-26
  -5.51000023        -2.93767086E-26
  -5.50500011        -2.72251676E-26
  -5.50000000        -2.50073067E-26
  -5.49499989        -2.27249164E-26
  -5.48999977        -2.03798070E-26
  -5.48500013        -1.79739846E-26
  -5.48000002        -1.55095031E-26
  -5.47499990        -1.29884515E-26
  -5.46999979        -1.04130325E-26
  -5.46500015        -7.78549939E-27
  -5.46000004        -5.10819676E-27
  -5.45499992        -2.38344982E-27
  -5.44999981         3.86286850E-28
  -5.44500017         3.19860410E-27
  -5.44000006         6.05100688E-27
  -5.43499994         8.94104117E-27
  -5.42999983         1.18661343E-26
  -5.42500019         1.48237071E-26
  -5.42000008         1.78111958E-26
  -5.41499996         2.08259495E-26
  -5.40999985         2.38653704E-26
  -5.40500021         2.69267532E-26
  -5.40000010         3.00073906E-26
  -5.39499998         3.31045417E-26
  -5.38999987         3.62154517E-26
  -5.38500023         3.93372362E-26
  -5.38000011         4.24671035E-26
  -5.37500000         4.56020860E-26
  -5.36999989         4.87392472E-26
  -5.36499977         5.18755424E-26
  -5.36000013         5.50079242E-26
  -5.35500002         5.81332740E-26
  -5.34999990         6.12484118E-26
  -5.34499979         6.43501019E-26
  -5.34000015         6.74350657E-26
  -5.33500004         7.05000061E-26
  -5.32999992         7.35415702E-26
  -5.32499981         7.65563254E-26
  -5.32000017         7.95408759E-26
  -5.31500006         8.24917827E-26
  -5.30999994         8.54056130E-26
  -5.30499983         8.82789032E-26
  -5.30000019         9.11082083E-26
  -5.29500008         9.38901140E-26
  -5.28999996         9.66211874E-26
  -5.28499985         9.92981006E-26
  -5.28000021         1.01917476E-25
  -5.27500010         1.04476097E-25
  -5.26999998         1.06970734E-25
  -5.26499987         1.09398269E-25
  -5.26000023         1.11755644E-25
  -5.25500011         1.14039828E-25
  -5.25000000         1.16247973E-25
  -5.24499989         1.18377232E-25
  -5.23999977         1.20424856E-25
  -5.23500013         1.22388306E-25
  -5.23000002         1.24264957E-25
  -5.22499990         1.26052417E-25
  -5.21999979         1.27748234E-25
  -5.21500015         1.29350336E-25
  -5.21000004         1.30856259E-25
  -5.20499992         1.32264043E-25
  -5.19999981         1.33571617E-25
  -5.19500017         1.34776997E-25
  -5.19000006         1.35878259E-25
  -5.18499994         1.36873616E-25
  -5.17999983         1.37761319E-25
  -5.17500019         1.38539617E-25
  -5.17000008         1.39206931E-25
  -5.16499996         1.39761587E-25
  -5.15999985         1.40202178E-25
  -5.15500021         1.40527189E-25
  -5.15000010         1.40735325E-25
  -5.14499998         1.40825279E-25
  -5.13999987         1.40795796E-25
  -5.13500023         1.40645838E-25
  -5.13000011         1.40374396E-25
  -5.12500000         1.39980520E-25
  -5.11999989         1.39463521E-25
  -5.11499977         1.38822707E-25
  -5.11000013         1.38057425E-25
  -5.10500002         1.37167566E-25
  -5.09999990         1.36152610E-25
  -5.09499979         1.35012496E-25
  -5.09000015         1.33747459E-25
  -5.08500004         1.32357560E-25
  -5.07999992         1.30843058E-25
  -5.07499981         1.29204446E-25
  -5.07000017         1.27442390E-25
  -5.06500006         1.25557493E-25
  -5.05999994         1.23550692E-25
  -5.05499983         1.21422777E-25
  -5.05000019         1.19174832E-25
  -5.04500008         1.16807842E-25
  -5.03999996         1.14323103E-25
  -5.03499985         1.11721649E-25
  -5.03000021         1.09004788E-25
  -5.02500010         1.06173701E-25
  -5.01999998         1.03229777E-25
  -5.01499987         1.00174272E-25
  -5.01000023         9.70085428E-26
  -5.00500011         9.37340613E-26
  -5.00000000         9.03523194E-26
  -4.99499989         8.68648331E-26
  -4.98999977         8.32733651E-26
  -4.98500013         7.95797951E-26
  -4.98000002         7.57861322E-26
  -4.97499990         7.18946752E-26
  -4.96999979         6.79079755E-26
  -4.96500015         6.38289915E-26
  -4.96000004         5.96608847E-26
  -4.95499992         5.54072542E-26
  -4.94999981         5.10723095E-26
  -4.94500017         4.66603398E-26
  -4.94000006         4.21763959E-26
  -4.93499994         3.76258826E-26
  -4.92999983         3.30144976E-26
  -4.92500019         2.83484439E-26
  -4.92000008         2.36342003E-26
  -4.91499996         1.88784168E-26
  -4.90999985         1.40878940E-26
  -4.90500021         9.26952933E-27
  -4.90000010         4.43008107E-27
  -4.89499998        -4.24112307E-28
  -4.88999987        -5.28703977E-27
  -4.88500023        -1.01533548E-26
  -4.88000011        -1.50182569E-26
  -4.87500000        -1.98782148E-26
  -4.86999989        -2.47305367E-26
  -4.86499977        -2.95737359E-26
  -4.86000013        -3.44075859E-26
  -4.85500002        -3.92332267E-26
  -4.84999990        -4.40532223E-26
  -4.84499979        -4.88711010E-26
  -4.84000015        -5.36917961E-26
  -4.83500004        -5.85212950E-26
  -4.82999992        -6.33662629E-26
  -4.82499981        -6.82336395E-26
  -4.82000017        -7.31310482E-26
  -4.81500006        -7.80652376E-26
  -4.80999994        -8.30426972E-26
  -4.80499983        -8.80685177E-26
  -4.80000019        -9.31460086E-26
  -4.79500008        -9.82763902E-26
  -4.78999996        -1.03458282E-25
  -4.78499985        -1.08686889E-25
  -4.78000021        -1.13953793E-25
  -4.77500010        -1.19247123E-25
  -4.76999998        -1.24550401E-25
  -4.76499987        -1.29843288E-25
  -4.76000023        -1.35101120E-25
  -4.75500011        -1.40295362E-25
  -4.75000000        -1.45393943E-25
  -4.74499989        -1.50361511E-25
  -4.73999977        -1.55160743E-25
  -4.73500013        -1.59752555E-25
  -4.73000002        -1.64097736E-25
  -4.72499990        -1.68157818E-25
  -4.71999979        -1.71896206E-25
  -4.71500015        -1.75280123E-25
  -4.71000004        -1.78281468E-25
  -4.70499992        -1.80878361E-25
  -4.69999981        -1.83056159E-25
  -4.69500017        -1.84809600E-25
  -4.69000006        -1.86142454E-25
  -4.68499994        -1.87069403E-25
  -4.67999983        -1.87615763E-25
  -4.67500019        -1.87818007E-25
  -4.67000008        -1.87723714E-25
  -4.66499996        -1.87390370E-25
  -4.65999985        -1.86884612E-25
  -4.65500021        -1.86280677E-25
  -4.65000010        -1.85658895E-25
  -4.64499998        -1.85102440E-25
  -4.63999987        -1.84695264E-25
  -4.63500023        -1.84519533E-25
  -4.63000011        -1.84651359E-25
  -4.62500000        -1.85158930E-25
  -4.61999989        -1.86097662E-25
  -4.61499977        -1.87508502E-25
  -4.61000013        -1.89413885E-25
  -4.60500002        -1.91815966E-25
  -4.59999990        -1.94693879E-25
  -4.59499979        -1.98002694E-25
  -4.59000015        -2.01672549E-25
  -4.58500004        -2.05608558E-25
  -4.57999992        -2.09692072E-25
  -4.57499981        -2.13781996E-25
  -4.57000017        -2.17718411E-25
  -4.56500006        -2.21325527E-25
  -4.55999994        -2.24417073E-25
  -4.55499983        -2.26801331E-25
  -4.55000019        -2.28287102E-25
  -4.54500008        -2.28690924E-25
  -4.53999996        -2.27843688E-25
  -4.53499985        -2.25598121E-25
  -4.53000021        -2.21835279E-25
  -4.52500010        -2.16471666E-25
  -4.51999998        -2.09464930E-25
  -4.51499987        -2.00819495E-25
  -4.51000023        -1.90589633E-25
  -4.50500011        -1.78883258E-25
  -4.50000000        -1.65861740E-25
  -4.49499989        -1.51740563E-25
  -4.48999977        -1.36785128E-25
  -4.48500013        -1.21308059E-25
  -4.48000002        -1.05661164E-25
  -4.47499990        -9.02289119E-26
  -4.46999979        -7.54170377E-26
  -4.46500015        -6.16418561E-26
  -4.46000004        -4.93177257E-26
  -4.45499992        -3.88431874E-26
  -4.44999981        -3.05866241E-26
  -4.44500017        -2.48731017E-26
  -4.44000006        -2.19689226E-26
  -4.43499994        -2.20702604E-26
  -4.42999983        -2.52898653E-26
  -4.42500019        -3.16484031E-26
  -4.42000008        -4.10651744E-26
  -4.41499996        -5.33544594E-26
  -4.40999985        -6.82216956E-26
  -4.40500021        -8.52650663E-26
  -4.40000010        -1.03979201E-25
  -4.39499998        -1.23762674E-25
  -4.38999987        -1.43928818E-25
  -4.38500023        -1.63719650E-25
  -4.38000011        -1.82322876E-25
  -4.37500000        -1.98890853E-25
  -4.36999989        -2.12563156E-25
  -4.36499977        -2.22488875E-25
  -4.36000013        -2.27851823E-25
  -4.35500002        -2.27894619E-25
  -4.34999990        -2.21943353E-25
  -4.34499979        -2.09430565E-25
  -4.34000015        -1.89917721E-25
  -4.33500004        -1.63113571E-25
  -4.32999992        -1.28891589E-25
  -4.32499981        -8.73014491E-26
  -4.32000017        -3.85789190E-26
  -4.31500006         1.68503108E-26
  -4.30999994         7.83703296E-26
  -4.30499983         1.45180408E-25
  -4.30000019         2.16304132E-25
  -4.29500008         2.90604303E-25
  -4.28999996         3.66801462E-25
  -4.28499985         4.43495974E-25
  -4.28000021         5.19195806E-25
  -4.27500010         5.92345941E-25
  -4.26999998         6.61359486E-25
  -4.26499987         7.24653248E-25
  -4.26000023         7.80683031E-25
  -4.25500011         8.27979038E-25
  -4.25000000         8.65183198E-25
  -4.24499989         8.91083769E-25
  -4.23999977         9.04649416E-25
  -4.23500013         9.05061201E-25
  -4.23000002         8.91742764E-25
  -4.22499990         8.64385659E-25
  -4.21999979         8.22972533E-25
  -4.21500015         7.67794868E-25
  -4.21000004         6.99467434E-25
  -4.20499992         6.18935878E-25
  -4.19999981         5.27479684E-25
  -4.19500017         4.26708471E-25
  -4.19000006         3.18552313E-25
  -4.18499994         2.05244240E-25
  -4.17999983         8.92956833E-26
  -4.17500019        -2.65368094E-26
  -4.17000008        -1.39291290E-25
  -4.16499996        -2.45850744E-25
  -4.15999985        -3.42999976E-25
  -4.15500021        -4.27491958E-25
  -4.15000010        -4.96123153E-25
  -4.14499998        -5.45813107E-25
  -4.13999987        -5.73694755E-25
  -4.13500023        -5.77206714E-25
  -4.13000011        -5.54190662E-25
  -4.12500000        -5.02991272E-25
  -4.11999989        -4.22552851E-25
  -4.11499977        -3.12513534E-25
  -4.11000013        -1.73292847E-25
  -4.10500002        -6.16761731E-27
  -4.09999990         1.86667367E-25
  -4.09499979         4.02055015E-25
  -4.09000015         6.35857783E-25
  -4.08500004         8.82963432E-25
  -4.07999992         1.13732207E-24
  -4.07499981         1.39201754E-24
  -4.07000017         1.63937366E-24
  -4.06500006         1.87109938E-24
  -4.05999994         2.07846941E-24
  -4.05499983         2.25254853E-24
  -4.05000019         2.38444095E-24
  -4.04500008         2.46558338E-24
  -4.03999996         2.48805172E-24
  -4.03499985         2.44489925E-24
  -4.03000021         2.33049332E-24
  -4.02500010         2.14086318E-24
  -4.01999998         1.87402842E-24
  -4.01499987         1.53030614E-24
  -4.01000023         1.11258201E-24
  -4.00500011         6.26527136E-25
  -4.00000000         8.07528374E-26
  -3.99499989        -5.13118569E-25
  -3.99000001        -1.14046656E-24
  -3.98499990        -1.78379259E-24
  -3.98000002        -2.42294841E-24
  -3.97499990        -3.03547701E-24
  -3.97000003        -3.59706728E-24
  -3.96499991        -4.08213785E-24
  -3.96000004        -4.46450781E-24
  -3.95499992        -4.71818457E-24
  -3.95000005        -4.81822239E-24
  -3.94499993        -4.74164726E-24
  -3.94000006        -4.46841780E-24
  -3.93499994        -3.98240690E-24
  -3.93000007        -3.27233959E-24
  -3.92499995        -2.33270430E-24
  -3.92000008        -1.16454211E-24
  -3.91499996         2.23870787E-25
  -3.91000009         1.81651711E-24
  -3.90499997         3.58932501E-24
  -3.90000010         5.51008535E-24
  -3.89499998         7.53862776E-24
  -3.89000010         9.62727111E-24
  -3.88499999         1.17215611E-23
  -3.88000011         1.37612888E-23
  -3.87500000         1.56818148E-23
  -3.86999989         1.74156507E-23
  -3.86500001         1.88942742E-23
  -3.85999990         2.00501684E-23
  -3.85500002         2.08190143E-23
  -3.84999990         2.11419614E-23
  -3.84500003         2.09679434E-23
  -3.83999991         2.02559790E-23
  -3.83500004         1.89773128E-23
  -3.82999992         1.71173808E-23
  -3.82500005         1.46774671E-23
  -3.81999993         1.16760391E-23
  -3.81500006         8.14960605E-24
  -3.80999994         4.15310378E-24
  -3.80500007        -2.40293860E-25
  -3.79999995        -4.93995940E-24
  -3.79500008        -9.83920411E-24
  -3.78999996        -1.48172974E-23
  -3.78500009        -1.97421151E-23
  -3.77999997        -2.44733336E-23
  -3.77500010        -2.88661465E-23
  -3.76999998        -3.27753846E-23
  -3.76500010        -3.60600247E-23
  -3.75999999        -3.85878348E-23
  -3.75500011        -4.02401103E-23
  -3.75000000        -4.09163377E-23
  -3.74499989        -4.05385774E-23
  -3.74000001        -3.90555095E-23
  -3.73499990        -3.64458187E-23
  -3.73000002        -3.27209311E-23
  -3.72499990        -2.79268530E-23
  -3.72000003        -2.21449791E-23
  -3.71499991        -1.54919281E-23
  -3.71000004        -8.11807370E-24
  -3.70499992        -2.05014546E-25
  -3.70000005         8.03826701E-24
  -3.69499993         1.63802581E-23
  -3.69000006         2.45730188E-23
  -3.68499994         3.23590207E-23
  -3.68000007         3.94789858E-23
  -3.67499995         4.56800415E-23
  -3.67000008         5.07244693E-23
  -3.66499996         5.43983776E-23
  -3.66000009         5.65201484E-23
  -3.65499997         5.69485061E-23
  -3.65000010         5.55896396E-23
  -3.64499998         5.24033641E-23
  -3.64000010         4.74077226E-23
  -3.63499999         4.06821880E-23
  -3.63000011         3.23688278E-23
  -3.62500000         2.26716526E-23
  -3.61999989         1.18537009E-23
  -3.61500001         2.32134253E-25
  -3.60999990        -1.18289196E-23
  -3.60500002        -2.39274466E-23
  -3.59999990        -3.56345510E-23
  -3.59500003        -4.65069129E-23
  -3.58999991        -5.61008341E-23
  -3.58500004        -6.39867736E-23
  -3.57999992        -6.97647822E-23
  -3.57500005        -7.30796577E-23
  -3.56999993        -7.36356595E-23
  -3.56500006        -7.12104739E-23
  -3.55999994        -6.56671105E-23
  -3.55500007        -5.69642707E-23
  -3.54999995        -4.51639813E-23
  -3.54500008        -3.04363931E-23
  -3.53999996        -1.30613104E-23
  -3.53500009         6.57374319E-24
  -3.52999997         2.79791135E-23
  -3.52500010         5.05722665E-23
  -3.51999998         7.36906337E-23
  -3.51500010         9.66078444E-23
  -3.50999999         1.18553021E-22
  -3.50500011         1.38732827E-22
  -3.50000000         1.56355349E-22
  -3.49499989         1.70655504E-22
  -3.49000001         1.80921260E-22
  -3.48499990         1.86519547E-22
  -3.48000002         1.86921058E-22
  -3.47499990         1.81723715E-22
  -3.47000003         1.70672733E-22
  -3.46499991         1.53677993E-22
  -3.46000004         1.30826662E-22
  -3.45499992         1.02390801E-22
  -3.45000005         6.88301082E-23
  -3.44499993         3.07885848E-23
  -3.44000006        -1.09148814E-23
  -3.43499994        -5.53015728E-23
  -3.43000007        -1.01254406E-22
  -3.42499995        -1.47544000E-22
  -3.42000008        -1.92860651E-22
  -3.41499996        -2.35849822E-22
  -3.41000009        -2.75150973E-22
  -3.40499997        -3.09439159E-22
  -3.40000010        -3.37466441E-22
  -3.39499998        -3.58104481E-22
  -3.39000010        -3.70384256E-22
  -3.38499999        -3.73533994E-22
  -3.38000011        -3.67011768E-22
  -3.37500000        -3.50533259E-22
  -3.36999989        -3.24092711E-22
  -3.36500001        -2.87976135E-22
  -3.35999990        -2.42766453E-22
  -3.35500002        -1.89339479E-22
  -3.34999990        -1.28850521E-22
  -3.34500003        -6.27123783E-23
  -3.33999991         7.43640874E-24
  -3.33500004         7.97706813E-23
  -3.32999992         1.52326706E-22
  -3.32500005         2.23054447E-22
  -3.31999993         2.89877201E-22
  -3.31500006         3.50752524E-22
  -3.30999994         4.03736134E-22
  -3.30500007         4.47044168E-22
  -3.29999995         4.79114431E-22
  -3.29500008         4.98662278E-22
  -3.28999996         5.04730726E-22
  -3.28500009         4.96732459E-22
  -3.27999997         4.74481785E-22
  -3.27500010         4.38215691E-22
  -3.26999998         3.88602904E-22
  -3.26500010         3.26739876E-22
  -3.25999999         2.54132790E-22
  -3.25500011         1.72667024E-22
  -3.25000000         8.45632385E-23
  -3.24499989        -7.67807706E-24
  -3.24000001        -1.01343679E-22
  -3.23499990        -1.93582970E-22
  -3.23000002        -2.81490865E-22
  -3.22499990        -3.62195122E-22
  -3.22000003        -4.32946757E-22
  -3.21499991        -4.91208615E-22
  -3.21000004        -5.34741822E-22
  -3.20499992        -5.61686130E-22
  -3.20000005        -5.70630121E-22
  -3.19499993        -5.60672349E-22
  -3.19000006        -5.31466926E-22
  -3.18499994        -4.83254323E-22
  -3.18000007        -4.16875123E-22
  -3.17499995        -3.33766595E-22
  -3.17000008        -2.35938098E-22
  -3.16499996        -1.25931142E-22
  -3.16000009        -6.75932153E-24
  -3.15499997         1.18167729E-22
  -3.15000010         2.45134853E-22
  -3.14499998         3.70225549E-22
  -3.14000010         4.89435105E-22
  -3.13499999         5.98790865E-22
  -3.13000011         6.94474872E-22
  -3.12500000         7.72948735E-22
  -3.11999989         8.31069836E-22
  -3.11500001         8.66203605E-22
  -3.10999990         8.76320816E-22
  -3.10500002         8.60082246E-22
  -3.09999990         8.16903459E-22
  -3.09500003         7.46997963E-22
  -3.08999991         6.51401198E-22
  -3.08500004         5.31964931E-22
  -3.07999992         3.91330444E-22
  -3.07500005         2.32874895E-22
  -3.06999993         6.06343041E-23
  -3.06500006        -1.20796693E-22
  -3.05999994        -3.06384766E-22
  -3.05500007        -4.90795934E-22
  -3.04999995        -6.68546415E-22
  -3.04500008        -8.34163433E-22
  -3.03999996        -9.82350689E-22
  -3.03500009        -1.10815303E-21
  -3.02999997        -1.20711703E-21
  -3.02500010        -1.27544526E-21
  -3.01999998        -1.31012434E-21
  -3.01500010        -1.30904513E-21
  -3.00999999        -1.27109549E-21
  -3.00500011        -1.19622403E-21
  -3.00000000        -1.08547432E-21
  -2.99499989        -9.40990244E-22
  -2.99000001        -7.65984040E-22
  -2.98499990        -5.64675572E-22
  -2.98000002        -3.42196703E-22
  -2.97499990        -1.04466086E-22
  -2.97000003         1.41962273E-22
  -2.96499991         3.90075764E-22
  -2.96000004         6.32597632E-22
  -2.95499992         8.62193718E-22
  -2.95000005         1.07169124E-21
  -2.94499993         1.25429490E-21
  -2.94000006         1.40379820E-21
  -2.93499994         1.51478752E-21
  -2.93000007         1.58282343E-21
  -2.92499995         1.60460205E-21
  -2.92000008         1.57808552E-21
  -2.91499996         1.50259560E-21
  -2.91000009         1.37887888E-21
  -2.90499997         1.20912086E-21
  -2.90000010         9.96925708E-22
  -2.89499998         7.47249237E-22
  -2.89000010         4.66292980E-22
  -2.88499999         1.61357585E-22
  -2.88000011        -1.59339452E-22
  -2.87500000        -4.86879700E-22
  -2.86999989        -8.11881911E-22
  -2.86500001        -1.12476500E-21
  -2.85999990        -1.41601679E-21
  -2.85500002        -1.67647649E-21
  -2.84999990        -1.89760705E-21
  -2.84500003        -2.07175684E-21
  -2.83999991        -2.19240384E-21
  -2.83500004        -2.25437595E-21
  -2.82999992        -2.25402698E-21
  -2.82500005        -2.18938714E-21
  -2.81999993        -2.06025366E-21
  -2.81500006        -1.86824194E-21
  -2.80999994        -1.61678378E-21
  -2.80500007        -1.31106956E-21
  -2.79999995        -9.57936138E-22
  -2.79500008        -5.65716111E-22
  -2.78999996        -1.44024986E-22
  -2.78500009         2.96481090E-22
  -2.77999997         7.44388941E-22
  -2.77500010         1.18783984E-21
  -2.76999998         1.61485568E-21
  -2.76500010         2.01368194E-21
  -2.75999999         2.37312443E-21
  -2.75500011         2.68287994E-21
  -2.75000000         2.93384767E-21
  -2.74499989         3.11841194E-21
  -2.74000001         3.23068010E-21
  -2.73499990         3.26668568E-21
  -2.73000002         3.22453602E-21
  -2.72499990         3.10448740E-21
  -2.72000003         2.90898742E-21
  -2.71499991         2.64262557E-21
  -2.71000004         2.31203666E-21
  -2.70499992         1.92574048E-21
  -2.70000005         1.49391767E-21
  -2.69499993         1.02813764E-21
  -2.69000006         5.41039431E-22
  -2.68499994         4.59766311E-23
  -2.68000007        -4.43366738E-22
  -2.67499995        -9.13373499E-22
  -2.67000008        -1.35089994E-21
  -2.66499996        -1.74367452E-21
  -2.66000009        -2.08066358E-21
  -2.65499997        -2.35243906E-21
  -2.65000010        -2.55146546E-21
  -2.64499998        -2.67236045E-21
  -2.64000010        -2.71209339E-21
  -2.63499999        -2.67010327E-21
  -2.63000011        -2.54835868E-21
  -2.62500000        -2.35134147E-21
  -2.61999989        -2.08593968E-21
  -2.61500001        -1.76128947E-21
  -2.60999990        -1.38851848E-21
  -2.60500002        -9.80454797E-22
  -2.59999990        -5.51248276E-22
  -2.59500003        -1.15969167E-22
  -2.58999991         3.09846514E-22
  -2.58500004         7.10665731E-22
  -2.57999992         1.07144052E-21
  -2.57500005         1.37808967E-21
  -2.56999993         1.61794953E-21
  -2.56500006         1.78020779E-21
  -2.55999994         1.85628478E-21
  -2.55500007         1.84014809E-21
  -2.54999995         1.72857342E-21
  -2.54500008         1.52131227E-21
  -2.53999996         1.22119525E-21
  -2.53500009         8.34119610E-22
  -2.52999997         3.68961731E-22
  -2.52500010        -1.62599290E-22
  -2.51999998        -7.46356070E-22
  -2.51500010        -1.36592036E-21
  -2.50999999        -2.00314528E-21
  -2.50500011        -2.63861447E-21
  -2.50000000        -3.25217306E-21
  -2.49499989        -3.82349859E-21
  -2.49000001        -4.33268844E-21
  -2.48499990        -4.76085417E-21
  -2.48000002        -5.09068719E-21
  -2.47499990        -5.30701673E-21
  -2.47000003        -5.39729412E-21
  -2.46499991        -5.35203749E-21
  -2.46000004        -5.16517464E-21
  -2.45499992        -4.83431451E-21
  -2.45000005        -4.36093456E-21
  -2.44499993        -3.75042074E-21
  -2.44000006        -3.01203663E-21
  -2.43499994        -2.15877802E-21
  -2.43000007        -1.20710158E-21
  -2.42499995        -1.76576908E-22
  -2.42000008         9.10571768E-22
  -2.41499996         2.02999533E-21
  -2.41000009         3.15582187E-21
  -2.40499997         4.26131342E-21
  -2.40000010         5.31953713E-21
  -2.39499998         6.30409329E-21
  -2.39000010         7.18979653E-21
  -2.38499999         7.95335209E-21
  -2.38000011         8.57399928E-21
  -2.37500000         9.03407487E-21
  -2.36999989         9.31951357E-21
  -2.36500001         9.42026240E-21
  -2.35999990         9.33057388E-21
  -2.35500002         9.04919273E-21
  -2.34999990         8.57943250E-21
  -2.34500003         7.92913848E-21
  -2.33999991         7.11049705E-21
  -2.33500004         6.13976102E-21
  -2.32999992         5.03686027E-21
  -2.32500005         3.82489204E-21
  -2.31999993         2.52955830E-21
  -2.31500006         1.17851013E-21
  -2.30999994        -1.99341011E-22
  -2.30500007        -1.57456455E-21
  -2.29999995        -2.91794383E-21
  -2.29500008        -4.20120267E-21
  -2.28999996        -5.39772225E-21
  -2.28500009        -6.48317547E-21
  -2.27999997        -7.43611298E-21
  -2.27500010        -8.23846849E-21
  -2.26999998        -8.87596867E-21
  -2.26500010        -9.33839252E-21
  -2.25999999        -9.61978741E-21
  -2.25500011        -9.71849978E-21
  -2.25000000        -9.63712508E-21
  -2.24499989        -9.38228560E-21
  -2.24000001        -8.96440510E-21
  -2.23499990        -8.39723870E-21
  -2.23000002        -7.69743259E-21
  -2.22499990        -6.88394327E-21
  -2.22000003        -5.97742602E-21
  -2.21499991        -4.99959069E-21
  -2.21000004        -3.97251510E-21
  -2.20499992        -2.91799068E-21
  -2.20000005        -1.85688880E-21
  -2.19499993        -8.08570614E-22
  -2.19000006         2.09664701E-22
  -2.18499994         1.18301105E-21
  -2.18000007         2.09947749E-21
  -2.17499995         2.95021700E-21
  -2.17000008         3.72954897E-21
  -2.16499996         4.43508799E-21
  -2.16000009         5.06756127E-21
  -2.15499997         5.63060874E-21
  -2.15000010         6.13047988E-21
  -2.14499998         6.57558342E-21
  -2.14000010         6.97598327E-21
  -2.13499999         7.34282575E-21
  -2.13000011         7.68770352E-21
  -2.12500000         8.02200404E-21
  -2.11999989         8.35624559E-21
  -2.11500001         8.69942054E-21
  -2.10999990         9.05838703E-21
  -2.10500002         9.43731249E-21
  -2.09999990         9.83720020E-21
  -2.09500003         1.02555024E-20
  -2.08999991         1.06858479E-20
  -2.08500004         1.11178987E-20
  -2.07999992         1.15373536E-20
  -2.07500005         1.19260283E-20
  -2.06999993         1.22621609E-20
  -2.06500006         1.25207890E-20
  -2.05999994         1.26742891E-20
  -2.05500007         1.26930251E-20
  -2.04999995         1.25460858E-20
  -2.04500008         1.22021354E-20
  -2.03999996         1.16303573E-20
  -2.03500009         1.08013503E-20
  -2.02999997         9.68818733E-21
  -2.02500010         8.26733580E-21
  -2.01999998         6.51963968E-21
  -2.01500010         4.43123764E-21
  -2.00999999         1.99437648E-21
  -2.00500011        -7.91840048E-22
  -2.00000000        -3.92081187E-21
  -1.99500000        -7.37799062E-21
  -1.99000001        -1.11404766E-20
  -1.98500001        -1.51768950E-20
  -1.98000002        -1.94473054E-20
  -1.97500002        -2.39033968E-20
  -1.97000003        -2.84887691E-20
  -1.96500003        -3.31394241E-20
  -1.96000004        -3.77843599E-20
  -1.95500004        -4.23463773E-20