  -6.00000000       0.00000000    
  -5.99499989       0.00000000    
  -5.98999977       0.00000000    
  -5.98500013       0.00000000    
  -5.98000002       0.00000000    
  -5.97499990       0.00000000    
  -5.96999979       0.00000000    
  -5.96500015       0.00000000    
  -5.96000004       0.00000000    
  -5.95499992       0.00000000    
  -5.94999981       0.00000000    
  -5.94500017       0.00000000    
  -5.94000006       0.00000000    
  -5.93499994       0.00000000    
  -5.92999983       0.00000000    
  -5.92500019       0.00000000    
  -5.92000008       0.00000000    
  -5.91499996       0.00000000    
  -5.90999985       0.00000000    
  -5.90500021       0.00000000    
  -5.90000010       0.00000000    
  -5.89499998       0.00000000    
  -5.88999987       0.00000000    
  -5.88500023       0.00000000    
  -5.88000011       0.00000000    
  -5.87500000       0.00000000    
  -5.86999989       0.00000000    
  -5.86499977       0.00000000    
  -5.86000013       0.00000000    
  -5.85500002       0.00000000    
  -5.84999990       0.00000000    
  -5.84499979       0.00000000    
  -5.84000015       0.00000000    
  -5.83500004       0.00000000    
  -5.82999992       0.00000000    
  -5.82499981       0.00000000    
  -5.82000017       0.00000000    
  -5.81500006       0.00000000    
  -5.80999994       0.00000000    
  -5.80499983       0.00000000    
  -5.80000019       0.00000000    
  -5.79500008       0.00000000    
  -5.78999996       0.00000000    
  -5.78499985       0.00000000    
  -5.78000021       0.00000000    
  -5.77500010       0.00000000    
  -5.76999998       0.00000000    
  -5.76499987       0.00000000    
  -5.76000023       0.00000000    
  -5.75500011       0.00000000    
  -5.75000000       0.00000000    
  -5.74499989       0.00000000    
  -5.73999977       0.00000000    
  -5.73500013       0.00000000    
  -5.73000002       0.00000000    
  -5.72499990       0.00000000    
  -5.71999979       0.00000000    
  -5.71500015       0.00000000    
  -5.71000004       0.00000000    
  -5.70499992       0.00000000    
  -5.69999981       0.00000000    
  -5.69500017       0.00000000    
  -5.69000006       0.00000000    
  -5.68499994       0.00000000    
  -5.67999983       0.00000000    
  -5.67500019       0.00000000    
  -5.67000008       0.00000000    
  -5.66499996       0.00000000    
  -5.65999985       0.00000000    
  -5.65500021       0.00000000    
  -5.65000010       0.00000000    
  -5.64499998       0.00000000    
  -5.63999987       0.00000000    
  -5.63500023       0.00000000    
  -5.63000011       0.00000000    
  -5.62500000       0.00000000    
  -5.61999989       0.00000000    
  -5.61499977       0.00000000    
  -5.61000013       0.00000000    
  -5.60500002       0.00000000    
  -5.59999990       0.00000000    
  -5.59499979       0.00000000    
  -5.59000015       0.00000000    
  -5.58500004       0.00000000    
  -5.57999992       0.00000000    
  -5.57499981       0.00000000    
  -5.57000017       0.00000000    
  -5.56500006       0.00000000    
  -5.55999994       0.00000000    
  -5.55499983       0.00000000    
  -5.55000019       0.00000000    
  -5.54500008       0.00000000    
  -5.53999996       0.00000000    
  -5.53499985       0.00000000    
  -5.53000021       0.00000000    
  -5.52500010       0.00000000    
  -5.51999998       0.00000000    
  -5.51499987       0.00000000    
  -5.51000023       0.00000000    
  -5.50500011       0.00000000    
  -5.50000000       0.00000000    
  -5.49499989       0.00000000    
  -5.48999977       0.00000000    
  -5.48500013       0.00000000    
  -5.48000002       0.00000000    
  -5.47499990       0.00000000    
  -5.46999979       0.00000000    
  -5.46500015       0.00000000    
  -5.46000004       0.00000000    
  -5.45499992       0.00000000    
  -5.44999981       0.00000000    
  -5.44500017       0.00000000    
  -5.44000006       0.00000000    
  -5.43499994       0.00000000    
  -5.42999983       0.00000000    
  -5.42500019       0.00000000    
  -5.42000008       0.00000000    
  -5.41499996       0.00000000    
  -5.40999985       0.00000000    
  -5.40500021       0.00000000    
  -5.40000010       0.00000000    
  -5.39499998       0.00000000    
  -5.38999987       0.00000000    
  -5.38500023       0.00000000    
  -5.38000011       0.00000000    
  -5.37500000       0.00000000    
  -5.36999989       0.00000000    
  -5.36499977       0.00000000    
  -5.36000013       0.00000000    
  -5.35500002       0.00000000    
  -5.34999990       0.00000000    
  -5.34499979       0.00000000    
  -5.34000015       0.00000000    
  -5.33500004       0.00000000    
  -5.32999992       0.00000000    
  -5.32499981       0.00000000    
  -5.32000017       0.00000000    
  -5.31500006       0.00000000    
  -5.30999994       0.00000000    
  -5.30499983       0.00000000    
  -5.30000019       0.00000000    
  -5.29500008      -0.00000000    
  -5.28999996      -0.00000000    
  -5.28499985      -0.00000000    
  -5.28000021      -1.47585511E-38
  -5.27500010      -1.98682332E-38
  -5.26999998      -2.63807916E-38
  -5.26499987      -3.06248763E-38
  -5.26000023      -3.73967856E-38
  -5.25500011      -4.45699988E-38
  -5.25000000      -5.14895966E-38
  -5.24499989      -5.78604544E-38
  -5.23999977      -6.47822074E-38
  -5.23500013      -6.39844986E-38
  -5.23000002      -6.74673250E-38
  -5.22499990      -6.29318544E-38
  -5.21999979      -6.47799317E-38
  -5.21500015      -5.21582122E-38
  -5.21000004      -3.52844095E-38
  -5.20499992      -0.00000000    
  -5.19999981       2.42577404E-38
  -5.19500017       6.86536811E-38
  -5.19000006       1.24647584E-37
  -5.18499994       1.93121304E-37
  -5.17999983       2.74571654E-37
  -5.17500019       3.68958276E-37
  -5.17000008       4.75532854E-37
  -5.16499996       5.92660957E-37
  -5.15999985       7.17631893E-37
  -5.15500021       8.46468575E-37
  -5.15000010       9.73748357E-37
  -5.14499998       1.09244932E-36
  -5.13999987       1.19383428E-36
  -5.13500023       1.26760410E-36
  -5.13000011       1.30085267E-36
  -5.12500000       1.28029838E-36
  -5.11999989       1.19039331E-36
  -5.11499977       1.01475264E-36
  -5.11000013       7.36469515E-37
  -5.10500002       3.38809261E-37
  -5.09999990      -1.93906928E-37
  -5.09499979      -8.75227255E-37
  -5.09000015      -1.71530716E-36
  -5.08500004      -2.71947863E-36
  -5.07999992      -3.88667120E-36
  -5.07499981      -5.20773091E-36
  -5.07000017      -6.66369337E-36
  -5.06500006      -8.22407818E-36
  -5.05999994      -9.84531190E-36
  -5.05499983      -1.14693774E-35
  -5.05000019      -1.30228143E-35
  -5.04500008      -1.44162099E-35
  -5.03999996      -1.55443358E-35
  -5.03499985      -1.62870956E-35
  -5.03000021      -1.65113894E-35
  -5.02500010      -1.60740831E-35
  -5.01999998      -1.48261951E-35
  -5.01499987      -1.26183536E-35
  -5.01000023      -9.30763229E-36
  -5.00500011      -4.76572308E-36
  -5.00000000       1.11163146E-36
  -4.99499989       8.39408219E-36
  -4.98999977       1.71052408E-35
  -4.98500013       2.72107226E-35
  -4.98000002       3.86060785E-35
  -4.97499990       5.11052081E-35
  -4.96999979       6.44298728E-35
  -4.96500015       7.82010933E-35
  -4.96000004       9.19331460E-35
  -4.95499992       1.05031293E-34
  -4.94999981       1.16793755E-34
  -4.94500017       1.26419412E-34
  -4.94000006       1.33021191E-34
  -4.93499994       1.35646756E-34
  -4.92999983       1.33306742E-34
  -4.92500019       1.25010243E-34
  -4.92000008       1.09808793E-34
  -4.91499996       8.68471125E-35
  -4.90999985       5.54210804E-35
  -4.90500021       1.50407056E-35
  -4.90000010      -3.45028772E-35
  -4.89499998      -9.30694151E-35
  -4.88999987      -1.60102709E-34
  -4.88500023      -2.34568888E-34
  -4.88000011      -3.14902975E-34
  -4.87500000      -3.98968614E-34
  -4.86999989      -4.84035054E-34
  -4.86499977      -5.66775713E-34
  -4.86000013      -6.43293049E-34
  -4.85500002      -7.09173951E-34
  -4.84999990      -7.59578368E-34
  -4.84499979      -7.89366038E-34
  -4.84000015      -7.93259128E-34
  -4.83500004      -7.66044735E-34
  -4.82999992      -7.02813241E-34
  -4.82499981      -5.99229092E-34
  -4.82000017      -4.51829585E-34
  -4.81500006      -2.58342067E-34
  -4.80999994      -1.80087543E-35
  -4.80499983       2.68091736E-34
  -4.80000019       5.96743243E-34
  -4.79500008       9.62327909E-34
  -4.78999996       1.35661755E-33
  -4.78499985       1.76863870E-33
  -4.78000021       2.18463476E-33
  -4.77500010       2.58813863E-33
  -4.76999998       2.96018130E-33
  -4.76499987       3.27963952E-33
  -4.76000023       3.52375150E-33
  -4.75500011       3.66878179E-33
  -4.75000000       3.69086308E-33
  -4.74499989       3.56698214E-33
  -4.73999977       3.27611157E-33
  -4.73500013       2.80045403E-33
  -4.73000002       2.12676958E-33
  -4.72499990       1.24773491E-33
  -4.71999979       1.63293786E-34
  -4.71500015      -1.11807209E-33
  -4.71000004      -2.57821947E-33
  -4.70499992      -4.18843184E-33
  -4.69999981      -5.90880823E-33
  -4.69500017      -7.68801958E-33
  -4.69000006      -9.46350902E-33
  -4.68499994      -1.11621961E-32
  -4.67999983      -1.27017601E-32
  -4.67500019      -1.39924985E-32
  -4.67000008      -1.49398426E-32
  -4.66499996      -1.54474490E-32
  -4.65999985      -1.54209063E-32
  -4.65500021      -1.47719511E-32
  -4.65000010      -1.34231052E-32
  -4.64499998      -1.13126189E-32
  -4.63999987      -8.39955072E-33
  -4.63500023      -4.66876822E-33
  -4.63000011      -1.35705967E-34
  -4.62500000       5.14943888E-33
  -4.61999989       1.10982668E-32
  -4.61499977       1.75817808E-32
  -4.61000013       2.44293264E-32
  -4.60500002       3.14290661E-32
  -4.59999990       3.83302083E-32
  -4.59499979       4.48472254E-32
  -4.59000015       5.06660870E-32
  -4.58500004       5.54526059E-32
  -4.57999992       5.88629031E-32
  -4.57499981       6.05557208E-32
  -4.57000017       6.02065167E-32
  -4.56500006       5.75229512E-32
  -4.55999994       5.22612093E-32
  -4.55499983       4.42427832E-32
  -4.55000019       3.33709828E-32
  -4.54500008       1.96464177E-32
  -4.53999996       3.18079184E-33
  -4.53499985      -1.57919202E-32
  -4.53000021      -3.69077161E-32
  -4.52500010      -5.96690101E-32
  -4.51999998      -8.34458695E-32
  -4.51499987      -1.07483066E-31
  -4.51000023      -1.30912831E-31
  -4.50500011      -1.52774122E-31
  -4.50000000      -1.72038124E-31
  -4.49499989      -1.87639896E-31
  -4.48999977      -1.98515793E-31
  -4.48500013      -2.03645439E-31
  -4.48000002      -2.02097807E-31
  -4.47499990      -1.93079485E-31
  -4.46999979      -1.75983295E-31
  -4.46500015      -1.50436123E-31
  -4.46000004      -1.16342908E-31
  -4.45499992      -7.39252998E-32
  -4.44999981      -2.37519213E-32
  -4.44500017       3.32413639E-32
  -4.44000006       9.57437621E-32
  -4.43499994       1.62075880E-31
  -4.42999983       2.30211987E-31
  -4.42500019       2.97819134E-31
  -4.42000008       3.62313384E-31
  -4.41499996       4.20932537E-31
  -4.40999985       4.70825689E-31
  -4.40500021       5.09156491E-31
  -4.40000010       5.33217732E-31
  -4.39499998       5.40554181E-31
  -4.38999987       5.29090336E-31
  -4.38500023       4.97255316E-31
  -4.38000011       4.44103647E-31
  -4.37500000       3.69422280E-31
  -4.36999989       2.73820900E-31
  -4.36499977       1.58797896E-31
  -4.36000013       2.67770296E-32
  -4.35500002      -1.18889804E-31
  -4.34999990      -2.73958362E-31
  -4.34499979      -4.33368327E-31
  -4.34000015      -5.91362667E-31
  -4.33500004      -7.41647598E-31
  -4.32999992      -8.77594366E-31
  -4.32499981      -9.92475147E-31
  -4.32000017      -1.07972918E-30
  -4.31500006      -1.13325085E-30
  -4.30999994      -1.14768686E-30
  -4.30499983      -1.11873678E-30
  -4.30000019      -1.04343828E-30
  -4.29500008      -9.20424866E-31
  -4.28999996      -7.50145246E-31
  -4.28499985      -5.35024937E-31
  -4.28000021      -2.79562273E-31
  -4.27500010       9.65531444E-33
  -4.26999998       3.24024242E-31
  -4.26499987       6.53091120E-31
  -4.26000023       9.84816284E-31
  -4.25500011       1.30593397E-30
  -4.25000000       1.60240136E-30
  -4.24499989       1.85992659E-30
  -4.23999977       2.06456229E-30
  -4.23500013       2.20333984E-30
  -4.23000002       2.26492672E-30
  -4.22499990       2.24027500E-30
  -4.21999979       2.12322943E-30
  -4.21500015       1.91106568E-30
  -4.21000004       1.60492933E-30
  -4.20499992       1.21013880E-30
  -4.19999981       7.36323502E-31
  -4.19500017       1.97381958E-31
  -4.19000006      -3.88767132E-31
  -4.18499994      -1.00064728E-30
  -4.17999983      -1.61390127E-30
  -4.17500019      -2.20217243E-30
  -4.17000008      -2.73817585E-30
  -4.16499996      -3.19492255E-30
  -4.15999985      -3.54705740E-30
  -4.15500021      -3.77225616E-30
  -4.15000010      -3.85262951E-30
  -4.14499998      -3.77604558E-30
  -4.13999987      -3.53732468E-30
  -4.13500023      -3.13920261E-30
  -4.13000011      -2.59300681E-30
  -4.12500000      -1.91897290E-30
  -4.11999989      -1.14613661E-30
  -4.11499977      -3.11756736E-31
  -4.11000013       5.39752258E-31
  -4.10500002       1.35840757E-30
  -4.09999990       2.09071695E-30
  -4.09499979       2.68221781E-30
  -4.09000015       3.08036113E-30
  -4.08500004       3.23771957E-30
  -4.07999992       3.11533481E-30
  -4.07499981       2.68608829E-30
  -4.07000017       1.93792826E-30
  -4.06500006       8.76753652E-31
  -4.05999994      -4.71217693E-31
  -4.05499983      -2.05779972E-30
  -4.05000019      -3.81208455E-30
  -4.04500008      -5.64075428E-30
  -4.03999996      -7.42958697E-30
  -4.03499985      -9.04626072E-30
  -4.03000021      -1.03444970E-29
  -4.02500010      -1.11695518E-29
  -4.01999998      -1.13649344E-29
  -4.01499987      -1.07803018E-29
  -4.01000023      -9.28018823E-30
  -4.00500011      -6.75340275E-30
  -4.00000000      -3.12266538E-30
  -3.99499989       1.64594788E-30
  -3.99000001       7.53412810E-30
  -3.98499990       1.44636436E-29
  -3.98000002       2.22903039E-29
  -3.97499990       3.08000434E-29
  -3.97000003       3.97077944E-29
  -3.96499991       4.86593332E-29
  -3.96000004       5.72366759E-29
  -3.95499992       6.49671781E-29
  -3.95000005       7.13365174E-29
  -3.94499993       7.58054271E-29
  -3.94000006       7.78299346E-29
  -3.93499994       7.68850674E-29
  -3.93000007       7.24910040E-29
  -3.92499995       6.42409401E-29
  -3.92000008       5.18301091E-29
  -3.91499996       3.50842024E-29
  -3.91000009       1.39865637E-29
  -3.90499997      -1.12978850E-29
  -3.90000010      -4.04028355E-29
  -3.89499998      -7.27466652E-29
  -3.89000010      -1.07525885E-28
  -3.88499999      -1.43716684E-28
  -3.88000011      -1.80086222E-28
  -3.87500000      -2.15214173E-28
  -3.86999989      -2.47525042E-28
  -3.86500001      -2.75331234E-28
  -3.85999990      -2.96886603E-28
  -3.85500002      -3.10449700E-28
  -3.84999990      -3.14355028E-28
  -3.84500003      -3.07090974E-28
  -3.83999991      -2.87381079E-28
  -3.83500004      -2.54267290E-28
  -3.82999992      -2.07190364E-28
  -3.82500005      -1.46064766E-28
  -3.81999993      -7.13443595E-29
  -3.81500006       1.59256456E-29
  -3.80999994       1.14073505E-28
  -3.80500007       2.20786563E-28
  -3.79999995       3.33120543E-28
  -3.79500008       4.47535371E-28
  -3.78999996       5.59958594E-28
  -3.78500009       6.65878723E-28
  -3.77999997       7.60466150E-28
  -3.77500010       8.38722750E-28
  -3.76999998       8.95656128E-28
  -3.76500010       9.26473029E-28
  -3.75999999       9.26791674E-28
  -3.75500011       8.92860930E-28
  -3.75000000       8.21781307E-28
  -3.74499989       7.11720141E-28
  -3.74000001       5.62111495E-28
  -3.73499990       3.73827263E-28
  -3.73000002       1.49316675E-28
  -3.72499990      -1.07302368E-28
  -3.72000003      -3.90202049E-28
  -3.71499991      -6.91868618E-28
  -3.71000004      -1.00319139E-27
  -3.70499992      -1.31362212E-27
  -3.70000005      -1.61141220E-27
  -3.69499993      -1.88391732E-27
  -3.69000006      -2.11797752E-27
  -3.68499994      -2.30034864E-27
  -3.68000007      -2.41820419E-27
  -3.67499995      -2.45965309E-27
  -3.67000008      -2.41430437E-27
  -3.66499996      -2.27381837E-27
  -3.66000009      -2.03245313E-27
  -3.65499997      -1.68756877E-27
  -3.65000010      -1.24006902E-27
  -3.64499998      -6.94761942E-28
  -3.64000010      -6.06087505E-29
  -3.63499999       6.49152551E-28
  -3.63000011       1.41703165E-27
  -3.62500000       2.22147275E-27
  -3.61999989       3.03720616E-27
  -3.61500001       3.83578839E-27
  -3.60999990       4.58630326E-27
  -3.60500002       5.25622990E-27
  -3.59999990       5.81248122E-27
  -3.59500003       6.22253174E-27
  -3.58999991       6.45568636E-27
  -3.58500004       6.48437886E-27
  -3.57999992       6.28549809E-27
  -3.57500005       5.84169951E-27
  -3.56999993       5.14261737E-27
  -3.56500006       4.18595750E-27
  -3.55999994       2.97840001E-27
  -3.55500007       1.53626838E-27
  -3.54999995      -1.14093089E-28
  -3.54500008      -1.93625871E-27
  -3.53999996      -3.88403370E-27
  -3.53500009      -5.90213866E-27
  -3.52999997      -7.92729944E-27
  -3.52500010      -9.88972576E-27
  -3.51999998      -1.17149843E-26
  -3.51500010      -1.33261780E-26
  -3.50999999      -1.46464831E-26
  -3.50500011      -1.56018583E-26
  -3.50000000      -1.61239795E-26
  -3.49499989      -1.61531673E-26
  -3.49000001      -1.56413507E-26
  -3.48499990      -1.45548473E-26
  -3.48000002      -1.28768778E-26
  -3.47499990      -1.06097570E-26
  -3.47000003      -7.77653611E-27
  -3.46499991      -4.42210926E-27
  -3.46000004      -6.13596754E-28
  -3.45499992       3.55999368E-27
  -3.45000005       7.98895848E-27
  -3.44499993       1.25448744E-26
  -3.44000006       1.70835225E-26
  -3.43499994       2.14484824E-26
  -3.43000007       2.54756482E-26
  -3.42499995       2.89982619E-26
  -3.42000008       3.18526164E-26
  -3.41499996       3.38840041E-26
  -3.41000009       3.49530308E-26
  -3.40499997       3.49417556E-26
  -3.40000010       3.37597801E-26
  -3.39499998       3.13496467E-26
  -3.39000010       2.76918250E-26
  -3.38499999       2.28085079E-26
  -3.38000011       1.67664035E-26
  -3.37500000       9.67815696E-27
  -3.36999989       1.70223299E-27
  -3.36500001      -6.95882708E-27
  -3.35999990      -1.60617781E-26
  -3.35500002      -2.53279432E-26
  -3.34999990      -3.44499070E-26
  -3.34500003      -4.31000966E-26
  -3.33999991      -5.09404865E-26
  -3.33500004      -5.76336970E-26
  -3.32999992      -6.28548407E-26
  -3.32500005      -6.63039625E-26
  -3.31999993      -6.77186181E-26
  -3.31500006      -6.68860679E-26
  -3.30999994      -6.36548813E-26
  -3.30500007      -5.79451122E-26
  -3.29999995      -4.97569948E-26
  -3.29500008      -3.91772947E-26
  -3.28999996      -2.63833574E-26
  -3.28500009      -1.16441255E-26
  -3.27999997       4.68186058E-27
  -3.27500010       2.21518459E-26
  -3.26999998       4.02475293E-26
  -3.26500010       5.83871578E-26
  -3.25999999       7.59406380E-26
  -3.25500011       9.22477487E-26
  -3.25000000       1.06638562E-25
  -3.24499989       1.18456019E-25
  -3.24000001       1.27079822E-25
  -3.23499990       1.31950434E-25
  -3.23000002       1.32593639E-25
  -3.22499990       1.28643332E-25
  -3.22000003       1.19862583E-25
  -3.21499991       1.06161992E-25
  -3.21000004       8.76139983E-26
  -3.20499992       6.44629090E-26
  -3.20000005       3.71298647E-26
  -3.19499993       6.21177003E-27
  -3.19000006      -2.75254616E-26
  -3.18499994      -6.31605736E-26
  -3.18000007      -9.96361522E-26
  -3.17499995      -1.35784729E-25
  -3.17000008      -1.70360047E-25
  -3.16499996      -2.02073488E-25
  -3.16000009      -2.29634525E-25
  -3.15499997      -2.51794244E-25
  -3.15000010      -2.67390616E-25
  -3.14499998      -2.75394078E-25
  -3.14000010      -2.74951601E-25
  -3.13499999      -2.65428694E-25
  -3.13000011      -2.46445915E-25
  -3.12500000      -2.17910203E-25
  -3.11999989      -1.80038335E-25
  -3.11500001      -1.33371604E-25
  -3.10999990      -7.87808515E-26
  -3.10500002      -1.74603761E-26
  -3.09999990       4.90892179E-26
  -3.09500003       1.19089524E-25
  -3.08999991       1.90524515E-25
  -3.08500004       2.61190588E-25
  -3.07999992       3.28757412E-25
  -3.07500005       3.90835737E-25
  -3.06999993       4.45053087E-25
  -3.06500006       4.89132120E-25
  -3.05999994       5.20973011E-25
  -3.05500007       5.38733770E-25
  -3.04999995       5.40907427E-25
  -3.04500008       5.26393767E-25
  -3.03999996       4.94561701E-25
  -3.03500009       4.45299014E-25
  -3.02999997       3.79050648E-25
  -3.02500010       2.96837931E-25
  -3.01999998       2.00262140E-25
  -3.01500010       9.14877737E-26
  -3.00999999      -2.67931121E-26
  -3.00500011      -1.51416304E-25
  -3.00000000      -2.78820594E-25
  -2.99499989      -4.05138894E-25
  -2.99000001      -5.26307683E-25
  -2.98499990      -6.38185613E-25
  -2.98000002      -7.36686434E-25
  -2.97499990      -8.17913272E-25
  -2.97000003      -8.78299785E-25
  -2.96499991      -9.14742299E-25
  -2.96000004      -9.24730659E-25
  -2.95499992      -9.06463106E-25
  -2.95000005      -8.58946957E-25
  -2.94499993      -7.82076751E-25
  -2.94000006      -6.76686857E-25
  -2.93499994      -5.44580660E-25
  -2.93000007      -3.88523339E-25
  -2.92499995      -2.12207873E-25
  -2.92000008      -2.01858751E-26
  -2.91499996       1.82233279E-25
  -2.91000009       3.89113432E-25
  -2.90499997       5.94050028E-25
  -2.90000010       7.90353529E-25
  -2.89499998       9.71251759E-25
  -2.89000010       1.13010547E-24
  -2.88499999       1.26063325E-24
  -2.88000011       1.35713382E-24
  -2.87500000       1.41470637E-24
  -2.86999989       1.42944742E-24
  -2.86500001       1.39863776E-24
  -2.85999990       1.32089049E-24
  -2.85500002       1.19626773E-24
  -2.84999990       1.02635626E-24
  -2.84500003       8.14295852E-25
  -2.83999991       5.64759869E-25
  -2.83500004       2.83883085E-25
  -2.82999992      -2.08601124E-26
  -2.82500005      -3.40829252E-25
  -2.81999993      -6.66436398E-25
  -2.81500006      -9.87410194E-25
  -2.80999994      -1.29309034E-24
  -2.80500007      -1.57275573E-24
  -2.79999995      -1.81596747E-24
  -2.79500008      -2.01292316E-24
  -2.78999996      -2.15479960E-24
  -2.78500009      -2.23410082E-24
  -2.77999997      -2.24495318E-24
  -2.77500010      -2.18338851E-24
  -2.76999998      -2.04756283E-24
  -2.76500010      -1.83792245E-24
  -2.75999999      -1.55730994E-24
  -2.75500011      -1.21098521E-24
  -2.75000000      -8.06582961E-25
  -2.74499989      -3.53982916E-25
  -2.74000001       1.34895338E-25
  -2.73499990       6.46371277E-25
  -2.73000002       1.16536035E-24
  -2.72499990       1.67577959E-24
  -2.72000003       2.16101740E-24
  -2.71499991       2.60443690E-24
  -2.71000004       2.98990254E-24
  -2.70499992       3.30231729E-24
  -2.70000005       3.52814845E-24
  -2.69499993       3.65594510E-24
  -2.69000006       3.67677852E-24
  -2.68499994       3.58465653E-24
  -2.68000007       3.37684414E-24
  -2.67499995       3.05410754E-24
  -2.67000008       2.62084245E-24
  -2.66499996       2.08510531E-24
  -2.66000009       1.45853006E-24
  -2.65499997       7.56118247E-25
  -2.65000010      -4.07870593E-27
  -2.64499998      -8.01383727E-25
  -2.64000010      -1.61303704E-24
  -2.63499999      -2.41480440E-24
  -2.63000011      -3.18168094E-24
  -2.62500000      -3.88862593E-24
  -2.61999989      -4.51135747E-24
  -2.61500001      -5.02712498E-24
  -2.60999990      -5.41549974E-24
  -2.60500002      -5.65909210E-24
  -2.59999990      -5.74422755E-24
  -2.59500003      -5.66152219E-24
  -2.58999991      -5.40635763E-24
  -2.58500004      -4.97920602E-24
  -2.57999992      -4.38583037E-24
  -2.57500005      -3.63731575E-24
  -2.56999993      -2.74994387E-24
  -2.56500006      -1.74488814E-24
  -2.55999994      -6.47752228E-25
  -2.55500007       5.12037781E-25
  -2.54999995       1.70200290E-24
  -2.54500008       2.88749676E-24
  -2.53999996       4.03267746E-24
  -2.53500009       5.10157491E-24
  -2.52999997       6.05919407E-24
  -2.52500010       6.87262641E-24
  -2.51999998       7.51213071E-24
  -2.51500010       7.95216679E-24
  -2.50999999       8.17232682E-24
  -2.50500011       8.15815415E-24
  -2.50000000       7.90179013E-24
  -2.49499989       7.40244512E-24
  -2.49000001       6.66668165E-24
  -2.48499990       5.70845547E-24
  -2.48000002       4.54893959E-24
  -2.47499990       3.21613385E-24
  -2.47000003       1.74423102E-24
  -2.46499991       1.72773974E-25
  -2.46000004      -1.45436990E-24
  -2.45499992      -3.09022277E-24
  -2.45000005      -4.68600338E-24
  -2.44499993      -6.19258848E-24
  -2.44000006      -7.56199145E-24
  -2.43499994      -8.74887686E-24
  -2.43000007      -9.71200739E-24
  -2.42499995      -1.04156508E-23
  -2.42000008      -1.08308496E-23
  -2.41499996      -1.09364978E-23
  -2.41000009      -1.07202237E-23
  -2.40499997      -1.01790517E-23
  -2.40000010      -9.31977234E-24
  -2.39499998      -8.15901558E-24
  -2.39000010      -6.72303078E-24
  -2.38499999      -5.04718966E-24
  -2.38000011      -3.17516613E-24
  -2.37500000      -1.15781421E-24
  -2.36999989       9.48131330E-25
  -2.36500001       3.08166146E-24
  -2.35999990       5.17921618E-24
  -2.35500002       7.17655796E-24
  -2.34999990       9.01071557E-24
  -2.34500003       1.06219529E-23
  -2.33999991       1.19556532E-23
  -2.33500004       1.29642016E-23
  -2.32999992       1.36085243E-23
  -2.32500005       1.38596250E-23
  -2.31999993       1.36996835E-23
  -2.31500006       1.31228968E-23
  -2.30999994       1.21360026E-23
  -2.30500007       1.07584243E-23
  -2.29999995       9.02196078E-24
  -2.29500008       6.97019746E-24
  -2.28999996       4.65745648E-24
  -2.28500009       2.14742414E-24
  -2.27999997      -4.88548757E-25
  -2.27500010      -3.17340973E-24
  -2.26999998      -5.82662959E-24
  -2.26500010      -8.36655542E-24
  -2.25999999      -1.07128455E-23
  -2.25500011      -1.27890264E-23
  -2.25000000      -1.45248004E-23
  -2.24499989      -1.58584392E-23
  -2.24000001      -1.67388048E-23
  -2.23499990      -1.71272005E-23
  -2.23000002      -1.69988828E-23
  -2.22499990      -1.63440510E-23
  -2.22000003      -1.51686214E-23
  -2.21499991      -1.34943414E-23
  -2.21000004      -1.13585826E-23
  -2.20499992      -8.81353742E-24
  -2.20000005      -5.92501001E-24
  -2.19499993      -2.77076014E-24
  -2.19000006       5.61561679E-25
  -2.18499994       3.97681270E-24
  -2.18000007       7.37504956E-24
  -2.17499995       1.06544161E-23
  -2.17000008       1.37141133E-23
  -2.16499996       1.64574402E-23
  -2.16000009       1.87948193E-23
  -2.15499997       2.06465110E-23
  -2.15000010       2.19452758E-23
  -2.14499998       2.26385614E-23
  -2.14000010       2.26903675E-23
  -2.13499999       2.20826401E-23
  -2.13000011       2.08161429E-23
  -2.12500000       1.89107961E-23
  -2.11999989       1.64053944E-23
  -2.11500001       1.33568445E-23
  -2.10999990       9.83880022E-24
  -2.10500002       5.93977000E-24
  -2.09999990       1.76076890E-24
  -2.09500003      -2.58741269E-24
  -2.08999991      -6.98733310E-24
  -2.08500004      -1.13181463E-23
  -2.07999992      -1.54591573E-23
  -2.07500005      -1.92932658E-23
  -2.06999993      -2.27104172E-23
  -2.06500006      -2.56108584E-23
  -2.05999994      -2.79080971E-23
  -2.05500007      -2.95316170E-23
  -2.04999995      -3.04289904E-23
  -2.04500008      -3.05675207E-23
  -2.03999996      -2.99353812E-23
  -2.03500009      -2.85420225E-23
  -2.02999997      -2.64180761E-23
  -2.02500010      -2.36145449E-23
  -2.01999998      -2.02013915E-23
  -2.01500010      -1.62655908E-23
  -2.00999999      -1.19086292E-23
  -2.00500011      -7.24361350E-24
  -2.00000000      -2.39195781E-24
  -1.99500000       2.52014534E-24
  -1.99000001       7.36531423E-24
  -1.98500001       1.20188236E-23
  -1.98000002       1.63621395E-23
  -1.97500002       2.02863392E-23
  -1.97000003       2.36953416E-23
  -1.96500003       2.65085064E-23
  -1.96000004       2.86630117E-23
  -1.95500004       3.01155255E-23
  -1.95000005       3.08432402E-23
  -1.94500005       3.08443920E-23
  -1.94000006       3.01380806E-23
  -1.93499994       2.87633296E-23
  -1.92999995       2.67778266E-23
  -1.92499995       2.42557121E-23
  -1.91999996       2.12851538E-23
  -1.91499996       1.79654204E-23
  -1.90999997       1.44035857E-23
  -1.90499997       1.07110603E-23
  -1.89999998       7.00006453E-24
  -1.89499998       3.37995146E-24
  -1.88999999      -4.60717941E-26
  -1.88499999      -3.18432855E-24
  -1.88000000      -5.95334116E-24
  -1.87500000      -8.28641741E-24
  -1.87000000      -1.01334453E-23
  -1.86500001      -1.14623643E-23
  -1.86000001      -1.22597331E-23
  -1.85500002      -1.25310145E-23
  -1.85000002      -1.23000470E-23
  -1.84500003      -1.16078145E-23
  -1.84000003      -1.05109342E-23
  -1.83500004      -9.07936067E-24
  -1.83000004      -7.39390649E-24
  -1.82500005      -5.54326760E-24
  -1.82000005      -3.62090271E-24
  -1.81500006      -1.72178319E-24
  -1.80999994       6.08914522E-26
  -1.80499995       1.63885232E-24
  -1.79999995       2.93167277E-24
  -1.79499996       3.86950119E-24
  -1.78999996       4.39523359E-24
  -1.78499997       4.46636242E-24
  -1.77999997       4.05626045E-24
  -1.77499998       3.15484882E-24
  -1.76999998       1.76885630E-24
  -1.76499999      -7.86088244E-26
  -1.75999999      -2.34897495E-24
  -1.75500000      -4.98961938E-24
  -1.75000000      -7.93568512E-24
  -1.74500000      -1.11122379E-23
  -1.74000001      -1.44367636E-23
  -1.73500001      -1.78216979E-23
  -1.73000002      -2.11771919E-23
  -1.72500002      -2.44136799E-23
  -1.72000003      -2.74444425E-23