  -6.00000000       0.00000000    
  -5.99499989       0.00000000    
  -5.98999977       0.00000000    
  -5.98500013       0.00000000    
  -5.98000002       0.00000000    
  -5.97499990       0.00000000    
  -5.96999979       0.00000000    
  -5.96500015       0.00000000    
  -5.96000004       0.00000000    
  -5.95499992       0.00000000    
  -5.94999981       0.00000000    
  -5.94500017       0.00000000    
  -5.94000006       0.00000000    
  -5.93499994       0.00000000    
  -5.92999983       0.00000000    
  -5.92500019       0.00000000    
  -5.92000008       0.00000000    
  -5.91499996       0.00000000    
  -5.90999985       0.00000000    
  -5.90500021       0.00000000    
  -5.90000010       0.00000000    
  -5.89499998       0.00000000    
  -5.88999987       0.00000000    
  -5.88500023       0.00000000    
  -5.88000011       0.00000000    
  -5.87500000       0.00000000    
  -5.86999989       0.00000000    
  -5.86499977       0.00000000    
  -5.86000013       0.00000000    
  -5.85500002       0.00000000    
  -5.84999990       0.00000000    
  -5.84499979       0.00000000    
  -5.84000015       0.00000000    
  -5.83500004       0.00000000    
  -5.82999992       0.00000000    
  -5.82499981       0.00000000    
  -5.82000017       0.00000000    
  -5.81500006       0.00000000    
  -5.80999994       0.00000000    
  -5.80499983       0.00000000    
  -5.80000019       0.00000000    
  -5.79500008       0.00000000    
  -5.78999996       0.00000000    
  -5.78499985       0.00000000    
  -5.78000021       0.00000000    
  -5.77500010       0.00000000    
  -5.76999998       0.00000000    
  -5.76499987       0.00000000    
  -5.76000023       0.00000000    
  -5.75500011       0.00000000    
  -5.75000000       0.00000000    
  -5.74499989       0.00000000    
  -5.73999977       0.00000000    
  -5.73500013       0.00000000    
  -5.73000002       0.00000000    
  -5.72499990       0.00000000    
  -5.71999979       0.00000000    
  -5.71500015       0.00000000    
  -5.71000004       0.00000000    
  -5.70499992       0.00000000    
  -5.69999981       0.00000000    
  -5.69500017       0.00000000    
  -5.69000006       0.00000000    
  -5.68499994       0.00000000    
  -5.67999983       0.00000000    
  -5.67500019       0.00000000    
  -5.67000008       0.00000000    
  -5.66499996       0.00000000    
  -5.65999985       0.00000000    
  -5.65500021       0.00000000    
  -5.65000010       0.00000000    
  -5.64499998       0.00000000    
  -5.63999987       0.00000000    
  -5.63500023       0.00000000    
  -5.63000011       0.00000000    
  -5.62500000       0.00000000    
  -5.61999989       0.00000000    
  -5.61499977       0.00000000    
  -5.61000013       0.00000000    
  -5.60500002       0.00000000    
  -5.59999990       0.00000000    
  -5.59499979       0.00000000    
  -5.59000015       0.00000000    
  -5.58500004       0.00000000    
  -5.57999992       0.00000000    
  -5.57499981       0.00000000    
  -5.57000017       0.00000000    
  -5.56500006       0.00000000    
  -5.55999994       0.00000000    
  -5.55499983       0.00000000    
  -5.55000019       0.00000000    
  -5.54500008       0.00000000    
  -5.53999996       0.00000000    
  -5.53499985       0.00000000    
  -5.53000021       0.00000000    
  -5.52500010       0.00000000    
  -5.51999998       0.00000000    
  -5.51499987       0.00000000    
  -5.51000023       0.00000000    
  -5.50500011       0.00000000    
  -5.50000000       0.00000000    
  -5.49499989       0.00000000    
  -5.48999977       0.00000000    
  -5.48500013       0.00000000    
  -5.48000002       0.00000000    
  -5.47499990       0.00000000    
  -5.46999979       0.00000000    
  -5.46500015       0.00000000    
  -5.46000004       0.00000000    
  -5.45499992       0.00000000    
  -5.44999981       0.00000000    
  -5.44500017       0.00000000    
  -5.44000006       0.00000000    
  -5.43499994       0.00000000    
  -5.42999983       0.00000000    
  -5.42500019       0.00000000    
  -5.42000008       0.00000000    
  -5.41499996       0.00000000    
  -5.40999985       0.00000000    
  -5.40500021       0.00000000    
  -5.40000010       0.00000000    
  -5.39499998       0.00000000    
  -5.38999987       0.00000000    
  -5.38500023       0.00000000    
  -5.38000011       0.00000000    
  -5.37500000       0.00000000    
  -5.36999989       0.00000000    
  -5.36499977       0.00000000    
  -5.36000013       0.00000000    
  -5.35500002       0.00000000    
  -5.34999990       0.00000000    
  -5.34499979       0.00000000    
  -5.34000015       0.00000000    
  -5.33500004       0.00000000    
  -5.32999992       0.00000000    
  -5.32499981       0.00000000    
  -5.32000017       0.00000000    
  -5.31500006       0.00000000    
  -5.30999994       0.00000000    
  -5.30499983       0.00000000    
  -5.30000019       0.00000000    
  -5.29500008       0.00000000    
  -5.28999996       0.00000000    
  -5.28499985       0.00000000    
  -5.28000021       0.00000000    
  -5.27500010       0.00000000    
  -5.26999998       0.00000000    
  -5.26499987       0.00000000    
  -5.26000023       0.00000000    
  -5.25500011       0.00000000    
  -5.25000000       0.00000000    
  -5.24499989       0.00000000    
  -5.23999977       0.00000000    
  -5.23500013       0.00000000    
  -5.23000002       0.00000000    
  -5.22499990       0.00000000    
  -5.21999979       0.00000000    
  -5.21500015       0.00000000    
  -5.21000004       0.00000000    
  -5.20499992       0.00000000    
  -5.19999981       0.00000000    
  -5.19500017       0.00000000    
  -5.19000006       0.00000000    
  -5.18499994       0.00000000    
  -5.17999983       0.00000000    
  -5.17500019       0.00000000    
  -5.17000008       0.00000000    
  -5.16499996       0.00000000    
  -5.15999985       0.00000000    
  -5.15500021       0.00000000    
  -5.15000010       0.00000000    
  -5.14499998       0.00000000    
  -5.13999987       0.00000000    
  -5.13500023       0.00000000    
  -5.13000011       0.00000000    
  -5.12500000       0.00000000    
  -5.11999989       0.00000000    
  -5.11499977       0.00000000    
  -5.11000013       0.00000000    
  -5.10500002       0.00000000    
  -5.09999990       0.00000000    
  -5.09499979       0.00000000    
  -5.09000015       0.00000000    
  -5.08500004       0.00000000    
  -5.07999992       0.00000000    
  -5.07499981       0.00000000    
  -5.07000017       0.00000000    
  -5.06500006       0.00000000    
  -5.05999994       0.00000000    
  -5.05499983       0.00000000    
  -5.05000019       0.00000000    
  -5.04500008       0.00000000    
  -5.03999996       0.00000000    
  -5.03499985       0.00000000    
  -5.03000021       0.00000000    
  -5.02500010       0.00000000    
  -5.01999998       0.00000000    
  -5.01499987       0.00000000    
  -5.01000023       0.00000000    
  -5.00500011       0.00000000    
  -5.00000000       0.00000000    
  -4.99499989       0.00000000    
  -4.98999977       0.00000000    
  -4.98500013       0.00000000    
  -4.98000002       0.00000000    
  -4.97499990       0.00000000    
  -4.96999979       0.00000000    
  -4.96500015       0.00000000    
  -4.96000004       0.00000000    
  -4.95499992       0.00000000    
  -4.94999981       0.00000000    
  -4.94500017       0.00000000    
  -4.94000006       0.00000000    
  -4.93499994       0.00000000    
  -4.92999983       0.00000000    
  -4.92500019       0.00000000    
  -4.92000008       0.00000000    
  -4.91499996       0.00000000    
  -4.90999985       0.00000000    
  -4.90500021       0.00000000    
  -4.90000010       0.00000000    
  -4.89499998       0.00000000    
  -4.88999987       0.00000000    
  -4.88500023       0.00000000    
  -4.88000011       0.00000000    
  -4.87500000       0.00000000    
  -4.86999989       0.00000000    
  -4.86499977       0.00000000    
  -4.86000013       0.00000000    
  -4.85500002       0.00000000    
  -4.84999990      -0.00000000    
  -4.84499979      -0.00000000    
  -4.84000015      -0.00000000    
  -4.83500004       0.00000000    
  -4.82999992       0.00000000    
  -4.82499981       0.00000000    
  -4.82000017      -0.00000000    
  -4.81500006      -0.00000000    
  -4.80999994      -0.00000000    
  -4.80499983      -0.00000000    
  -4.80000019      -0.00000000    
  -4.79500008      -0.00000000    
  -4.78999996      -0.00000000    
  -4.78499985      -0.00000000    
  -4.78000021      -0.00000000    
  -4.77500010      -0.00000000    
  -4.76999998      -0.00000000    
  -4.76499987      -0.00000000    
  -4.76000023      -0.00000000    
  -4.75500011       0.00000000    
  -4.75000000       0.00000000    
  -4.74499989       0.00000000    
  -4.73999977       0.00000000    
  -4.73500013       0.00000000    
  -4.73000002       0.00000000    
  -4.72499990       0.00000000    
  -4.71999979       0.00000000    
  -4.71500015       0.00000000    
  -4.71000004       0.00000000    
  -4.70499992       0.00000000    
  -4.69999981       0.00000000    
  -4.69500017       0.00000000    
  -4.69000006       0.00000000    
  -4.68499994       0.00000000    
  -4.67999983       0.00000000    
  -4.67500019       0.00000000    
  -4.67000008       0.00000000    
  -4.66499996       0.00000000    
  -4.65999985       0.00000000    
  -4.65500021      -0.00000000    
  -4.65000010      -0.00000000    
  -4.64499998      -0.00000000    
  -4.63999987      -0.00000000    
  -4.63500023      -1.18842385E-38
  -4.63000011      -1.44890211E-38
  -4.62500000      -1.77351683E-38
  -4.61999989      -2.09097511E-38
  -4.61499977      -2.19670448E-38
  -4.61000013      -2.43841711E-38
  -4.60500002      -2.64916596E-38
  -4.59999990      -2.75999970E-38
  -4.59499979      -2.86824832E-38
  -4.59000015      -2.99476427E-38
  -4.58500004      -2.67955087E-38
  -4.57999992      -1.99445633E-38
  -4.57499981      -2.58583147E-38
  -4.57000017      -2.34109862E-38
  -4.56500006      -1.19130828E-38
  -4.55999994      -0.00000000    
  -4.55499983       0.00000000    
  -4.55000019       0.00000000    
  -4.54500008       2.09987546E-38
  -4.53999996       3.11670471E-38
  -4.53499985       4.13771935E-38
  -4.53000021       5.11897020E-38
  -4.52500010       6.01048749E-38
  -4.51999998       6.75731343E-38
  -4.51499987       7.30115960E-38
  -4.51000023       7.53333066E-38
  -4.50500011       7.54006698E-38
  -4.50000000       7.11766406E-38
  -4.49499989       6.26266404E-38
  -4.48999977       4.83976988E-38
  -4.48500013       2.77811652E-38
  -4.48000002       0.00000000    
  -4.47499990      -2.15946637E-38
  -4.46999979      -5.54428614E-38
  -4.46500015      -9.37789906E-38
  -4.46000004      -1.35834474E-37
  -4.45499992      -1.80556365E-37
  -4.44999981      -2.26595993E-37
  -4.44500017      -2.72311506E-37
  -4.44000006      -3.15796151E-37
  -4.43499994      -3.54911750E-37
  -4.42999983      -3.87341092E-37
  -4.42500019      -4.10659371E-37
  -4.42000008      -4.22417454E-37
  -4.41499996      -4.20244701E-37
  -4.40999985      -4.01964236E-37
  -4.40500021      -3.69591820E-37
  -4.40000010      -3.10103673E-37
  -4.39499998      -2.34299547E-37
  -4.38999987      -1.38203666E-37
  -4.38500023      -2.25509434E-38
  -4.38000011       1.10988343E-37
  -4.37500000       2.59726814E-37
  -4.36999989       4.19925474E-37
  -4.36499977       5.86787566E-37
  -4.36000013       7.54505997E-37
  -4.35500002       9.16362472E-37
  -4.34999990       1.06488244E-36
  -4.34499979       1.19204770E-36
  -4.34000015       1.28957000E-36
  -4.33500004       1.34921518E-36
  -4.32999992       1.36317759E-36
  -4.32499981       1.32449574E-36
  -4.32000017       1.22748687E-36
  -4.31500006       1.06819749E-36
  -4.30999994       8.45605285E-37
  -4.30499983       5.58186594E-37
  -4.30000019       2.11932312E-37
  -4.29500008      -1.87057639E-37
  -4.28999996      -6.28582044E-37
  -4.28499985      -1.09908238E-36
  -4.28000021      -1.58176382E-36
  -4.27500010      -2.05690705E-36
  -4.26999998      -2.50234077E-36
  -4.26499987      -2.89412176E-36
  -4.26000023      -3.20738699E-36
  -4.25500011      -3.41738177E-36
  -4.25000000      -3.50064894E-36
  -4.24499989      -3.43631961E-36
  -4.23999977      -3.20749533E-36
  -4.23500013      -2.80263657E-36
  -4.23000002      -2.21690888E-36
  -4.22499990      -1.45341816E-36
  -4.21999979      -5.24240464E-37
  -4.21500015       5.48832332E-37
  -4.21000004       1.73388968E-36
  -4.20499992       2.98892649E-36
  -4.19999981       4.26238169E-36
  -4.19500017       5.49423075E-36
  -4.19000006       6.61765150E-36
  -4.18499994       7.56128132E-36
  -4.17999983       8.25206648E-36
  -4.17500019       8.61863002E-36
  -4.17000008       8.59509143E-36
  -4.16499996       8.12521727E-36
  -4.15999985       7.16673665E-36
  -4.15500021       5.69566976E-36
  -4.15000010       3.71040874E-36
  -4.14499998       1.23534706E-36
  -4.13999987      -1.67622112E-36
  -4.13500023      -4.94013841E-36
  -4.13000011      -8.44070520E-36
  -4.12500000      -1.20314379E-35
  -4.11999989      -1.55375041E-35
  -4.11499977      -1.87599672E-35
  -4.11000013      -2.14819282E-35
  -4.10500002      -2.34765880E-35
  -4.09999990      -2.45170928E-35
  -4.09499979      -2.43880496E-35
  -4.09000015      -2.28983229E-35
  -4.08500004      -1.98947641E-35
  -4.07999992      -1.52762938E-35
  -4.07499981      -9.00772841E-36
  -4.07000017      -1.13262332E-36
  -4.06500006       8.21567236E-36
  -4.05999994       1.88056051E-35
  -4.05499983       3.03024536E-35
  -4.05000019       4.22676745E-35
  -4.04500008       5.41632957E-35
  -4.03999996       6.53619571E-35
  -4.03499985       7.51629570E-35
  -4.03000021       8.28149086E-35
  -4.02500010       8.75442415E-35
  -4.01999998       8.85901101E-35
  -4.01499987       8.52439518E-35
  -4.01000023       7.68937691E-35
  -4.00500011       6.30706271E-35
  -4.00000000       4.34963216E-35
  -3.99499989       1.81295208E-35
  -3.99000001      -1.27915295E-35
  -3.98499990      -4.87130082E-35
  -3.98000002      -8.87384301E-35
  -3.97499990      -1.31613731E-34
  -3.97000003      -1.75727142E-34
  -3.96499991      -2.19125853E-34
  -3.96000004      -2.59552229E-34
  -3.95499992      -2.94500549E-34
  -3.95000005      -3.21294978E-34
  -3.94499993      -3.37189062E-34
  -3.94000006      -3.39484238E-34
  -3.93499994      -3.25667542E-34
  -3.93000007      -2.93561898E-34
  -3.92499995      -2.41486832E-34
  -3.92000008      -1.68421479E-34
  -3.91499996      -7.41649347E-35
  -3.91000009       4.05155279E-35
  -3.90499997       1.73757729E-34
  -3.90000010       3.22505852E-34
  -3.89499998       4.82452728E-34
  -3.89000010       6.48029878E-34
  -3.88499999       8.12452563E-34
  -3.88000011       9.67831794E-34
  -3.87500000       1.10535040E-33
  -3.86999989       1.21551681E-33
  -3.86500001       1.28848360E-33
  -3.85999990       1.31444146E-33
  -3.85500002       1.28407072E-33
  -3.84999990       1.18904514E-33
  -3.84500003       1.02257447E-33
  -3.83999991       7.79962634E-34
  -3.83500004       4.59163430E-34
  -3.82999992       6.13074602E-35
  -3.82500005      -4.08829267E-34
  -3.81999993      -9.42444882E-34
  -3.81500006      -1.52644563E-33
  -3.80999994      -2.14333395E-33
  -3.80500007      -2.77126650E-33
  -3.79999995      -3.38431619E-33
  -3.79500008      -3.95295681E-33
  -3.78999996      -4.44477520E-33
  -3.78500009      -4.82543186E-33
  -3.77999997      -5.05984123E-33
  -3.77500010      -5.11358483E-33
  -3.76999998      -4.95449930E-33
  -3.76500010      -4.55442347E-33
  -3.75999999      -3.89104022E-33
  -3.75500011      -2.94974842E-33
  -3.75000000      -1.72548777E-33
  -3.74499989      -2.24447422E-34
  -3.74000001       1.53446250E-33
  -3.73499990       3.51844377E-33
  -3.73000002       5.68006915E-33
  -3.72499990       7.95702926E-33
  -3.72000003       1.02724938E-32
  -3.71499991       1.25361227E-32
  -3.71000004       1.46458015E-32
  -3.70499992       1.64901316E-32
  -3.70000005       1.79516678E-32
  -3.69499993       1.89108888E-32
  -3.69000006       1.92508565E-32
  -3.68499994       1.88624188E-32
  -3.68000007       1.76498523E-32
  -3.67499995       1.55367998E-32
  -3.67000008       1.24722419E-32
  -3.66499996       8.43627096E-33
  -3.66000009       3.44544594E-33
  -3.65499997      -2.44259443E-33
  -3.65000010      -9.12555219E-33
  -3.64499998      -1.64542055E-32
  -3.64000010      -2.42317346E-32
  -3.63499999      -3.22148752E-32
  -3.63000011      -4.01171243E-32
  -3.62500000      -4.76142539E-32
  -3.61999989      -5.43518671E-32
  -3.61500001      -5.99555016E-32
  -3.60999990      -6.40427542E-32
  -3.60500002      -6.62375139E-32
  -3.59999990      -6.61856805E-32
  -3.59500003      -6.35724977E-32
  -3.58999991      -5.81402974E-32
  -3.58500004      -4.97065838E-32
  -3.57999992      -3.81815200E-32
  -3.57500005      -2.35840166E-32
  -3.56999993      -6.05569213E-33
  -3.56500006       1.41282284E-32
  -3.55999994       3.65518176E-32
  -3.55500007       6.06559963E-32
  -3.54999995       8.57414807E-32
  -3.54500008       1.10977540E-31
  -3.53999996       1.35417290E-31
  -3.53500009       1.58019155E-31
  -3.52999997       1.77675607E-31
  -3.52500010       1.93247204E-31
  -3.51999998       2.03602933E-31
  -3.51500010       2.07665442E-31
  -3.50999999       2.04459539E-31
  -3.50500011       1.93163168E-31
  -3.50000000       1.73158770E-31
  -3.49499989       1.44083176E-31
  -3.49000001       1.05874014E-31
  -3.48499990       5.88098766E-32
  -3.48000002       3.54266924E-33
  -3.47499990      -5.88807824E-32
  -3.47000003      -1.27009590E-31
  -3.46499991      -1.98994243E-31
  -3.46000004      -2.72608190E-31
  -3.45499992      -3.45286842E-31
  -3.45000005      -4.14183601E-31
  -3.44499993      -4.76244765E-31
  -3.44000006      -5.28300310E-31
  -3.43499994      -5.67171134E-31
  -3.43000007      -5.89789150E-31
  -3.42499995      -5.93327670E-31
  -3.42000008      -5.75337576E-31
  -3.41499996      -5.33885883E-31
  -3.41000009      -4.67691069E-31
  -3.40499997      -3.76249411E-31
  -3.40000010      -2.59945882E-31
  -3.39499998      -1.20144856E-31
  -3.39000010       4.07459256E-32
  -3.38499999       2.19244296E-31
  -3.38000011       4.10798976E-31
  -3.37500000       6.09837535E-31
  -3.36999989       8.09856833E-31
  -3.36500001       1.00356175E-30
  -3.35999990       1.18304695E-30
  -3.35500002       1.34002519E-30
  -3.34999990       1.46609499E-30
  -3.34500003       1.55304273E-30
  -3.33999991       1.59317232E-30
  -3.33500004       1.57965244E-30
  -3.32999992       1.50687100E-30
  -3.32500005       1.37078130E-30
  -3.31999993       1.16922981E-30
  -3.31500006       9.02247774E-31
  -3.30999994       5.72294409E-31
  -3.30500007       1.84434253E-31
  -3.29999995      -2.53563841E-31
  -3.29500008      -7.31218377E-31
  -3.28999996      -1.23542528E-30
  -3.28500009      -1.75066092E-30
  -3.27999997      -2.25929262E-30
  -3.27500010      -2.74201078E-30
  -3.26999998      -3.17835316E-30
  -3.26500010      -3.54735080E-30
  -3.25999999      -3.82824769E-30
  -3.25500011      -4.00129024E-30
  -3.25000000      -4.04856993E-30
  -3.24499989      -3.95488097E-30
  -3.24000001      -3.70857221E-30
  -3.23499990      -3.30235258E-30
  -3.23000002      -2.73402307E-30
  -3.22499990      -2.00709247E-30
  -3.22000003      -1.13124724E-30
  -3.21499991      -1.22640195E-31
  -3.21000004       9.96033885E-31
  -3.20499992       2.19568784E-30
  -3.20000005       3.44126253E-30
  -3.19499993       4.69238838E-30
  -3.19000006       5.90433547E-30
  -3.18499994       7.02920720E-30
  -3.18000007       8.01737552E-30
  -3.17499995       8.81912888E-30
  -3.17000008       9.38649430E-30
  -3.16499996       9.67516486E-30
  -3.16000009       9.64651064E-30
  -3.15499997       9.26955048E-30
  -3.15000010       8.52287421E-30
  -3.14499998       7.39636844E-30
  -3.14000010       5.89272986E-30
  -3.13499999       4.02863731E-30
  -3.13000011       1.83553180E-30
  -3.12500000      -6.40081877E-31
  -3.11999989      -3.33682372E-30
  -3.11500001      -6.17924015E-30
  -3.10999990      -9.07916779E-30
  -3.10500002      -1.19376970E-29
  -3.09999990      -1.46477595E-29
  -3.09500003      -1.70971978E-29
  -3.08999991      -1.91723904E-29
  -3.08500004      -2.07622395E-29
  -3.07999992      -2.17624622E-29
  -3.07500005      -2.20800435E-29
  -3.06999993      -2.16376965E-29
  -3.06500006      -2.03781925E-29
  -3.05999994      -1.82683498E-29
  -3.05500007      -1.53025335E-29
  -3.04999995      -1.15055077E-29
  -3.04500008      -6.93437546E-30
  -3.03999996      -1.67960670E-30
  -3.03500009       4.13508782E-30
  -3.02999997       1.03541409E-29
  -3.02500010       1.67927083E-29
  -3.01999998       2.32406450E-29
  -3.01500010       2.94677423E-29
  -3.00999999       3.52301487E-29
  -3.00500011       4.02778998E-29
  -3.00000000       4.43633900E-29
  -2.99499989       4.72504914E-29
  -2.99000001       4.87240956E-29
  -2.98499990       4.85998130E-29
  -2.98000002       4.67334123E-29
  -2.97499990       4.30297166E-29
  -2.97000003       3.74503758E-29
  -2.96499991       3.00205744E-29
  -2.96000004       2.08337261E-29
  -2.95499992       1.00544286E-29
  -2.95000005      -2.08109840E-30
  -2.94499993      -1.52669550E-29
  -2.94000006      -2.91322362E-29
  -2.93499994      -4.32485173E-29
  -2.93000007      -5.71399401E-29
  -2.92499995      -7.02959916E-29
  -2.92000008      -8.21864664E-29
  -2.91499996      -9.22789231E-29
  -2.91000009      -1.00056887E-28
  -2.90499997      -1.05040051E-28
  -2.90000010      -1.06804082E-28
  -2.89499998      -1.05000858E-28
  -2.89000010      -9.93771185E-29
  -2.88499999      -8.97916749E-29
  -2.88000011      -7.62302692E-29
  -2.87500000      -5.88166727E-29
  -2.86999989      -3.78202266E-29
  -2.86500001      -1.36589013E-29
  -2.85999990       1.31030072E-29
  -2.85500002       4.17622591E-29
  -2.84999990       7.14895806E-29
  -2.84500003       1.01348320E-28
  -2.83999991       1.30318351E-28
  -2.83500004       1.57324559E-28
  -2.82999992       1.81270368E-28
  -2.82500005       2.01074068E-28
  -2.81999993       2.15707669E-28
  -2.81500006       2.24237516E-28
  -2.80999994       2.25864566E-28
  -2.80500007       2.19962890E-28
  -2.79999995       2.06115695E-28
  -2.79500008       1.84146756E-28
  -2.78999996       1.54145715E-28
  -2.78500009       1.16486189E-28
  -2.77999997       7.18355499E-29
  -2.77500010       2.11549712E-29
  -2.76999998      -3.43108843E-29
  -2.76500010      -9.30545192E-29
  -2.75999999      -1.53337294E-28
  -2.75500011      -2.13232126E-28
  -2.75000000      -2.70674937E-28
  -2.74499989      -3.23525512E-28
  -2.74000001      -3.69636560E-28
  -2.73499990      -4.06925982E-28
  -2.73000002      -4.33455475E-28
  -2.72499990      -4.47506915E-28
  -2.72000003      -4.47659208E-28
  -2.71499991      -4.32859351E-28
  -2.71000004      -4.02486858E-28
  -2.70499992      -3.56407058E-28
  -2.70000005      -2.95012023E-28
  -2.69499993      -2.19246444E-28
  -2.69000006      -1.30615401E-28
  -2.68499994      -3.11743900E-29
  -2.68000007       7.65013980E-29
  -2.67499995       1.89368290E-28
  -2.67000008       3.03983703E-28
  -2.66499996       4.16596462E-28
  -2.66000009       5.23253307E-28
  -2.65499997       6.19920593E-28
  -2.65000010       7.02616944E-28
  -2.64499998       7.67554053E-28
  -2.64000010       8.11280367E-28
  -2.63499999       8.30824030E-28
  -2.63000011       8.23829052E-28
  -2.62500000       7.88679194E-28
  -2.61999989       7.24605623E-28
  -2.61500001       6.31773296E-28
  -2.60999990       5.11339360E-28
  -2.60500002       3.65484279E-28
  -2.59999990       1.97405893E-28
  -2.59500003       1.12817914E-29
  -2.58999991      -1.87806902E-28
  -2.58500004      -3.93988428E-28
  -2.57999992      -6.00746276E-28
  -2.57500005      -8.01098553E-28
  -2.56999993      -9.87807831E-28
  -2.56500006      -1.15360835E-27
  -2.55999994      -1.29145524E-27
  -2.55500007      -1.39477965E-27
  -2.54999995      -1.45774639E-27
  -2.54500008      -1.47550366E-27
  -2.53999996      -1.44441164E-27
  -2.53500009      -1.36225204E-27
  -2.52999997      -1.22839664E-27
  -2.52500010      -1.04393540E-27
  -2.51999998      -8.11750583E-28
  -2.51500010      -5.36541453E-28
  -2.50999999      -2.24779063E-28
  -2.50500011       1.15393970E-28
  -2.50000000       4.74334301E-28
  -2.49499989       8.41126792E-28
  -2.49000001       1.20387310E-27
  -2.48499990       1.55003358E-27
  -2.48000002       1.86680948E-27
  -2.47499990       2.14156669E-27
  -2.47000003       2.36226728E-27
  -2.46499991       2.51792595E-27
  -2.46000004       2.59904073E-27
  -2.45499992       2.59801690E-27
  -2.45000005       2.50953872E-27
  -2.44499993       2.33090043E-27
  -2.44000006       2.06225882E-27
  -2.43499994       1.70680958E-27
  -2.43000007       1.27086917E-27
  -2.42499995       7.63856364E-28
  -2.42000008       1.98171077E-28
  -2.41499996      -4.11043524E-28
  -2.41000009      -1.04623563E-27
  -2.40499997      -1.68788808E-27
  -2.40000010      -2.31505773E-27
  -2.39499998      -2.90598774E-27
  -2.39000010      -3.43878528E-27
  -2.38499999      -3.89215574E-27
  -2.38000011      -4.24614089E-27
  -2.37500000      -4.48287196E-27
  -2.36999989      -4.58730050E-27
  -2.36500001      -4.54785322E-27
  -2.35999990      -4.35703555E-27
  -2.35500002      -4.01191622E-27
  -2.34999990      -3.51450129E-27
  -2.34500003      -2.87194423E-27
  -2.33999991      -2.09661568E-27
  -2.33500004      -1.20599335E-27
  -2.32999992      -2.22375094E-28
  -2.32500005       8.27590682E-28
  -2.31999993       1.91352888E-27
  -2.31500006       3.00214249E-27
  -2.30999994       4.05814740E-27
  -2.30500007       5.04532593E-27
  -2.29999995       5.92767379E-27
  -2.29500008       6.67060242E-27
  -2.28999996       7.24216681E-27
  -2.28500009       7.61423491E-27
  -2.27999997       7.76366088E-27
  -2.27500010       7.67329702E-27
  -2.26999998       7.33288890E-27
  -2.26500010       6.73977412E-27
  -2.25999999       5.89938419E-27
  -2.25500011       4.82549220E-27
  -2.25000000       3.54019859E-27
  -2.24499989       2.07364107E-27
  -2.24000001       4.63423956E-28
  -2.23499990      -1.24621948E-27
  -2.23000002      -3.00555793E-27
  -2.22499990      -4.76068312E-27
  -2.22000003      -6.45508662E-27
  -2.21499991      -8.03135821E-27
  -2.21000004      -9.43304232E-27
  -2.20499992      -1.06065045E-26
  -2.20000005      -1.15028623E-26
  -2.19499993      -1.20797739E-26
  -2.19000006      -1.23031679E-26
  -2.18499994      -1.21487599E-26
  -2.18000007      -1.16033042E-26
  -2.17499995      -1.06655628E-26
  -2.17000008      -9.34691781E-27
  -2.16499996      -7.67158679E-27
  -2.16000009      -5.67645780E-27
  -2.15499997      -3.41045562E-27
  -2.15000010      -9.33510859E-28
  -2.14499998       1.68488094E-27
  -2.14000010       4.36749065E-27
  -2.13499999       7.03152169E-27
  -2.13000011       9.59107566E-27
  -2.12500000       1.19598000E-26
  -2.11999989       1.40536341E-26
  -2.11500001       1.57937642E-26
  -2.10999990       1.71093037E-26
  -2.10500002       1.79400421E-26
  -2.09999990       1.82388216E-26
  -2.09500003       1.79736318E-26
  -2.08999991       1.71293442E-26
  -2.08500004       1.57088830E-26
  -2.07999992       1.37339174E-26
  -2.07500005       1.12449318E-26
  -2.06999993       8.30067563E-27
  -2.06500006       4.97704633E-27
  -2.05999994       1.36526853E-27
  -2.05500007      -2.43041555E-27
  -2.04999995      -6.29566854E-27
  -2.04500008      -1.01093357E-26
  -2.03999996      -1.37471277E-26
  -2.03500009      -1.70856040E-26
  -2.02999997      -2.00062167E-26
  -2.02500010      -2.23993402E-26
  -2.01999998      -2.41682453E-26
  -2.01500010      -2.52327776E-26
  -2.00999999      -2.55325679E-26
  -2.00500011      -2.50298016E-26
  -2.00000000      -2.37113038E-26
  -1.99500000      -2.15899027E-26
  -1.99000001      -1.87049983E-26
  -1.98500001      -1.51222371E-26
  -1.98000002      -1.09323626E-26
  -1.97500002      -6.24914616E-27
  -1.97000003      -1.20653107E-27
  -1.96500003       4.04510077E-27
  -1.96000004       9.34320077E-27
  -1.95500004       1.45180112E-26
  -1.95000005       1.93977892E-26
  -1.94500005       2.38145259E-26
  -1.94000006       2.76095123E-26
  -1.93499994       3.06388953E-26
  -1.92999995       3.27789979E-26
  -1.92499995       3.39309721E-26
  -1.91999996       3.40250623E-26
  -1.91499996       3.30237790E-26
  -1.90999997       3.09243243E-26
  -1.90499997       2.77597780E-26
  -1.89999998       2.35992870E-26
  -1.89499998       1.85469319E-26
  -1.88999999       1.27394781E-26
  -1.88499999       6.34291931E-27
  -1.88000000      -4.52064965E-28
  -1.87500000      -7.43562571E-27
  -1.87000000      -1.43850404E-26
  -1.86500001      -2.10717675E-26
  -1.86000001      -2.72686905E-26
  -1.85500002      -3.27579637E-26
  -1.85000002      -3.73382534E-26
  -1.84500003      -4.08322478E-26
  -1.84000003      -4.30930030E-26
  -1.83500004      -4.40100137E-26
  -1.83000004      -4.35140020E-26
  -1.82500005      -4.15803961E-26
  -1.82000005      -3.82315860E-26
  -1.81500006      -3.35375678E-26
  -1.80999994      -2.76151114E-26
  -1.80499995      -2.06251613E-26
  -1.79999995      -1.27688793E-26
  -1.79499996      -4.28196896E-27
  -1.78999996       4.57209875E-27
  -1.78499997       1.35101736E-26
  -1.77999997       2.22383988E-26
  -1.77499998       3.04616728E-26
  -1.76999998       3.78936701E-26
  -1.76499999       4.42667386E-26
  -1.75999999       4.93412220E-26
  -1.75500000       5.29148235E-26
  -1.75000000       5.48300176E-26
  -1.74500000       5.49809119E-26
  -1.74000001       5.33181225E-26
  -1.73500001       4.98521574E-26
  -1.73000002       4.46546086E-26
  -1.72500002       3.78574164E-26
  -1.72000003       2.96499812E-26