  -6.00000000       4.96881758E-10
  -5.99499989       5.16155618E-10
  -5.98999977       5.35330169E-10
  -5.98500013       5.54412405E-10
  -5.98000002       5.73415648E-10
  -5.97499990       5.92358496E-10
  -5.96999979       6.11266038E-10
  -5.96500015       6.30167474E-10
  -5.96000004       6.49096943E-10
  -5.95499992       6.68091804E-10
  -5.94999981       6.87192636E-10
  -5.94500017       7.06441849E-10
  -5.94000006       7.25883520E-10
  -5.93499994       7.45561557E-10
  -5.92999983       7.65519870E-10
  -5.92500019       7.85801091E-10
  -5.92000008       8.06446410E-10
  -5.91499996       8.27494906E-10
  -5.90999985       8.48982329E-10
  -5.90500021       8.70942818E-10
  -5.90000010       8.93406571E-10
  -5.89499998       9.16401066E-10
  -5.88999987       9.39951450E-10
  -5.88500023       9.64080704E-10
  -5.88000011       9.88809146E-10
  -5.87500000       1.01415643E-09
  -5.86999989       1.04014153E-09
  -5.86499977       1.06678344E-09
  -5.86000013       1.09410225E-09
  -5.85500002       1.12212017E-09
  -5.84999990       1.15086085E-09
  -5.84499979       1.18035293E-09
  -5.84000015       1.21062815E-09
  -5.83500004       1.24172328E-09
  -5.82999992       1.27368083E-09
  -5.82499981       1.30654887E-09
  -5.82000017       1.34038247E-09
  -5.81500006       1.37524148E-09
  -5.80999994       1.41119427E-09
  -5.80499983       1.44831436E-09
  -5.80000019       1.48668278E-09
  -5.79500008       1.52638513E-09
  -5.78999996       1.56751356E-09
  -5.78499985       1.61016478E-09
  -5.78000021       1.65444081E-09
  -5.77500010       1.70044667E-09
  -5.76999998       1.74829018E-09
  -5.76499987       1.79808368E-09
  -5.76000023       1.84993909E-09
  -5.75500011       1.90397076E-09
  -5.75000000       1.96029415E-09
  -5.74499989       2.01902406E-09
  -5.73999977       2.08027551E-09
  -5.73500013       2.14416307E-09
  -5.73000002       2.21080132E-09
  -5.72499990       2.28030328E-09
  -5.71999979       2.35278330E-09
  -5.71500015       2.42835330E-09
  -5.71000004       2.50712762E-09
  -5.70499992       2.58922039E-09
  -5.69999981       2.67474598E-09
  -5.69500017       2.76382250E-09
  -5.69000006       2.85656876E-09
  -5.68499994       2.95310865E-09
  -5.67999983       3.05356873E-09
  -5.67500019       3.15808291E-09
  -5.67000008       3.26678617E-09
  -5.66499996       3.37982642E-09
  -5.65999985       3.49735063E-09
  -5.65500021       3.61952135E-09
  -5.65000010       3.74650311E-09
  -5.64499998       3.87847399E-09
  -5.63999987       4.01561673E-09
  -5.63500023       4.15812673E-09
  -5.63000011       4.30620473E-09
  -5.62500000       4.46006432E-09
  -5.61999989       4.61992888E-09
  -5.61499977       4.78602535E-09
  -5.61000013       4.95859664E-09
  -5.60500002       5.13788967E-09
  -5.59999990       5.32416156E-09
  -5.59499979       5.51767654E-09
  -5.59000015       5.71870684E-09
  -5.58500004       5.92753402E-09
  -5.57999992       6.14444096E-09
  -5.57499981       6.36972564E-09
  -5.57000017       6.60368693E-09
  -5.56500006       6.84663348E-09
  -5.55999994       7.09887793E-09
  -5.55499983       7.36074046E-09
  -5.55000019       7.63255326E-09
  -5.54500008       7.91464583E-09
  -5.53999996       8.20736457E-09
  -5.53499985       8.51106030E-09
  -5.53000021       8.82608830E-09
  -5.52500010       9.15282516E-09
  -5.51999998       9.49164658E-09
  -5.51499987       9.84294157E-09
  -5.51000023       1.02071160E-08
  -5.50500011       1.05845839E-08
  -5.50000000       1.09757696E-08
  -5.49499989       1.13811174E-08
  -5.48999977       1.18010952E-08
  -5.48500013       1.22361685E-08
  -5.48000002       1.26868258E-08
  -5.47499990       1.31535831E-08
  -5.46999979       1.36369724E-08
  -5.46500015       1.41375391E-08
  -5.46000004       1.46558463E-08
  -5.45499992       1.51924908E-08
  -5.44999981       1.57480802E-08
  -5.44500017       1.63232379E-08
  -5.44000006       1.69186336E-08
  -5.43499994       1.75349353E-08
  -5.42999983       1.81728392E-08
  -5.42500019       1.88330791E-08
  -5.42000008       1.95163938E-08
  -5.41499996       2.02235597E-08
  -5.40999985       2.09553637E-08
  -5.40500021       2.17126441E-08
  -5.40000010       2.24962289E-08
  -5.39499998       2.33069954E-08
  -5.38999987       2.41458427E-08
  -5.38500023       2.50136853E-08
  -5.38000011       2.59115005E-08
  -5.37500000       2.68402474E-08
  -5.36999989       2.78009473E-08
  -5.36499977       2.87946325E-08
  -5.36000013       2.98223739E-08
  -5.35500002       3.08852819E-08
  -5.34999990       3.19844951E-08
  -5.34499979       3.31211893E-08
  -5.34000015       3.42965443E-08
  -5.33500004       3.55118353E-08
  -5.32999992       3.67683519E-08
  -5.32499981       3.80673946E-08
  -5.32000017       3.94103523E-08
  -5.31500006       4.07986143E-08
  -5.30999994       4.22336761E-08
  -5.30499983       4.37170016E-08
  -5.30000019       4.52501681E-08
  -5.29500008       4.68347743E-08
  -5.28999996       4.84724723E-08
  -5.28499985       5.01649886E-08
  -5.28000021       5.19140713E-08
  -5.27500010       5.37215534E-08
  -5.26999998       5.55893074E-08
  -5.26499987       5.75192942E-08
  -5.26000023       5.95135070E-08
  -5.25500011       6.15740277E-08
  -5.25000000       6.37029771E-08
  -5.24499989       6.59025901E-08
  -5.23999977       6.81750976E-08
  -5.23500013       7.05228516E-08
  -5.23000002       7.29482892E-08
  -5.22499990       7.54538902E-08
  -5.21999979       7.80422411E-08
  -5.21500015       8.07159708E-08
  -5.21000004       8.34777936E-08
  -5.20499992       8.63305445E-08
  -5.19999981       8.92771155E-08
  -5.19500017       9.23204837E-08
  -5.19000006       9.54637329E-08
  -5.18499994       9.87099966E-08
  -5.17999983       1.02062600E-07
  -5.17500019       1.05524826E-07
  -5.17000008       1.09100242E-07
  -5.16499996       1.12792321E-07
  -5.15999985       1.16604788E-07
  -5.15500021       1.20541401E-07
  -5.15000010       1.24606089E-07
  -5.14499998       1.28802839E-07
  -5.13999987       1.33135828E-07
  -5.13500023       1.37609277E-07
  -5.13000011       1.42227606E-07
  -5.12500000       1.46995333E-07
  -5.11999989       1.51917149E-07
  -5.11499977       1.56997814E-07
  -5.11000013       1.62242372E-07
  -5.10500002       1.67655827E-07
  -5.09999990       1.73243521E-07
  -5.09499979       1.79010783E-07
  -5.09000015       1.84963199E-07
  -5.08500004       1.91106594E-07
  -5.07999992       1.97446838E-07
  -5.07499981       2.03990027E-07
  -5.07000017       2.10742456E-07
  -5.06500006       2.17710578E-07
  -5.05999994       2.24901044E-07
  -5.05499983       2.32320730E-07
  -5.05000019       2.39976686E-07
  -5.04500008       2.47876159E-07
  -5.03999996       2.56026595E-07
  -5.03499985       2.64435783E-07
  -5.03000021       2.73111596E-07
  -5.02500010       2.82062189E-07
  -5.01999998       2.91295919E-07
  -5.01499987       3.00821426E-07
  -5.01000023       3.10647550E-07
  -5.00500011       3.20783698E-07
  -5.00000000       3.31238908E-07
  -4.99499989       3.42023100E-07
  -4.98999977       3.53146078E-07
  -4.98500013       3.64618131E-07
  -4.98000002       3.76450060E-07
  -4.97499990       3.88652069E-07
  -4.96999979       4.01235980E-07
  -4.96500015       4.14212934E-07
  -4.96000004       4.27594870E-07
  -4.95499992       4.41393695E-07
  -4.94999981       4.55622143E-07
  -4.94500017       4.70292832E-07
  -4.94000006       4.85419150E-07
  -4.93499994       5.01014711E-07
  -4.92999983       5.17093326E-07
  -4.92500019       5.33669493E-07
  -4.92000008       5.50757818E-07
  -4.91499996       5.68373878E-07
  -4.90999985       5.86532849E-07
  -4.90500021       6.05251103E-07
  -4.90000010       6.24545066E-07
  -4.89499998       6.44431964E-07
  -4.88999987       6.64928734E-07
  -4.88500023       6.86053909E-07
  -4.88000011       7.07825450E-07
  -4.87500000       7.30262741E-07
  -4.86999989       7.53385223E-07
  -4.86499977       7.77213017E-07
  -4.86000013       8.01766134E-07
  -4.85500002       8.27066458E-07
  -4.84999990       8.53136100E-07
  -4.84499979       8.79996321E-07
  -4.84000015       9.07670824E-07
  -4.83500004       9.36183312E-07
  -4.82999992       9.65557660E-07
  -4.82499981       9.95819050E-07
  -4.82000017       1.02699289E-06
  -4.81500006       1.05910647E-06
  -4.80999994       1.09218570E-06
  -4.80499983       1.12625844E-06
  -4.80000019       1.16135413E-06
  -4.79500008       1.19750143E-06
  -4.78999996       1.23473023E-06
  -4.78499985       1.27307237E-06
  -4.78000021       1.31255922E-06
  -4.77500010       1.35322352E-06
  -4.76999998       1.39509814E-06
  -4.76499987       1.43821853E-06
  -4.76000023       1.48261915E-06
  -4.75500011       1.52833752E-06
  -4.75000000       1.57540978E-06
  -4.74499989       1.62387471E-06
  -4.73999977       1.67377186E-06
  -4.73500013       1.72514160E-06
  -4.73000002       1.77802428E-06
  -4.72499990       1.83246448E-06
  -4.71999979       1.88850447E-06
  -4.71500015       1.94619042E-06
  -4.71000004       2.00556678E-06
  -4.70499992       2.06668165E-06
  -4.69999981       2.12958366E-06
  -4.69500017       2.19432263E-06
  -4.69000006       2.26094971E-06
  -4.68499994       2.32951811E-06
  -4.67999983       2.40008103E-06
  -4.67500019       2.47269372E-06
  -4.67000008       2.54741235E-06
  -4.66499996       2.62429626E-06
  -4.65999985       2.70340502E-06
  -4.65500021       2.78479911E-06
  -4.65000010       2.86854242E-06
  -4.64499998       2.95470045E-06
  -4.63999987       3.04333639E-06
  -4.63500023       3.13452119E-06
  -4.63000011       3.22832284E-06
  -4.62500000       3.32481409E-06
  -4.61999989       3.42406656E-06
  -4.61499977       3.52615780E-06
  -4.61000013       3.63116237E-06
  -4.60500002       3.73916032E-06
  -4.59999990       3.85023577E-06
  -4.59499979       3.96446694E-06
  -4.59000015       4.08194410E-06
  -4.58500004       4.20275182E-06
  -4.57999992       4.32698107E-06
  -4.57499981       4.45472460E-06
  -4.57000017       4.58607337E-06
  -4.56500006       4.72112697E-06
  -4.55999994       4.85998453E-06
  -4.55499983       5.00274882E-06
  -4.55000019       5.14952171E-06
  -4.54500008       5.30041189E-06
  -4.53999996       5.45552666E-06
  -4.53499985       5.61498427E-06
  -4.53000021       5.77889477E-06
  -4.52500010       5.94737639E-06
  -4.51999998       6.12055010E-06
  -4.51499987       6.29854094E-06
  -4.51000023       6.48147852E-06
  -4.50500011       6.66948881E-06
  -4.50000000       6.86270914E-06
  -4.49499989       7.06127503E-06
  -4.48999977       7.26532471E-06
  -4.48500013       7.47500371E-06
  -4.48000002       7.69045710E-06
  -4.47499990       7.91183629E-06
  -4.46999979       8.13929455E-06
  -4.46500015       8.37299831E-06
  -4.46000004       8.61310309E-06
  -4.45499992       8.85976988E-06
  -4.44999981       9.11317875E-06
  -4.44500017       9.37349887E-06
  -4.44000006       9.64090941E-06
  -4.43499994       9.91559318E-06
  -4.42999983       1.01977357E-05
  -4.42500019       1.04875317E-05
  -4.42000008       1.07851674E-05
  -4.41499996       1.10908613E-05
  -4.40999985       1.14048062E-05
  -4.40500021       1.17272184E-05
  -4.40000010       1.20583099E-05
  -4.39499998       1.23983064E-05
  -4.38999987       1.27474295E-05
  -4.38500023       1.31059105E-05
  -4.38000011       1.34739903E-05
  -4.37500000       1.38519090E-05
  -4.36999989       1.42399140E-05
  -4.36499977       1.46382608E-05
  -4.36000013       1.50472079E-05
  -4.35500002       1.54670288E-05
  -4.34999990       1.58979783E-05
  -4.34499979       1.63403583E-05
  -4.34000015       1.67944363E-05
  -4.33500004       1.72605141E-05
  -4.32999992       1.77388902E-05
  -4.32499981       1.82298645E-05
  -4.32000017       1.87337500E-05
  -4.31500006       1.92508724E-05
  -4.30999994       1.97815461E-05
  -4.30499983       2.03261243E-05
  -4.30000019       2.08849469E-05
  -4.29500008       2.14583470E-05
  -4.28999996       2.20467009E-05
  -4.28499985       2.26503653E-05
  -4.28000021       2.32697257E-05
  -4.27500010       2.39051460E-05
  -4.26999998       2.45570391E-05
  -4.26499987       2.52257960E-05
  -4.26000023       2.59118333E-05
  -4.25500011       2.66155585E-05
  -4.25000000       2.73374098E-05
  -4.24499989       2.80778295E-05
  -4.23999977       2.88372448E-05
  -4.23500013       2.96161452E-05
  -4.23000002       3.04149817E-05
  -4.22499990       3.12342163E-05
  -4.21999979       3.20743784E-05
  -4.21500015       3.29359318E-05
  -4.21000004       3.38194004E-05
  -4.20499992       3.47253190E-05
  -4.19999981       3.56542077E-05
  -4.19500017       3.66066233E-05
  -4.19000006       3.75830969E-05
  -4.18499994       3.85842395E-05
  -4.17999983       3.96106007E-05
  -4.17500019       4.06628133E-05
  -4.17000008       4.17414340E-05
  -4.16499996       4.28471067E-05
  -4.15999985       4.39804826E-05
  -4.15500021       4.51422056E-05
  -4.15000010       4.63329125E-05
  -4.14499998       4.75533052E-05
  -4.13999987       4.88040641E-05
  -4.13500023       5.00859169E-05
  -4.13000011       5.13995510E-05
  -4.12500000       5.27457305E-05
  -4.11999989       5.41251939E-05
  -4.11499977       5.55387123E-05
  -4.11000013       5.69870899E-05
  -4.10500002       5.84710760E-05
  -4.09999990       5.99915402E-05
  -4.09499979       6.15492754E-05
  -4.09000015       6.31451912E-05
  -4.08500004       6.47800916E-05
  -4.07999992       6.64549370E-05
  -4.07499981       6.81705642E-05
  -4.07000017       6.99279553E-05
  -4.06500006       7.17280127E-05
  -4.05999994       7.35717113E-05
  -4.05499983       7.54600987E-05
  -4.05000019       7.73940628E-05
  -4.04500008       7.93747240E-05
  -4.03999996       8.14030936E-05
  -4.03499985       8.34802267E-05
  -4.03000021       8.56072729E-05
  -4.02500010       8.77852581E-05
  -4.01999998       9.00154118E-05
  -4.01499987       9.22988183E-05
  -4.01000023       9.46366854E-05
  -4.00500011       9.70302426E-05
  -4.00000000       9.94806542E-05
  -3.99499989       1.01989193E-04
  -3.99000001       1.04557177E-04
  -3.98499990       1.07185901E-04
  -3.98000002       1.09876673E-04
  -3.97499990       1.12630856E-04
  -3.97000003       1.15449882E-04
  -3.96499991       1.18335112E-04
  -3.96000004       1.21287914E-04
  -3.95499992       1.24309954E-04
  -3.95000005       1.27402556E-04
  -3.94499993       1.30567249E-04
  -3.94000006       1.33805661E-04
  -3.93499994       1.37119365E-04
  -3.93000007       1.40509990E-04
  -3.92499995       1.43979138E-04
  -3.92000008       1.47528481E-04
  -3.91499996       1.51159795E-04
  -3.91000009       1.54874753E-04
  -3.90499997       1.58675102E-04
  -3.90000010       1.62562850E-04
  -3.89499998       1.66539641E-04
  -3.89000010       1.70607498E-04
  -3.88499999       1.74768153E-04
  -3.88000011       1.79023758E-04
  -3.87500000       1.83376149E-04
  -3.86999989       1.87827522E-04
  -3.86500001       1.92379739E-04
  -3.85999990       1.97035057E-04
  -3.85500002       2.01795498E-04
  -3.84999990       2.06663404E-04
  -3.84500003       2.11640814E-04
  -3.83999991       2.16730172E-04
  -3.83500004       2.21933573E-04
  -3.82999992       2.27253593E-04
  -3.82500005       2.32692546E-04
  -3.81999993       2.38252775E-04
  -3.81500006       2.43936753E-04
  -3.80999994       2.49747332E-04
  -3.80500007       2.55686580E-04
  -3.79999995       2.61757377E-04
  -3.79500008       2.67962459E-04
  -3.78999996       2.74304417E-04
  -3.78500009       2.80786189E-04
  -3.77999997       2.87410192E-04
  -3.77500010       2.94179743E-04
  -3.76999998       3.01097578E-04
  -3.76500010       3.08166404E-04
  -3.75999999       3.15389421E-04
  -3.75500011       3.22770007E-04
  -3.75000000       3.30310810E-04
  -3.74499989       3.38015292E-04
  -3.74000001       3.45886569E-04
  -3.73499990       3.53927870E-04
  -3.73000002       3.62142600E-04
  -3.72499990       3.70534195E-04
  -3.72000003       3.79106321E-04
  -3.71499991       3.87862063E-04
  -3.71000004       3.96805321E-04
  -3.70499992       4.05939471E-04
  -3.70000005       4.15268412E-04
  -3.69499993       4.24795930E-04
  -3.69000006       4.34525718E-04
  -3.68499994       4.44461824E-04
  -3.68000007       4.54608147E-04
  -3.67499995       4.64968674E-04
  -3.67000008       4.75547480E-04
  -3.66499996       4.86348581E-04
  -3.66000009       4.97376488E-04
  -3.65499997       5.08635421E-04
  -3.65000010       5.20129572E-04
  -3.64499998       5.31863770E-04
  -3.64000010       5.43842325E-04
  -3.63499999       5.56069601E-04
  -3.63000011       5.68550429E-04
  -3.62500000       5.81289409E-04
  -3.61999989       5.94291603E-04
  -3.61500001       6.07561553E-04
  -3.60999990       6.21104729E-04
  -3.60500002       6.34925673E-04
  -3.59999990       6.49029738E-04
  -3.59500003       6.63422514E-04
  -3.58999991       6.78108481E-04
  -3.58500004       6.93093578E-04
  -3.57999992       7.08383217E-04
  -3.57500005       7.23982463E-04
  -3.56999993       7.39897951E-04
  -3.56500006       7.56133930E-04
  -3.55999994       7.72697676E-04
  -3.55500007       7.89593847E-04
  -3.54999995       8.06829194E-04
  -3.54500008       8.24409595E-04
  -3.53999996       8.42341396E-04
  -3.53500009       8.60630535E-04
  -3.52999997       8.79283005E-04
  -3.52500010       8.98305909E-04
  -3.51999998       9.17705998E-04
  -3.51500010       9.37489152E-04
  -3.50999999       9.57662298E-04
  -3.50500011       9.78232594E-04
  -3.50000000       9.99207026E-04
  -3.49499989       1.02059217E-03
  -3.49000001       1.04239548E-03
  -3.48499990       1.06462406E-03
  -3.48000002       1.08728535E-03
  -3.47499990       1.11038622E-03
  -3.47000003       1.13393518E-03
  -3.46499991       1.15793908E-03
  -3.46000004       1.18240656E-03
  -3.45499992       1.20734447E-03
  -3.45000005       1.23276177E-03
  -3.44499993       1.25866558E-03
  -3.44000006       1.28506543E-03
  -3.43499994       1.31196843E-03
  -3.43000007       1.33938366E-03
  -3.42499995       1.36731949E-03
  -3.42000008       1.39578397E-03
  -3.41499996       1.42478687E-03
  -3.41000009       1.45433645E-03
  -3.40499997       1.48444274E-03
  -3.40000010       1.51511317E-03
  -3.39499998       1.54635857E-03
  -3.39000010       1.57818757E-03
  -3.38499999       1.61061028E-03
  -3.38000011       1.64363626E-03
  -3.37500000       1.67727412E-03
  -3.36999989       1.71153562E-03
  -3.36500001       1.74642866E-03
  -3.35999990       1.78196561E-03
  -3.35500002       1.81815401E-03
  -3.34999990       1.85500726E-03
  -3.34500003       1.89253432E-03
  -3.33999991       1.93074555E-03
  -3.33500004       1.96965225E-03
  -3.32999992       2.00926652E-03
  -3.32500005       2.04959791E-03
  -3.31999993       2.09065829E-03
  -3.31500006       2.13245838E-03
  -3.30999994       2.17500958E-03
  -3.30500007       2.21832539E-03
  -3.29999995       2.26241536E-03
  -3.29500008       2.30729184E-03
  -3.28999996       2.35296809E-03
  -3.28500009       2.39945482E-03
  -3.27999997       2.44676508E-03
  -3.27500010       2.49491166E-03
  -3.26999998       2.54390715E-03
  -3.26500010       2.59376457E-03
  -3.25999999       2.64449557E-03
  -3.25500011       2.69611296E-03
  -3.25000000       2.74863164E-03
  -3.24499989       2.80206394E-03
  -3.24000001       2.85642198E-03
  -3.23499990       2.91172438E-03
  -3.23000002       2.96798022E-03
  -3.22499990       3.02520511E-03
  -3.22000003       3.08341160E-03
  -3.21499991       3.14261648E-03
  -3.21000004       3.20283230E-03
  -3.20499992       3.26407305E-03
  -3.20000005       3.32635641E-03
  -3.19499993       3.38969589E-03
  -3.19000006       3.45410337E-03
  -3.18499994       3.51960002E-03
  -3.18000007       3.58619518E-03
  -3.17499995       3.65390908E-03
  -3.17000008       3.72275221E-03
  -3.16499996       3.79274553E-03
  -3.16000009       3.86390323E-03
  -3.15499997       3.93623905E-03
  -3.15000010       4.00977349E-03
  -3.14499998       4.08451678E-03
  -3.14000010       4.16049315E-03
  -3.13499999       4.23771609E-03
  -3.13000011       4.31619817E-03
  -3.12500000       4.39596362E-03
  -3.11999989       4.47702175E-03
  -3.11500001       4.55939816E-03
  -3.10999990       4.64310450E-03
  -3.10500002       4.72816173E-03
  -3.09999990       4.81458474E-03
  -3.09500003       4.90239356E-03
  -3.08999991       4.99160402E-03
  -3.08500004       5.08223986E-03
  -3.07999992       5.17431088E-03
  -3.07500005       5.26784267E-03
  -3.06999993       5.36285248E-03
  -3.06500006       5.45935752E-03
  -3.05999994       5.55737969E-03
  -3.05500007       5.65693155E-03
  -3.04999995       5.75804198E-03
  -3.04500008       5.86072169E-03
  -3.03999996       5.96499583E-03
  -3.03500009       6.07088394E-03
  -3.02999997       6.17839769E-03
  -3.02500010       6.28756965E-03
  -3.01999998       6.39841519E-03
  -3.01500010       6.51095109E-03
  -3.00999999       6.62519969E-03
  -3.00500011       6.74118614E-03
  -3.00000000       6.85892766E-03
  -2.99499989       6.97844103E-03
  -2.99000001       7.09975371E-03
  -2.98499990       7.22288061E-03
  -2.98000002       7.34785758E-03
  -2.97499990       7.47468462E-03
  -2.97000003       7.60339899E-03
  -2.96499991       7.73401326E-03
  -2.96000004       7.86655489E-03
  -2.95499992       8.00104346E-03
  -2.95000005       8.13749898E-03
  -2.94499993       8.27594940E-03
  -2.94000006       8.41641426E-03
  -2.93499994       8.55891872E-03
  -2.93000007       8.70347768E-03
  -2.92499995       8.85012373E-03
  -2.92000008       8.99887551E-03
  -2.91499996       9.14975163E-03
  -2.91000009       9.30277351E-03
  -2.90499997       9.45797935E-03
  -2.90000010       9.61536728E-03
  -2.89499998       9.77498386E-03
  -2.89000010       9.93684679E-03
  -2.88499999       1.01009756E-02
  -2.88000011       1.02673946E-02
  -2.87500000       1.04361260E-02
  -2.86999989       1.06071988E-02
  -2.86500001       1.07806278E-02
  -2.85999990       1.09564476E-02
  -2.85500002       1.11346683E-02
  -2.84999990       1.13153271E-02
  -2.84500003       1.14984494E-02
  -2.83999991       1.16840480E-02
  -2.83500004       1.18721547E-02
  -2.82999992       1.20627861E-02
  -2.82500005       1.22559844E-02
  -2.81999993       1.24517493E-02
  -2.81500006       1.26501173E-02
  -2.80999994       1.28511302E-02
  -2.80500007       1.30547844E-02
  -2.79999995       1.32611105E-02
  -2.79500008       1.34701421E-02
  -2.78999996       1.36819063E-02
  -2.78500009       1.38964187E-02
  -2.77999997       1.41137084E-02
  -2.77500010       1.43337827E-02
  -2.76999998       1.45566911E-02
  -2.76500010       1.47824613E-02
  -2.75999999       1.50110759E-02
  -2.75500011       1.52426073E-02
  -2.75000000       1.54770575E-02
  -2.74499989       1.57144647E-02
  -2.74000001       1.59548372E-02
  -2.73499990       1.61982011E-02
  -2.73000002       1.64445862E-02
  -2.72499990       1.66940298E-02
  -2.72000003       1.69465337E-02
  -2.71499991       1.72021203E-02
  -2.71000004       1.74608380E-02
  -2.70499992       1.77227017E-02
  -2.70000005       1.79877207E-02
  -2.69499993       1.82559248E-02
  -2.69000006       1.85273476E-02
  -2.68499994       1.88020151E-02
  -2.68000007       1.90799218E-02
  -2.67499995       1.93611477E-02
  -2.67000008       1.96456462E-02
  -2.66499996       1.99335050E-02
  -2.66000009       2.02247147E-02
  -2.65499997       2.05192883E-02
  -2.65000010       2.08172724E-02
  -2.64499998       2.11186577E-02
  -2.64000010       2.14235149E-02
  -2.63499999       2.17318274E-02
  -2.63000011       2.20436510E-02
  -2.62500000       2.23589689E-02
  -2.61999989       2.26778220E-02
  -2.61500001       2.30002329E-02
  -2.60999990       2.33262181E-02
  -2.60500002       2.36558151E-02
  -2.59999990       2.39890143E-02
  -2.59500003       2.43258774E-02
  -2.58999991       2.46663820E-02
  -2.58500004       2.50105616E-02
  -2.57999992       2.53584683E-02
  -2.57500005       2.57100593E-02
  -2.56999993       2.60654371E-02
  -2.56500006       2.64245216E-02
  -2.55999994       2.67874207E-02
  -2.55500007       2.71540824E-02
  -2.54999995       2.75245998E-02
  -2.54500008       2.78989635E-02
  -2.53999996       2.82771438E-02
  -2.53500009       2.86591593E-02
  -2.52999997       2.90451013E-02
  -2.52500010       2.94349529E-02
  -2.51999998       2.98287030E-02
  -2.51500010       3.02264001E-02
  -2.50999999       3.06280330E-02
  -2.50500011       3.10336147E-02
  -2.50000000       3.14432196E-02
  -2.49499989       3.18568051E-02
  -2.49000001       3.22743431E-02
  -2.48499990       3.26959491E-02
  -2.48000002       3.31215896E-02
  -2.47499990       3.35512646E-02
  -2.47000003       3.39849666E-02
  -2.46499991       3.44227962E-02
  -2.46000004       3.48646604E-02
  -2.45499992       3.53106111E-02
  -2.45000005       3.57606523E-02
  -2.44499993       3.62148210E-02
  -2.44000006       3.66730615E-02
  -2.43499994       3.71354781E-02
  -2.43000007       3.76019962E-02
  -2.42499995       3.80726792E-02
  -2.42000008       3.85474823E-02
  -2.41499996       3.90264541E-02
  -2.41000009       3.95095646E-02
  -2.40499997       3.99968736E-02
  -2.40000010       4.04883474E-02
  -2.39499998       4.09839451E-02
  -2.39000010       4.14837040E-02
  -2.38499999       4.19876724E-02
  -2.38000011       4.24957611E-02
  -2.37500000       4.30080928E-02
  -2.36999989       4.35245745E-02
  -2.36500001       4.40452173E-02
  -2.35999990       4.45700288E-02
  -2.35500002       4.50990573E-02
  -2.34999990       4.56321724E-02
  -2.34500003       4.61694784E-02
  -2.33999991       4.67109755E-02
  -2.33500004       4.72565815E-02
  -2.32999992       4.78063375E-02
  -2.32500005       4.83602658E-02
  -2.31999993       4.89182584E-02
  -2.31500006       4.94804308E-02
  -2.30999994       5.00466824E-02
  -2.30500007       5.06170616E-02
  -2.29999995       5.11914678E-02
  -2.29500008       5.17700203E-02
  -2.28999996       5.23526333E-02
  -2.28500009       5.29392846E-02
  -2.27999997       5.35299368E-02
  -2.27500010       5.41246980E-02
  -2.26999998       5.47234081E-02
  -2.26500010       5.53260744E-02
  -2.25999999       5.59327193E-02
  -2.25500011       5.65433055E-02
  -2.25000000       5.71578331E-02
  -2.24499989       5.77763021E-02
  -2.24000001       5.83985932E-02
  -2.23499990       5.90247028E-02
  -2.23000002       5.96547090E-02
  -2.22499990       6.02884665E-02
  -2.22000003       6.09261207E-02
  -2.21499991       6.15673736E-02
  -2.21000004       6.22124709E-02
  -2.20499992       6.28611818E-02
  -2.20000005       6.35135323E-02
  -2.19499993       6.41695485E-02
  -2.19000006       6.48291335E-02
  -2.18499994       6.54922724E-02
  -2.18000007       6.61589801E-02
  -2.17499995       6.68290779E-02
  -2.17000008       6.75027370E-02
  -2.16499996       6.81797415E-02
  -2.16000009       6.88600317E-02
  -2.15499997       6.95437416E-02
  -2.15000010       7.02307597E-02
  -2.14499998       7.09208995E-02
  -2.14000010       7.16143176E-02
  -2.13499999       7.23109469E-02
  -2.13000011       7.30105937E-02
  -2.12500000       7.37133324E-02
  -2.11999989       7.44189098E-02
  -2.11500001       7.51275793E-02
  -2.10999990       7.58391470E-02
  -2.10500002       7.65534192E-02
  -2.09999990       7.72705674E-02
  -2.09500003       7.79903978E-02
  -2.08999991       7.87128359E-02
  -2.08500004       7.94379711E-02
  -2.07999992       8.01656321E-02
  -2.07500005       8.08957368E-02
  -2.06999993       8.16282406E-02
  -2.06500006       8.23631808E-02
  -2.05999994       8.31003264E-02
  -2.05500007       8.38398263E-02
  -2.04999995       8.45812410E-02
  -2.04500008       8.53248313E-02
  -2.03999996       8.60703513E-02
  -2.03500009       8.68179947E-02
  -2.02999997       8.75672251E-02
  -2.02500010       8.83183703E-02
  -2.01999998       8.90711546E-02
  -2.01500010       8.98256376E-02
  -2.00999999       9.05815735E-02
  -2.00500011       9.13390815E-02
  -2.00000000       9.20979455E-02
  -1.99500000       9.28579494E-02
  -1.99000001       9.36193466E-02
  -1.98500001       9.43815410E-02
  -1.98000002       9.51450542E-02
  -1.97500002       9.59093273E-02
  -1.97000003       9.66745615E-02
  -1.96500003       9.74404737E-02
  -1.96000004       9.82071832E-02
  -1.95500004       9.89742726E-02
  -1.95000005       9.97417122E-02
  -1.94500005      0.100509726    
  -1.94000006      0.101277880    
  -1.93499994      0.102046303    
  -1.92999995      0.102814749    
  -1.92499995      0.103582874    
  -1.91999996      0.104351155    
  -1.91499996      0.105118953    
  -1.90999997      0.105886430    
  -1.90499997      0.106653266    
  -1.89999998      0.107419543    
  -1.89499998      0.108185120    
  -1.88999999      0.108949929    
  -1.88499999      0.109713629    
  -1.88000000      0.110476539    
  -1.87500000      0.111238159    
  -1.87000000      0.111998364    
  -1.86500001      0.112757169    
  -1.86000001      0.113514431    
  -1.85500002      0.114270151    
  -1.85000002      0.115023702    
  -1.84500003      0.115775600    
  -1.84000003      0.116525374    
  -1.83500004      0.117272727    
  -1.83000004      0.118017972    
  -1.82500005      0.118760616    
  -1.82000005      0.119500846    
  -1.81500006      0.120238081    
  -1.80999994      0.120972499    
  -1.80499995      0.121703885    
  -1.79999995      0.122432284    
  -1.79499996      0.123157427    
  -1.78999996      0.123878948    
  -1.78499997      0.124597020    
  -1.77999997      0.125311151    
  -1.77499998      0.126021534    
  -1.76999998      0.126727790    
  -1.76499999      0.127429858    
  -1.75999999      0.128127664    
  -1.75500000      0.128820971    
  -1.75000000      0.129509613    
  -1.74500000      0.130193651    
  -1.74000001      0.130872637    
  -1.73500001      0.131546408    
  -1.73000002      0.132214800    
  -1.72500002      0.132878244    
  -1.72000003      0.133535877    