  -6.00000000        -2.63119101E-30
  -5.99499989        -5.95720766E-29
  -5.98999977        -1.73316879E-28
  -5.98500013        -3.43592835E-28
  -5.98000002        -5.69994278E-28
  -5.97499990        -8.51985185E-28
  -5.96999979        -1.18890496E-27
  -5.96500015        -1.57997342E-27
  -5.96000004        -2.02429701E-27
  -5.95499992        -2.52087647E-27
  -5.94999981        -3.06861403E-27
  -5.94500017        -3.66632042E-27
  -5.94000006        -4.31272452E-27
  -5.93499994        -5.00647877E-27
  -5.92999983        -5.74616953E-27
  -5.92500019        -6.53032385E-27
  -5.92000008        -7.35741292E-27
  -5.91499996        -8.22586173E-27
  -5.90999985        -9.13405017E-27
  -5.90500021        -1.00803273E-26
  -5.90000010        -1.10629946E-26
  -5.89499998        -1.20803339E-26
  -5.88999987        -1.31305898E-26
  -5.88500023        -1.42119732E-26
  -5.88000011        -1.53226724E-26
  -5.87500000        -1.64608385E-26
  -5.86999989        -1.76245747E-26
  -5.86499977        -1.88119768E-26
  -5.86000013        -2.00210741E-26
  -5.85500002        -2.12498636E-26
  -5.84999990        -2.24963100E-26
  -5.84499979        -2.37582980E-26
  -5.84000015        -2.50336904E-26
  -5.83500004        -2.63202886E-26
  -5.82999992        -2.76158263E-26
  -5.82499981        -2.89180014E-26
  -5.82000017        -3.02244445E-26
  -5.81500006        -3.15327364E-26
  -5.80999994        -3.28403904E-26
  -5.80499983        -3.41449198E-26
  -5.80000019        -3.54437269E-26
  -5.79500008        -3.67342171E-26
  -5.78999996        -3.80137526E-26
  -5.78499985        -3.92796586E-26
  -5.78000021        -4.05292605E-26
  -5.77500010        -4.17598650E-26
  -5.76999998        -4.29687851E-26
  -5.76499987        -4.41533399E-26
  -5.76000023        -4.53108515E-26
  -5.75500011        -4.64387007E-26
  -5.75000000        -4.75342837E-26
  -5.74499989        -4.85950551E-26
  -5.73999977        -4.96185097E-26
  -5.73500013        -5.06022131E-26
  -5.73000002        -5.15438357E-26
  -5.72499990        -5.24410756E-26
  -5.71999979        -5.32917142E-26
  -5.71500015        -5.40936529E-26
  -5.71000004        -5.48448765E-26
  -5.70499992        -5.55434313E-26
  -5.69999981        -5.61874746E-26
  -5.69500017        -5.67752191E-26
  -5.69000006        -5.73050317E-26
  -5.68499994        -5.77753222E-26
  -5.67999983        -5.81845808E-26
  -5.67500019        -5.85313961E-26
  -5.67000008        -5.88144307E-26
  -5.66499996        -5.90323967E-26
  -5.65999985        -5.91840860E-26
  -5.65500021        -5.92683647E-26
  -5.65000010        -5.92841419E-26
  -5.64499998        -5.92303946E-26
  -5.63999987        -5.91061306E-26
  -5.63500023        -5.89104561E-26
  -5.63000011        -5.86424652E-26
  -5.62500000        -5.83013507E-26
  -5.61999989        -5.78863297E-26
  -5.61499977        -5.73966690E-26
  -5.61000013        -5.68317028E-26
  -5.60500002        -5.61908150E-26
  -5.59999990        -5.54734692E-26
  -5.59499979        -5.46791603E-26
  -5.59000015        -5.38074874E-26
  -5.58500004        -5.28580933E-26
  -5.57999992        -5.18307561E-26
  -5.57499981        -5.07253062E-26
  -5.57000017        -4.95416759E-26
  -5.56500006        -4.82799113E-26
  -5.55999994        -4.69401913E-26
  -5.55499983        -4.55227562E-26
  -5.55000019        -4.40280189E-26
  -5.54500008        -4.24564816E-26
  -5.53999996        -4.08088254E-26
  -5.53499985        -3.90858114E-26
  -5.53000021        -3.72883364E-26
  -5.52500010        -3.54174603E-26
  -5.51999998        -3.34743449E-26
  -5.51499987        -3.14602813E-26
  -5.51000023        -2.93766932E-26
  -5.50500011        -2.72251552E-26
  -5.50000000        -2.50073159E-26
  -5.49499989        -2.27249056E-26
  -5.48999977        -2.03798147E-26
  -5.48500013        -1.79740108E-26
  -5.48000002        -1.55095108E-26
  -5.47499990        -1.29884608E-26
  -5.46999979        -1.04130618E-26
  -5.46500015        -7.78555254E-27
  -5.46000004        -5.10827341E-27
  -5.45499992        -2.38355613E-27
  -5.44999981         3.86190530E-28
  -5.44500017         3.19849567E-27
  -5.44000006         6.05090326E-27
  -5.43499994         8.94093024E-27
  -5.42999983         1.18660142E-26
  -5.42500019         1.48235993E-26
  -5.42000008         1.78110664E-26
  -5.41499996         2.08258154E-26
  -5.40999985         2.38652087E-26
  -5.40500021         2.69265714E-26
  -5.40000010         3.00072150E-26
  -5.39499998         3.31043692E-26
  -5.38999987         3.62152760E-26
  -5.38500023         3.93370544E-26
  -5.38000011         4.24669278E-26
  -5.37500000         4.56019135E-26
  -5.36999989         4.87390684E-26
  -5.36499977         5.18753822E-26
  -5.36000013         5.50077701E-26
  -5.35500002         5.81331384E-26
  -5.34999990         6.12483070E-26
  -5.34499979         6.43500095E-26
  -5.34000015         6.74350411E-26
  -5.33500004         7.05000430E-26
  -5.32999992         7.35416380E-26
  -5.32499981         7.65564302E-26
  -5.32000017         7.95410669E-26
  -5.31500006         8.24920723E-26
  -5.30999994         8.54059766E-26
  -5.30499983         8.82793347E-26
  -5.30000019         9.11087260E-26
  -5.29500008         9.38906995E-26
  -5.28999996         9.66218592E-26
  -5.28499985         9.92988155E-26
  -5.28000021         1.01918234E-25
  -5.27500010         1.04476899E-25
  -5.26999998         1.06971523E-25
  -5.26499987         1.09399008E-25
  -5.26000023         1.11756285E-25
  -5.25500011         1.14040358E-25
  -5.25000000         1.16248318E-25
  -5.24499989         1.18377293E-25
  -5.23999977         1.20424634E-25
  -5.23500013         1.22387690E-25
  -5.23000002         1.24263921E-25
  -5.22499990         1.26050901E-25
  -5.21999979         1.27746200E-25
  -5.21500015         1.29347624E-25
  -5.21000004         1.30852968E-25
  -5.20499992         1.32260087E-25
  -5.19999981         1.33567044E-25
  -5.19500017         1.34771881E-25
  -5.19000006         1.35872638E-25
  -5.18499994         1.36867614E-25
  -5.17999983         1.37755045E-25
  -5.17500019         1.38533318E-25
  -5.17000008         1.39200781E-25
  -5.16499996         1.39755880E-25
  -5.15999985         1.40197260E-25
  -5.15500021         1.40523368E-25
  -5.15000010         1.40732896E-25
  -5.14499998         1.40824614E-25
  -5.13999987         1.40797312E-25
  -5.13500023         1.40649770E-25
  -5.13000011         1.40381126E-25
  -5.12500000         1.39990332E-25
  -5.11999989         1.39476463E-25
  -5.11499977         1.38838915E-25
  -5.11000013         1.38076937E-25
  -5.10500002         1.37190048E-25
  -5.09999990         1.36177792E-25
  -5.09499979         1.35039921E-25
  -5.09000015         1.33776400E-25
  -5.08500004         1.32386995E-25
  -5.07999992         1.30872000E-25
  -5.07499981         1.29231699E-25
  -5.07000017         1.27466438E-25
  -5.06500006         1.25576882E-25
  -5.05999994         1.23563844E-25
  -5.05499983         1.21428114E-25
  -5.05000019         1.19170727E-25
  -5.04500008         1.16792965E-25
  -5.03999996         1.14296220E-25
  -5.03499985         1.11681725E-25
  -5.03000021         1.08951429E-25
  -5.02500010         1.06106759E-25
  -5.01999998         1.03149880E-25
  -5.01499987         1.00082537E-25
  -5.01000023         9.69069523E-26
  -5.00500011         9.36253526E-26
  -5.00000000         9.02398944E-26
  -4.99499989         8.67530737E-26
  -4.98999977         8.31672756E-26
  -4.98500013         7.94851934E-26
  -4.98000002         7.57091751E-26
  -4.97499990         7.18422406E-26
  -4.96999979         6.78867872E-26
  -4.96500015         6.38458349E-26
  -4.96000004         5.97221755E-26
  -4.95499992         5.55186931E-26
  -4.94999981         5.12384232E-26
  -4.94500017         4.68844873E-26
  -4.94000006         4.24598589E-26
  -4.93499994         3.79677275E-26
  -4.92999983         3.34114271E-26
  -4.92500019         2.87941626E-26
  -4.92000008         2.41193605E-26
  -4.91499996         1.93905816E-26
  -4.90999985         1.46111214E-26
  -4.90500021         9.78472868E-27
  -4.90000010         4.91523784E-27
  -4.89499998         6.27234795E-30
  -4.88999987        -4.93830047E-27
  -4.88500023        -9.91447704E-27
  -4.88000011        -1.49182025E-26
  -4.87500000        -1.99453280E-26
  -4.86999989        -2.49918099E-26
  -4.86499977        -3.00532524E-26
  -4.86000013        -3.51252552E-26
  -4.85500002        -4.02037044E-26
  -4.84999990        -4.52838916E-26
  -4.84499979        -5.03614102E-26
  -4.84000015        -5.54317336E-26
  -4.83500004        -6.04903103E-26
  -4.82999992        -6.55324996E-26
  -4.82499981        -7.05537595E-26
  -4.82000017        -7.55494986E-26
  -4.81500006        -8.05151129E-26
  -4.80999994        -8.54458942E-26
  -4.80499983        -9.03374543E-26
  -4.80000019        -9.51852326E-26
  -4.79500008        -9.99847486E-26
  -4.78999996        -1.04731577E-25
  -4.78499985        -1.09421047E-25
  -4.78000021        -1.14049245E-25
  -4.77500010        -1.18611573E-25
  -4.76999998        -1.23103938E-25
  -4.76499987        -1.27522015E-25
  -4.76000023        -1.31861687E-25
  -4.75500011        -1.36119108E-25
  -4.75000000        -1.40290013E-25
  -4.74499989        -1.44370457E-25
  -4.73999977        -1.48356559E-25
  -4.73500013        -1.52244398E-25
  -4.73000002        -1.56030315E-25
  -4.72499990        -1.59710400E-25
  -4.71999979        -1.63280945E-25
  -4.71500015        -1.66738251E-25
  -4.71000004        -1.70078695E-25
  -4.70499992        -1.73298467E-25
  -4.69999981        -1.76394106E-25
  -4.69500017        -1.79362133E-25
  -4.69000006        -1.82198877E-25
  -4.68499994        -1.84900910E-25
  -4.67999983        -1.87464955E-25
  -4.67500019        -1.89887399E-25
  -4.67000008        -1.92165111E-25
  -4.66499996        -1.94294555E-25
  -4.65999985        -1.96272796E-25
  -4.65500021        -1.98096544E-25
  -4.65000010        -1.99762705E-25
  -4.64499998        -2.01268455E-25
  -4.63999987        -2.02610801E-25
  -4.63500023        -2.03787029E-25
  -4.63000011        -2.04794207E-25
  -4.62500000        -2.05630104E-25
  -4.61999989        -2.06292143E-25
  -4.61499977        -2.06777971E-25
  -4.61000013        -2.07085331E-25
  -4.60500002        -2.07212288E-25
  -4.59999990        -2.07156895E-25
  -4.59499979        -2.06917180E-25
  -4.59000015        -2.06491639E-25
  -4.58500004        -2.05878694E-25
  -4.57999992        -2.05077051E-25
  -4.57499981        -2.04085367E-25
  -4.57000017        -2.02902408E-25
  -4.56500006        -2.01527399E-25
  -4.55999994        -1.99959464E-25
  -4.55499983        -1.98197617E-25
  -4.55000019        -1.96241439E-25
  -4.54500008        -1.94090302E-25
  -4.53999996        -1.91743847E-25
  -4.53499985        -1.89201533E-25
  -4.53000021        -1.86463484E-25
  -4.52500010        -1.83529229E-25
  -4.51999998        -1.80398807E-25
  -4.51499987        -1.77072316E-25
  -4.51000023        -1.73549707E-25
  -4.50500011        -1.69831190E-25
  -4.50000000        -1.65917170E-25
  -4.49499989        -1.61807673E-25
  -4.48999977        -1.57503426E-25
  -4.48500013        -1.53004614E-25
  -4.48000002        -1.48312050E-25
  -4.47499990        -1.43426105E-25
  -4.46999979        -1.38347739E-25
  -4.46500015        -1.33077556E-25
  -4.46000004        -1.27616605E-25
  -4.45499992        -1.21965797E-25
  -4.44999981        -1.16126069E-25
  -4.44500017        -1.10098888E-25
  -4.44000006        -1.03885438E-25
  -4.43499994        -9.74872088E-26
  -4.42999983        -9.09054156E-26
  -4.42500019        -8.41419318E-26
  -4.42000008        -7.71984335E-26
  -4.41499996        -7.00765418E-26
  -4.40999985        -6.27782842E-26
  -4.40500021        -5.53057870E-26
  -4.40000010        -4.76612318E-26
  -4.39499998        -3.98467695E-26
  -4.38999987        -3.18646742E-26
  -4.38500023        -2.37175669E-26
  -4.38000011        -1.54077323E-26
  -4.37500000        -6.93793768E-27
  -4.36999989         1.68918443E-27
  -4.36499977         1.04710800E-26
  -4.36000013         1.94050692E-26
  -4.35500002         2.84880784E-26
  -4.34999990         3.77174120E-26
  -4.34499979         4.70902598E-26
  -4.34000015         5.66034693E-26
  -4.33500004         6.62544060E-26
  -4.32999992         7.60397633E-26
  -4.32499981         8.59571254E-26
  -4.32000017         9.60032875E-26
  -4.31500006         1.06175267E-25
  -4.30999994         1.16469976E-25
  -4.30499983         1.26884751E-25
  -4.30000019         1.37416562E-25
  -4.29500008         1.48062437E-25
  -4.28999996         1.58819603E-25
  -4.28499985         1.69685041E-25
  -4.28000021         1.80655865E-25
  -4.27500010         1.91728995E-25
  -4.26999998         2.02901804E-25
  -4.26499987         2.14171126E-25
  -4.26000023         2.25534125E-25
  -4.25500011         2.36987917E-25
  -4.25000000         2.48529272E-25
  -4.24499989         2.60155455E-25
  -4.23999977         2.71863457E-25
  -4.23500013         2.83650198E-25
  -4.23000002         2.95512743E-25
  -4.22499990         3.07448036E-25
  -4.21999979         3.19452749E-25
  -4.21500015         3.31524219E-25
  -4.21000004         3.43659192E-25
  -4.20499992         3.55854711E-25
  -4.19999981         3.68107643E-25
  -4.19500017         3.80415057E-25
  -4.19000006         3.92773721E-25
  -4.18499994         4.05180827E-25
  -4.17999983         4.17633268E-25
  -4.17500019         4.30128282E-25
  -4.17000008         4.42662641E-25
  -4.16499996         4.55233879E-25
  -4.15999985         4.67838940E-25
  -4.15500021         4.80474963E-25
  -4.15000010         4.93139434E-25
  -4.14499998         5.05829692E-25
  -4.13999987         5.18543566E-25
  -4.13500023         5.31277704E-25
  -4.13000011         5.44030232E-25
  -4.12500000         5.56798784E-25
  -4.11999989         5.69581091E-25
  -4.11499977         5.82374838E-25
  -4.11000013         5.95177902E-25
  -4.10500002         6.07988362E-25
  -4.09999990         6.20804049E-25
  -4.09499979         6.33623236E-25
  -4.09000015         6.46444000E-25
  -4.08500004         6.59264568E-25
  -4.07999992         6.72082670E-25
  -4.07499981         6.84897370E-25
  -4.07000017         6.97706302E-25
  -4.06500006         7.10508578E-25
  -4.05999994         7.23301880E-25
  -4.05499983         7.36084829E-25
  -4.05000019         7.48855994E-25
  -4.04500008         7.61614044E-25
  -4.03999996         7.74357106E-25
  -4.03499985         7.87084095E-25
  -4.03000021         7.99793285E-25
  -4.02500010         8.12483493E-25
  -4.01999998         8.25153092E-25
  -4.01499987         8.37801047E-25
  -4.01000023         8.50425780E-25
  -4.00500011         8.63025860E-25
  -4.00000000         8.75600698E-25
  -3.99499989         8.88148221E-25
  -3.99000001         9.00668331E-25
  -3.98499990         9.13158858E-25
  -3.98000002         9.25619508E-25
  -3.97499990         9.38048998E-25
  -3.97000003         9.50446538E-25
  -3.96499991         9.62810947E-25
  -3.96000004         9.75141731E-25
  -3.95499992         9.87438198E-25
  -3.95000005         9.99699069E-25
  -3.94499993         1.01192464E-24
  -3.94000006         1.02411353E-24
  -3.93499994         1.03626593E-24
  -3.93000007         1.04838096E-24
  -3.92499995         1.06045852E-24
  -3.92000008         1.07249782E-24
  -3.91499996         1.08449935E-24
  -3.91000009         1.09646252E-24
  -3.90499997         1.10838645E-24
  -3.90000010         1.12027242E-24
  -3.89499998         1.13211894E-24
  -3.89000010         1.14392621E-24
  -3.88499999         1.15569483E-24
  -3.88000011         1.16742401E-24
  -3.87500000         1.17911385E-24
  -3.86999989         1.19076404E-24
  -3.86500001         1.20237479E-24
  -3.85999990         1.21394561E-24
  -3.85500002         1.22547688E-24
  -3.84999990         1.23696841E-24
  -3.84500003         1.24841942E-24
  -3.83999991         1.25983019E-24
  -3.83500004         1.27120064E-24
  -3.82999992         1.28253016E-24
  -3.82500005         1.29381905E-24
  -3.81999993         1.30506673E-24
  -3.81500006         1.31627309E-24
  -3.80999994         1.32743794E-24
  -3.80500007         1.33856038E-24
  -3.79999995         1.34964142E-24
  -3.79500008         1.36068014E-24
  -3.78999996         1.37167617E-24
  -3.78500009         1.38262921E-24
  -3.77999997         1.39353945E-24
  -3.77500010         1.40440651E-24
  -3.76999998         1.41523027E-24
  -3.76500010         1.42600976E-24
  -3.75999999         1.43674606E-24
  -3.75500011         1.44743808E-24
  -3.75000000         1.45808553E-24
  -3.74499989         1.46868881E-24
  -3.74000001         1.47924742E-24
  -3.73499990         1.48976086E-24
  -3.73000002         1.50022954E-24
  -3.72499990         1.51065276E-24
  -3.72000003         1.52103052E-24
  -3.71499991         1.53136262E-24
  -3.71000004         1.54164898E-24
  -3.70499992         1.55188839E-24
  -3.70000005         1.56208107E-24
  -3.69499993         1.57222661E-24
  -3.69000006         1.58232442E-24
  -3.68499994         1.59237451E-24
  -3.68000007         1.60237559E-24
  -3.67499995         1.61232697E-24
  -3.67000008         1.62222885E-24
  -3.66499996         1.63207965E-24
  -3.66000009         1.64187918E-24
  -3.65499997         1.65162595E-24
  -3.65000010         1.66131977E-24
  -3.64499998         1.67095945E-24
  -3.64000010         1.68054391E-24
  -3.63499999         1.69007217E-24
  -3.63000011         1.69954323E-24
  -3.62500000         1.70895572E-24
  -3.61999989         1.71830866E-24
  -3.61500001         1.72760085E-24
  -3.60999990         1.73683111E-24
  -3.60500002         1.74599807E-24
  -3.59999990         1.75510093E-24
  -3.59500003         1.76413773E-24
  -3.58999991         1.77310767E-24
  -3.58500004         1.78200878E-24
  -3.57999992         1.79084067E-24
  -3.57500005         1.79960156E-24
  -3.56999993         1.80829008E-24
  -3.56500006         1.81690503E-24
  -3.55999994         1.82544484E-24
  -3.55500007         1.83390873E-24
  -3.54999995         1.84229471E-24
  -3.54500008         1.85060162E-24
  -3.53999996         1.85882806E-24
  -3.53500009         1.86697324E-24
  -3.52999997         1.87503422E-24
  -3.52500010         1.88301078E-24
  -3.51999998         1.89090117E-24
  -3.51500010         1.89870379E-24
  -3.50999999         1.90641727E-24
  -3.50500011         1.91404023E-24
  -3.50000000         1.92157090E-24
  -3.49499989         1.92900749E-24
  -3.49000001         1.93634863E-24
  -3.48499990         1.94359293E-24
  -3.48000002         1.95073804E-24
  -3.47499990         1.95778277E-24
  -3.47000003         1.96472514E-24
  -3.46499991         1.97156338E-24
  -3.46000004         1.97829611E-24
  -3.45499992         1.98492136E-24
  -3.45000005         1.99143715E-24
  -3.44499993         1.99784172E-24
  -3.44000006         2.00413328E-24
  -3.43499994         2.01031065E-24
  -3.43000007         2.01637147E-24
  -3.42499995         2.02231435E-24
  -3.42000008         2.02813752E-24
  -3.41499996         2.03383902E-24
  -3.41000009         2.03941745E-24
  -3.40499997         2.04487124E-24
  -3.40000010         2.05019881E-24
  -3.39499998         2.05539839E-24
  -3.39000010         2.06046938E-24
  -3.38499999         2.06540903E-24
  -3.38000011         2.07021655E-24
  -3.37500000         2.07489114E-24
  -3.36999989         2.07943044E-24
  -3.36500001         2.08383406E-24
  -3.35999990         2.08810101E-24
  -3.35500002         2.09222912E-24
  -3.34999990         2.09621800E-24
  -3.34500003         2.10006665E-24
  -3.33999991         2.10377351E-24
  -3.33500004         2.10733817E-24
  -3.32999992         2.11075927E-24
  -3.32500005         2.11403619E-24
  -3.31999993         2.11716837E-24
  -3.31500006         2.12015401E-24
  -3.30999994         2.12299331E-24
  -3.30500007         2.12568491E-24
  -3.29999995         2.12822800E-24
  -3.29500008         2.13062259E-24
  -3.28999996         2.13286749E-24
  -3.28500009         2.13496270E-24
  -3.27999997         2.13690705E-24
  -3.27500010         2.13869993E-24
  -3.26999998         2.14034155E-24
  -3.26500010         2.14183092E-24
  -3.25999999         2.14316883E-24
  -3.25500011         2.14435429E-24
  -3.25000000         2.14538651E-24
  -3.24499989         2.14626668E-24
  -3.24000001         2.14699342E-24
  -3.23499990         2.14756811E-24
  -3.23000002         2.14798936E-24
  -3.22499990         2.14825836E-24
  -3.22000003         2.14837570E-24
  -3.21499991         2.14834119E-24
  -3.21000004         2.14815463E-24
  -3.20499992         2.14781798E-24
  -3.20000005         2.14733105E-24
  -3.19499993         2.14669405E-24
  -3.19000006         2.14590834E-24
  -3.18499994         2.14497512E-24
  -3.18000007         2.14389438E-24
  -3.17499995         2.14266770E-24
  -3.17000008         2.14129647E-24
  -3.16499996         2.13978126E-24
  -3.16000009         2.13812446E-24
  -3.15499997         2.13632684E-24
  -3.15000010         2.13438881E-24
  -3.14499998         2.13231311E-24
  -3.14000010         2.13010154E-24
  -3.13499999         2.12775527E-24
  -3.13000011         2.12527529E-24
  -3.12500000         2.12266535E-24
  -3.11999989         2.11992524E-24
  -3.11500001         2.11705871E-24
  -3.10999990         2.11406656E-24
  -3.10500002         2.11095175E-24
  -3.09999990         2.10771545E-24
  -3.09500003         2.10436121E-24
  -3.08999991         2.10089042E-24
  -3.08500004         2.09730505E-24
  -3.07999992         2.09360904E-24
  -3.07500005         2.08980278E-24
  -3.06999993         2.08589023E-24
  -3.06500006         2.08187335E-24
  -3.05999994         2.07775490E-24
  -3.05500007         2.07353805E-24
  -3.04999995         2.06922475E-24
  -3.04500008         2.06481719E-24
  -3.03999996         2.06031910E-24
  -3.03500009         2.05573267E-24
  -3.02999997         2.05106123E-24
  -3.02500010         2.04630677E-24
  -3.01999998         2.04147263E-24
  -3.01500010         2.03656216E-24
  -3.00999999         2.03157735E-24
  -3.00500011         2.02652233E-24
  -3.00000000         2.02139829E-24
  -2.99499989         2.01621074E-24
  -2.99000001         2.01096087E-24
  -2.98499990         2.00565282E-24
  -2.98000002         2.00029014E-24
  -2.97499990         1.99487580E-24
  -2.97000003         1.98941293E-24
  -2.96499991         1.98390590E-24
  -2.96000004         1.97835744E-24
  -2.95499992         1.97277231E-24
  -2.95000005         1.96715345E-24
  -2.94499993         1.96150461E-24
  -2.94000006         1.95582974E-24
  -2.93499994         1.95013437E-24
  -2.93000007         1.94442065E-24
  -2.92499995         1.93869312E-24
  -2.92000008         1.93295653E-24
  -2.91499996         1.92721401E-24
  -2.91000009         1.92146913E-24
  -2.90499997         1.91572721E-24
  -2.90000010         1.90999180E-24
  -2.89499998         1.90426605E-24
  -2.89000010         1.89855450E-24
  -2.88499999         1.89285932E-24
  -2.88000011         1.88718504E-24
  -2.87500000         1.88153542E-24
  -2.86999989         1.87591143E-24
  -2.86500001         1.87031762E-24
  -2.85999990         1.86475753E-24
  -2.85500002         1.85923136E-24
  -2.84999990         1.85374306E-24
  -2.84500003         1.84829459E-24
  -2.83999991         1.84288813E-24
  -2.83500004         1.83752605E-24
  -2.82999992         1.83221011E-24
  -2.82500005         1.82694309E-24
  -2.81999993         1.82172635E-24
  -2.81500006         1.81656168E-24
  -2.80999994         1.81145203E-24
  -2.80500007         1.80639977E-24
  -2.79999995         1.80140687E-24
  -2.79500008         1.79647609E-24
  -2.78999996         1.79161080E-24
  -2.78500009         1.78681353E-24
  -2.77999997         1.78208865E-24
  -2.77500010         1.77743832E-24
  -2.76999998         1.77286726E-24
  -2.76500010         1.76837924E-24
  -2.75999999         1.76397818E-24
  -2.75500011         1.75966883E-24
  -2.75000000         1.75545434E-24
  -2.74499989         1.75134004E-24
  -2.74000001         1.74732986E-24
  -2.73499990         1.74342717E-24
  -2.73000002         1.73963610E-24
  -2.72499990         1.73596080E-24
  -2.72000003         1.73240343E-24
  -2.71499991         1.72896696E-24
  -2.71000004         1.72565374E-24
  -2.70499992         1.72246497E-24
  -2.70000005         1.71940162E-24
  -2.69499993         1.71646410E-24
  -2.69000006         1.71365201E-24
  -2.68499994         1.71096436E-24
  -2.68000007         1.70839938E-24
  -2.67499995         1.70595529E-24
  -2.67000008         1.70362953E-24
  -2.66499996         1.70141914E-24
  -2.66000009         1.69932018E-24
  -2.65499997         1.69732969E-24
  -2.65000010         1.69544530E-24
  -2.64499998         1.69366247E-24
  -2.64000010         1.69197806E-24
  -2.63499999         1.69038988E-24
  -2.63000011         1.68889618E-24
  -2.62500000         1.68749536E-24
  -2.61999989         1.68618644E-24
  -2.61500001         1.68496942E-24
  -2.60999990         1.68384589E-24
  -2.60500002         1.68281780E-24
  -2.59999990         1.68188793E-24
  -2.59500003         1.68106042E-24
  -2.58999991         1.68033960E-24
  -2.58500004         1.67973158E-24
  -2.57999992         1.67924170E-24
  -2.57500005         1.67887587E-24
  -2.56999993         1.67864138E-24
  -2.56500006         1.67854395E-24
  -2.55999994         1.67859050E-24
  -2.55500007         1.67878534E-24
  -2.54999995         1.67913402E-24
  -2.54500008         1.67963968E-24
  -2.53999996         1.68030528E-24
  -2.53500009         1.68113102E-24
  -2.52999997         1.68211670E-24
  -2.52500010         1.68326016E-24
  -2.51999998         1.68455586E-24
  -2.51500010         1.68599810E-24
  -2.50999999         1.68757819E-24
  -2.50500011         1.68928666E-24
  -2.50000000         1.69111189E-24
  -2.49499989         1.69304105E-24
  -2.49000001         1.69505994E-24
  -2.48499990         1.69715515E-24
  -2.48000002         1.69931072E-24
  -2.47499990         1.70151322E-24
  -2.47000003         1.70374707E-24
  -2.46499991         1.70600045E-24
  -2.46000004         1.70826113E-24
  -2.45499992         1.71051944E-24
  -2.45000005         1.71276868E-24
  -2.44499993         1.71500274E-24
  -2.44000006         1.71722023E-24
  -2.43499994         1.71942194E-24
  -2.43000007         1.72161122E-24
  -2.42499995         1.72379735E-24
  -2.42000008         1.72598802E-24
  -2.41499996         1.72819762E-24
  -2.41000009         1.73043976E-24
  -2.40499997         1.73273258E-24
  -2.40000010         1.73509443E-24
  -2.39499998         1.73754483E-24
  -2.39000010         1.74010271E-24
  -2.38499999         1.74278701E-24
  -2.38000011         1.74561527E-24
  -2.37500000         1.74860269E-24
  -2.36999989         1.75176149E-24
  -2.36500001         1.75510014E-24
  -2.35999990         1.75862517E-24
  -2.35500002         1.76233558E-24
  -2.34999990         1.76622722E-24
  -2.34500003         1.77028986E-24
  -2.33999991         1.77450829E-24
  -2.33500004         1.77886359E-24
  -2.32999992         1.78332993E-24
  -2.32500005         1.78787830E-24
  -2.31999993         1.79247578E-24
  -2.31500006         1.79708667E-24
  -2.30999994         1.80167311E-24
  -2.30500007         1.80619644E-24
  -2.29999995         1.81061781E-24
  -2.29500008         1.81490112E-24
  -2.28999996         1.81901089E-24
  -2.28500009         1.82291733E-24
  -2.27999997         1.82659540E-24
  -2.27500010         1.83002556E-24
  -2.26999998         1.83319501E-24
  -2.26500010         1.83609959E-24
  -2.25999999         1.83874188E-24
  -2.25500011         1.84113430E-24
  -2.25000000         1.84329755E-24
  -2.24499989         1.84525827E-24
  -2.24000001         1.84705352E-24
  -2.23499990         1.84872551E-24
  -2.23000002         1.85032157E-24
  -2.22499990         1.85189436E-24
  -2.22000003         1.85349851E-24
  -2.21499991         1.85519022E-24
  -2.21000004         1.85702334E-24
  -2.20499992         1.85905111E-24
  -2.20000005         1.86131987E-24
  -2.19499993         1.86387144E-24
  -2.19000006         1.86673717E-24
  -2.18499994         1.86994074E-24
  -2.18000007         1.87349377E-24
  -2.17499995         1.87739626E-24
  -2.17000008         1.88163481E-24
  -2.16499996         1.88618496E-24
  -2.16000009         1.89100766E-24
  -2.15499997         1.89605361E-24
  -2.15000010         1.90126108E-24
  -2.14499998         1.90655946E-24
  -2.14000010         1.91187165E-24
  -2.13499999         1.91711206E-24
  -2.13000011         1.92219548E-24
  -2.12500000         1.92703415E-24
  -2.11999989         1.93154328E-24
  -2.11500001         1.93564279E-24
  -2.10999990         1.93926229E-24
  -2.10500002         1.94234042E-24
  -2.09999990         1.94483007E-24
  -2.09500003         1.94669829E-24
  -2.08999991         1.94792930E-24
  -2.08500004         1.94852746E-24
  -2.07999992         1.94851286E-24
  -2.07500005         1.94792654E-24
  -2.06999993         1.94682687E-24
  -2.06500006         1.94529017E-24
  -2.05999994         1.94340795E-24
  -2.05500007         1.94128374E-24
  -2.04999995         1.93903292E-24
  -2.04500008         1.93677599E-24
  -2.03999996         1.93463857E-24
  -2.03500009         1.93274373E-24
  -2.02999997         1.93120999E-24
  -2.02500010         1.93014798E-24
  -2.01999998         1.92965435E-24
  -2.01500010         1.92981015E-24
  -2.00999999         1.93067593E-24
  -2.00500011         1.93228915E-24
  -2.00000000         1.93466441E-24
  -1.99500000         1.93778948E-24
  -1.99000001         1.94162374E-24
  -1.98500001         1.94610368E-24
  -1.98000002         1.95113859E-24
  -1.97500002         1.95661407E-24
  -1.97000003         1.96239820E-24
  -1.96500003         1.96834029E-24
  -1.96000004         1.97427864E-24
  -1.95500004         1.98004383E-24