  -6.00000000       0.00000000    
  -5.99499989       0.00000000    
  -5.98999977       1.31332460E-25
  -5.98500013       7.46713941E-25
  -5.98000002       2.37901556E-24
  -5.97499990       5.15492124E-24
  -5.96999979       7.10345579E-24
  -5.96500015       7.30474598E-25
  -5.96000004      -3.27391948E-23
  -5.95499992      -1.31909206E-22
  -5.94999981      -3.66745600E-22
  -5.94500017      -8.52920046E-22
  -5.94000006      -1.76832616E-21
  -5.93499994      -3.37057843E-21
  -5.92999983      -6.01374846E-21
  -5.92500019      -1.01619946E-20
  -5.92000008      -1.63973515E-20
  -5.91499996      -2.54183959E-20
  -5.90999985      -3.80264718E-20
  -5.90500021      -5.50960772E-20
  -5.90000010      -7.75264366E-20
  -5.89499998      -1.06171960E-19
  -5.88999987      -1.41749767E-19
  -5.88500023      -1.84724747E-19
  -5.88000011      -2.35173135E-19
  -5.87500000      -2.92628532E-19
  -5.86999989      -3.55914905E-19
  -5.86499977      -4.22975265E-19
  -5.86000013      -4.90705408E-19
  -5.85500002      -5.54804409E-19
  -5.84999990      -6.09653825E-19
  -5.84499979      -6.48243817E-19
  -5.84000015      -6.62155909E-19
  -5.83500004      -6.41621047E-19
  -5.82999992      -5.75664612E-19
  -5.82499981      -4.52348423E-19
  -5.82000017      -2.59121461E-19
  -5.81500006       1.67304840E-20
  -5.80999994       3.87514730E-19
  -5.80499983       8.64475498E-19
  -5.80000019       1.45705394E-18
  -5.79500008       2.17208158E-18
  -5.78999996       3.01295492E-18
  -5.78499985       3.97881195E-18
  -5.78000021       5.06374577E-18
  -5.77500010       6.25613820E-18
  -5.76999998       7.53813580E-18
  -5.76499987       8.88527636E-18
  -5.76000023       1.02664413E-17
  -5.75500011       1.16440213E-17
  -5.75000000       1.29744470E-17
  -5.74499989       1.42090803E-17
  -5.73999977       1.52954232E-17
  -5.73500013       1.61787429E-17
  -5.73000002       1.68039707E-17
  -5.72499990       1.71180032E-17
  -5.71999979       1.70721426E-17
  -5.71500015       1.66247024E-17
  -5.71000004       1.57437948E-17
  -5.70499992       1.44099032E-17
  -5.69999981       1.26183631E-17
  -5.69500017       1.03814997E-17
  -5.69000006       7.73038250E-18
  -5.68499994       4.71578480E-18
  -5.67999983       1.40873046E-18
  -5.67500019      -2.10008398E-18
  -5.67000008      -5.70163643E-18
  -5.66499996      -9.27081862E-18
  -5.65999985      -1.26698857E-17
  -5.65500021      -1.57525546E-17
  -5.65000010      -1.83693388E-17
  -5.64499998      -2.03732600E-17
  -5.63999987      -2.16266338E-17
  -5.63500023      -2.20076663E-17
  -5.63000011      -2.14176367E-17
  -5.62500000      -1.97876806E-17
  -5.61999989      -1.70853891E-17
  -5.61499977      -1.33198156E-17
  -5.61000013      -8.54660462E-18
  -5.60500002      -2.87022822E-18
  -5.59999990       3.55427515E-18
  -5.59499979       1.05222800E-17
  -5.59000015       1.77828711E-17
  -5.58500004       2.50437914E-17
  -5.57999992       3.19796230E-17
  -5.57499981       3.82408476E-17
  -5.57000017       4.34672559E-17
  -5.56500006       4.73006028E-17
  -5.55999994       4.94008276E-17
  -5.55499983       4.94627636E-17
  -5.55000019       4.72317218E-17
  -5.54500008       4.25219076E-17
  -5.53999996       3.52313494E-17
  -5.53499985       2.53563846E-17
  -5.53000021       1.30039269E-17
  -5.52500010      -1.59992333E-18
  -5.51999998      -1.81032911E-17
  -5.51499987      -3.60293637E-17
  -5.51000023      -5.47772964E-17
  -5.50500011      -7.36320513E-17
  -5.50000000      -9.17776213E-17
  -5.49499989      -1.08316376E-16
  -5.48999977      -1.22289548E-16
  -5.48500013      -1.32708027E-16
  -5.48000002      -1.38583180E-16
  -5.47499990      -1.38960030E-16
  -5.46999979      -1.32955757E-16
  -5.46500015      -1.19796254E-16
  -5.46000004      -9.88518022E-17
  -5.45499992      -6.96745480E-17
  -5.44999981      -3.20297105E-17
  -5.44500017       1.40780549E-17
  -5.44000006       6.83809037E-17
  -5.43499994       1.30334071E-16
  -5.42999983       1.99109097E-16
  -5.42500019       2.73595639E-16
  -5.42000008       3.52411975E-16
  -5.41499996       4.33928150E-16
  -5.40999985       5.16294110E-16
  -5.40500021       5.97480947E-16
  -5.40000010       6.75326928E-16
  -5.39499998       7.47596944E-16
  -5.38999987       8.12039422E-16
  -5.38500023       8.66454089E-16
  -5.38000011       9.08757297E-16
  -5.37500000       9.37056774E-16
  -5.36999989       9.49710175E-16
  -5.36499977       9.45389778E-16
  -5.36000013       9.23140869E-16
  -5.35500002       8.82422937E-16
  -5.34999990       8.23150377E-16
  -5.34499979       7.45714307E-16
  -5.34000015       6.50991248E-16
  -5.33500004       5.40343705E-16
  -5.32999992       4.15593460E-16
  -5.32499981       2.78992536E-16
  -5.32000017       1.33171685E-16
  -5.31500006      -1.89233612E-17
  -5.30999994      -1.74108059E-16
  -5.30499983      -3.29042019E-16
  -5.30000019      -4.80325173E-16
  -5.29500008      -6.24595743E-16
  -5.28999996      -7.58631242E-16
  -5.28499985      -8.79447575E-16
  -5.28000021      -9.84394374E-16
  -5.27500010      -1.07124733E-15
  -5.26999998      -1.13827760E-15
  -5.26499987      -1.18432284E-15
  -5.26000023      -1.20882846E-15
  -5.25500011      -1.21188021E-15
  -5.25000000      -1.19421449E-15
  -5.24499989      -1.15720307E-15
  -5.23999977      -1.10282070E-15
  -5.23500013      -1.03359937E-15
  -5.23000002      -9.52542442E-16
  -5.22499990      -8.63047746E-16
  -5.21999979      -7.68788702E-16
  -5.21500015      -6.73604381E-16
  -5.21000004      -5.81371440E-16
  -5.20499992      -4.95863358E-16
  -5.19999981      -4.20635741E-16
  -5.19500017      -3.58875128E-16
  -5.19000006      -3.13289456E-16
  -5.18499994      -2.85998531E-16
  -5.17999983      -2.78437756E-16
  -5.17500019      -2.91281581E-16
  -5.17000008      -3.24408801E-16
  -5.16499996      -3.76854434E-16
  -5.15999985      -4.46825709E-16
  -5.15500021      -5.31728427E-16
  -5.15000010      -6.28219508E-16
  -5.14499998      -7.32293441E-16
  -5.13999987      -8.39387363E-16
  -5.13500023      -9.44516699E-16
  -5.13000011      -1.04241137E-15
  -5.12500000      -1.12768990E-15
  -5.11999989      -1.19501939E-15
  -5.11499977      -1.23930015E-15
  -5.11000013      -1.25584239E-15
  -5.10500002      -1.24051819E-15
  -5.09999990      -1.18993592E-15
  -5.09499979      -1.10156444E-15
  -5.09000015      -9.73862684E-16
  -5.08500004      -8.06359537E-16
  -5.07999992      -5.99700438E-16
  -5.07499981      -3.55701189E-16
  -5.07000017      -7.73204695E-17
  -5.06500006       2.31384440E-16
  -5.05999994       5.65329006E-16
  -5.05499983       9.18502834E-16
  -5.05000019       1.28414366E-15
  -5.04500008       1.65487188E-15
  -5.03999996       2.02290484E-15
  -5.03499985       2.38023987E-15
  -5.03000021       2.71889042E-15
  -5.02500010       3.03111630E-15
  -5.01999998       3.30962009E-15
  -5.01499987       3.54776595E-15
  -5.01000023       3.73978768E-15
  -5.00500011       3.88094615E-15
  -5.00000000       3.96767851E-15
  -4.99499989       3.99771091E-15
  -4.98999977       3.97011839E-15
  -4.98500013       3.88540112E-15
  -4.98000002       3.74541918E-15
  -4.97499990       3.55341079E-15
  -4.96999979       3.31383916E-15
  -4.96500015       3.03232014E-15
  -4.96000004       2.71543389E-15
  -4.95499992       2.37050810E-15
  -4.94999981       2.00546295E-15
  -4.94500017       1.62853741E-15
  -4.94000006       1.24803359E-15
  -4.93499994       8.72073888E-16
  -4.92999983       5.08381605E-16
  -4.92500019       1.64016720E-16
  -4.92000008      -1.54802921E-16
  -4.91499996      -4.42928986E-16
  -4.90999985      -6.96406349E-16
  -4.90500021      -9.12595627E-16
  -4.90000010      -1.09024618E-15
  -4.89499998      -1.22952327E-15
  -4.88999987      -1.33197127E-15
  -4.88500023      -1.40047655E-15
  -4.88000011      -1.43913396E-15
  -4.87500000      -1.45313087E-15
  -4.86999989      -1.44847303E-15
  -4.86499977      -1.43188950E-15
  -4.86000013      -1.41047789E-15
  -4.85500002      -1.39150350E-15
  -4.84999990      -1.38212971E-15
  -4.84499979      -1.38912525E-15
  -4.84000015      -1.41859543E-15
  -4.83500004      -1.47581420E-15
  -4.82999992      -1.56497225E-15
  -4.82499981      -1.68890397E-15
  -4.82000017      -1.84913137E-15
  -4.81500006      -2.04560977E-15
  -4.80999994      -2.27680169E-15
  -4.80499983      -2.53953077E-15
  -4.80000019      -2.82922663E-15
  -4.79500008      -3.13985690E-15
  -4.78999996      -3.46418158E-15
  -4.78499985      -3.79393850E-15
  -4.78000021      -4.11999960E-15
  -4.77500010      -4.43273814E-15
  -4.76999998      -4.72218369E-15
  -4.76499987      -4.97845859E-15
  -4.76000023      -5.19192148E-15
  -4.75500011      -5.35358704E-15
  -4.75000000      -5.45535805E-15
  -4.74499989      -5.49016771E-15
  -4.73999977      -5.45242774E-15
  -4.73500013      -5.33798850E-15
  -4.73000002      -5.14421447E-15
  -4.72499990      -4.87044114E-15
  -4.71999979      -4.51763159E-15
  -4.71500015      -4.08846286E-15
  -4.71000004      -3.58739968E-15
  -4.70499992      -3.02022155E-15
  -4.69999981      -2.39428199E-15
  -4.69500017      -1.71800082E-15
  -4.69000006      -1.00063623E-15
  -4.68499994      -2.52283046E-16
  -4.67999983       5.16829382E-16
  -4.67500019       1.29630113E-15
  -4.67000008       2.07586155E-15
  -4.66499996       2.84586468E-15
  -4.65999985       3.59735570E-15
  -4.65500021       4.32228970E-15
  -4.65000010       5.01405177E-15
  -4.64499998       5.66701168E-15
  -4.63999987       6.27709393E-15
  -4.63500023       6.84167146E-15
  -4.63000011       7.35950844E-15
  -4.62500000       7.83124057E-15
  -4.61999989       8.25806386E-15
  -4.61499977       8.64322499E-15
  -4.61000013       8.99015867E-15
  -4.60500002       9.30383700E-15
  -4.59999990       9.58949971E-15
  -4.59499979       9.85283463E-15
  -4.59000015       1.00997413E-14
  -4.58500004       1.03356392E-14
  -4.57999992       1.05660491E-14
  -4.57499981       1.07957212E-14
  -4.57000017       1.10283486E-14
  -4.56500006       1.12672458E-14
  -4.55999994       1.15143058E-14
  -4.55499983       1.17701784E-14
  -4.55000019       1.20347059E-14
  -4.54500008       1.23063215E-14
  -4.53999996       1.25820366E-14
  -4.53499985       1.28583083E-14
  -4.53000021       1.31303685E-14
  -4.52500010       1.33925980E-14
  -4.51999998       1.36384375E-14
  -4.51499987       1.38616925E-14
  -4.51000023       1.40549659E-14
  -4.50500011       1.42114697E-14
  -4.50000000       1.43241183E-14
  -4.49499989       1.43865920E-14
  -4.48999977       1.43922384E-14
  -4.48500013       1.43363003E-14
  -4.48000002       1.42138278E-14
  -4.47499990       1.40210719E-14
  -4.46999979       1.37552238E-14
  -4.46500015       1.34143159E-14
  -4.46000004       1.29981288E-14
  -4.45499992       1.25063229E-14
  -4.44999981       1.19396587E-14
  -4.44500017       1.13008061E-14
  -4.44000006       1.05918666E-14
  -4.43499994       9.81660618E-15
  -4.42999983       8.97837560E-15
  -4.42500019       8.08066382E-15
  -4.42000008       7.12871653E-15
  -4.41499996       6.12666342E-15
  -4.40999985       5.07833945E-15
  -4.40500021       3.98838762E-15
  -4.40000010       2.86016916E-15
  -4.39499998       1.69730188E-15
  -4.38999987       5.02960647E-16
  -4.38500023      -7.19849150E-16
  -4.38000011      -1.96967157E-15
  -4.37500000      -3.24458617E-15
  -4.36999989      -4.54362576E-15
  -4.36499977      -5.86495904E-15
  -4.36000013      -7.20934475E-15
  -4.35500002      -8.57617979E-15
  -4.34999990      -9.96551965E-15
  -4.34499979      -1.13777099E-14
  -4.34000015      -1.28133816E-14
  -4.33500004      -1.42735368E-14
  -4.32999992      -1.57577436E-14
  -4.32499981      -1.72673917E-14
  -4.32000017      -1.88034995E-14
  -4.31500006      -2.03652165E-14
  -4.30999994      -2.19536642E-14
  -4.30499983      -2.35694626E-14
  -4.30000019      -2.52115562E-14
  -4.29500008      -2.68813868E-14
  -4.28999996      -2.85777329E-14
  -4.28499985      -3.03004895E-14
  -4.28000021      -3.20504934E-14
  -4.27500010      -3.38267825E-14
  -4.26999998      -3.56283030E-14
  -4.26499987      -3.74550210E-14
  -4.26000023      -3.93076413E-14
  -4.25500011      -4.11833789E-14
  -4.25000000      -4.30834838E-14
  -4.24499989      -4.50044631E-14
  -4.23999977      -4.69461472E-14
  -4.23500013      -4.89069099E-14
  -4.23000002      -5.08867206E-14
  -4.22499990      -5.28800399E-14
  -4.21999979      -5.48855462E-14
  -4.21500015      -5.68997567E-14
  -4.21000004      -5.89187377E-14
  -4.20499992      -6.09380574E-14
  -4.19999981      -6.29530269E-14
  -4.19500017      -6.49556093E-14
  -4.19000006      -6.69439615E-14
  -4.18499994      -6.89074110E-14
  -4.17999983      -7.08409229E-14
  -4.17500019      -7.27376330E-14
  -4.17000008      -7.45888540E-14
  -4.16499996      -7.63879316E-14
  -4.15999985      -7.81263956E-14
  -4.15500021      -7.97991163E-14
  -4.15000010      -8.13987617E-14
  -4.14499998      -8.29202497E-14
  -4.13999987      -8.43594807E-14
  -4.13500023      -8.57121313E-14
  -4.13000011      -8.69751591E-14
  -4.12500000      -8.81482184E-14
  -4.11999989      -8.92316481E-14
  -4.11499977      -9.02295206E-14
  -4.11000013      -9.11416667E-14
  -4.10500002      -9.19737851E-14
  -4.09999990      -9.27359115E-14
  -4.09499979      -9.34329586E-14
  -4.09000015      -9.40739592E-14
  -4.08500004      -9.46704195E-14
  -4.07999992      -9.52339268E-14
  -4.07499981      -9.57734665E-14
  -4.07000017      -9.63046713E-14
  -4.06500006      -9.68378548E-14
  -4.05999994      -9.73845299E-14
  -4.05499983      -9.79571919E-14
  -4.05000019      -9.85667507E-14
  -4.04500008      -9.92246853E-14
  -4.03999996      -9.99346276E-14
  -4.03499985      -1.00709283E-13
  -4.03000021      -1.01553951E-13
  -4.02500010      -1.02473768E-13
  -4.01999998      -1.03470733E-13
  -4.01499987      -1.04549026E-13
  -4.01000023      -1.05709427E-13
  -4.00500011      -1.06951408E-13
  -4.00000000      -1.08271505E-13
  -3.99499989      -1.09673447E-13
  -3.99000001      -1.11153762E-13
  -3.98499990      -1.12711686E-13
  -3.98000002      -1.14342888E-13
  -3.97499990      -1.16053990E-13
  -3.97000003      -1.17836215E-13
  -3.96499991      -1.19698847E-13
  -3.96000004      -1.21648568E-13
  -3.95499992      -1.23684673E-13
  -3.95000005      -1.25824982E-13
  -3.94499993      -1.28069498E-13
  -3.94000006      -1.30439469E-13
  -3.93499994      -1.32948841E-13
  -3.93000007      -1.35615057E-13
  -3.92499995      -1.38461210E-13
  -3.92000008      -1.41507682E-13
  -3.91499996      -1.44777907E-13
  -3.91000009      -1.48307432E-13
  -3.90499997      -1.52106152E-13
  -3.90000010      -1.56214993E-13
  -3.89499998      -1.60662458E-13
  -3.89000010      -1.65468862E-13
  -3.88499999      -1.70660429E-13
  -3.88000011      -1.76276840E-13
  -3.87500000      -1.82328165E-13
  -3.86999989      -1.88844938E-13
  -3.86500001      -1.95844819E-13
  -3.85999990      -2.03344164E-13
  -3.85500002      -2.11360728E-13
  -3.84999990      -2.19904498E-13
  -3.84500003      -2.28991603E-13
  -3.83999991      -2.38627016E-13
  -3.83500004      -2.48814668E-13
  -3.82999992      -2.59555534E-13
  -3.82500005      -2.70863654E-13
  -3.81999993      -2.82727780E-13
  -3.81500006      -2.95143196E-13
  -3.80999994      -3.08122153E-13
  -3.80500007      -3.21660829E-13
  -3.79999995      -3.35746215E-13
  -3.79500008      -3.50393054E-13
  -3.78999996      -3.65611214E-13
  -3.78500009      -3.81373454E-13
  -3.77999997      -3.97721813E-13
  -3.77500010      -4.14640571E-13
  -3.76999998      -4.32156969E-13
  -3.76500010      -4.50272821E-13
  -3.75999999      -4.69013500E-13
  -3.75500011      -4.88402125E-13
  -3.75000000      -5.08443222E-13
  -3.74499989      -5.29182004E-13
  -3.74000001      -5.50634137E-13
  -3.73499990      -5.72833935E-13
  -3.73000002      -5.95809968E-13
  -3.72499990      -6.19584028E-13
  -3.72000003      -6.44198724E-13
  -3.71499991      -6.69675253E-13
  -3.71000004      -6.96027220E-13
  -3.70499992      -7.23317131E-13
  -3.70000005      -7.51546774E-13
  -3.69499993      -7.80737183E-13
  -3.69000006      -8.10921100E-13
  -3.68499994      -8.42092292E-13
  -3.68000007      -8.74304535E-13
  -3.67499995      -9.07545903E-13
  -3.67000008      -9.41820840E-13
  -3.66499996      -9.77141978E-13
  -3.66000009      -1.01352195E-12
  -3.65499997      -1.05093169E-12
  -3.65000010      -1.08941849E-12
  -3.64499998      -1.12895186E-12
  -3.64000010      -1.16955339E-12
  -3.63499999      -1.21119445E-12
  -3.63000011      -1.25388534E-12
  -3.62500000      -1.29763800E-12
  -3.61999989      -1.34244005E-12
  -3.61500001      -1.38830625E-12
  -3.60999990      -1.43522564E-12
  -3.60500002      -1.48323454E-12
  -3.59999990      -1.53231475E-12
  -3.59500003      -1.58251006E-12
  -3.58999991      -1.63382567E-12
  -3.58500004      -1.68627666E-12
  -3.57999992      -1.73989534E-12
  -3.57500005      -1.79469850E-12
  -3.56999993      -1.85071576E-12
  -3.56500006      -1.90801194E-12
  -3.55999994      -1.96656775E-12
  -3.55500007      -2.02643718E-12
  -3.54999995      -2.08766229E-12
  -3.54500008      -2.15027367E-12
  -3.53999996      -2.21429689E-12
  -3.53500009      -2.27976557E-12
  -3.52999997      -2.34671744E-12
  -3.52500010      -2.41519456E-12
  -3.51999998      -2.48520041E-12
  -3.51500010      -2.55679137E-12
  -3.50999999      -2.62996330E-12
  -3.50500011      -2.70475439E-12
  -3.50000000      -2.78117286E-12
  -3.49499989      -2.85924995E-12
  -3.49000001      -2.93900277E-12
  -3.48499990      -3.02046973E-12
  -3.48000002      -3.10360721E-12
  -3.47499990      -3.18846186E-12
  -3.47000003      -3.27509699E-12
  -3.46499991      -3.36343496E-12
  -3.46000004      -3.45354778E-12
  -3.45499992      -3.54546340E-12
  -3.45000005      -3.63917577E-12
  -3.44499993      -3.73470872E-12
  -3.44000006      -3.83209480E-12
  -3.43499994      -3.93135828E-12
  -3.43000007      -4.03257028E-12
  -3.42499995      -4.13565536E-12
  -3.42000008      -4.24080476E-12
  -3.41499996      -4.34789878E-12
  -3.41000009      -4.45712521E-12
  -3.40499997      -4.56847884E-12
  -3.40000010      -4.68194060E-12
  -3.39499998      -4.79768959E-12
  -3.39000010      -4.91570760E-12
  -3.38499999      -5.03611042E-12
  -3.38000011      -5.15888764E-12
  -3.37500000      -5.28414118E-12
  -3.36999989      -5.41194390E-12
  -3.36500001      -5.54234176E-12
  -3.35999990      -5.67542064E-12
  -3.35500002      -5.81126076E-12
  -3.34999990      -5.94994583E-12
  -3.34500003      -6.09150360E-12
  -3.33999991      -6.23598092E-12
  -3.33500004      -6.38351308E-12
  -3.32999992      -6.53414389E-12
  -3.32500005      -6.68796572E-12
  -3.31999993      -6.84494735E-12
  -3.31500006      -7.00530389E-12
  -3.30999994      -7.16900064E-12
  -3.30500007      -7.33615165E-12
  -3.29999995      -7.50679293E-12
  -3.29500008      -7.68094789E-12
  -3.28999996      -7.85880042E-12
  -3.28500009      -8.04033749E-12
  -3.27999997      -8.22573433E-12
  -3.27500010      -8.41492414E-12
  -3.26999998      -8.60804136E-12
  -3.26500010      -8.80520136E-12
  -3.25999999      -9.00642928E-12
  -3.25500011      -9.21186911E-12
  -3.25000000      -9.42156509E-12
  -3.24499989      -9.63555711E-12
  -3.24000001      -9.85398829E-12
  -3.23499990      -1.00769228E-11
  -3.23000002      -1.03045688E-11
  -3.22499990      -1.05368587E-11
  -3.22000003      -1.07739685E-11
  -3.21499991      -1.10160726E-11
  -3.21000004      -1.12631180E-11
  -3.20499992      -1.15153720E-11
  -3.20000005      -1.17728370E-11
  -3.19499993      -1.20355965E-11
  -3.19000006      -1.23038871E-11
  -3.18499994      -1.25777227E-11
  -3.18000007      -1.28572552E-11
  -3.17499995      -1.31426051E-11
  -3.17000008      -1.34338322E-11
  -3.16499996      -1.37310692E-11
  -3.16000009      -1.40344784E-11
  -3.15499997      -1.43441101E-11
  -3.15000010      -1.46600839E-11
  -3.14499998      -1.49824736E-11
  -3.14000010      -1.53114639E-11
  -3.13499999      -1.56470965E-11
  -3.13000011      -1.59894927E-11
  -3.12500000      -1.63388938E-11
  -3.11999989      -1.66951088E-11
  -3.11500001      -1.70584744E-11
  -3.10999990      -1.74290010E-11
  -3.10500002      -1.78067942E-11
  -3.09999990      -1.81920156E-11
  -3.09500003      -1.85847154E-11
  -3.08999991      -1.89849976E-11
  -3.08500004      -1.93929092E-11
  -3.07999992      -1.98087224E-11
  -3.07500005      -2.02323869E-11
  -3.06999993      -2.06641215E-11
  -3.06500006      -2.11039623E-11
  -3.05999994      -2.15520050E-11
  -3.05500007      -2.20083569E-11
  -3.04999995      -2.24731379E-11
  -3.04500008      -2.29466064E-11
  -3.03999996      -2.34286531E-11
  -3.03500009      -2.39194827E-11
  -3.02999997      -2.44192704E-11
  -3.02500010      -2.49280561E-11
  -3.01999998      -2.54459787E-11
  -3.01500010      -2.59732149E-11
  -3.00999999      -2.65097250E-11
  -3.00500011      -2.70558315E-11
  -3.00000000      -2.76114964E-11
  -2.99499989      -2.81767804E-11
  -2.99000001      -2.87520355E-11
  -2.98499990      -2.93371508E-11
  -2.98000002      -2.99323899E-11
  -2.97499990      -3.05376419E-11
  -2.97000003      -3.11532779E-11
  -2.96499991      -3.17792737E-11
  -2.96000004      -3.24156049E-11
  -2.95499992      -3.30625700E-11
  -2.95000005      -3.37200892E-11
  -2.94499993      -3.43884018E-11
  -2.94000006      -3.50675530E-11
  -2.93499994      -3.57574699E-11
  -2.93000007      -3.64585064E-11
  -2.92499995      -3.71704958E-11
  -2.92000008      -3.78936847E-11
  -2.91499996      -3.86281146E-11
  -2.91000009      -3.93737334E-11
  -2.90499997      -4.01307529E-11
  -2.90000010      -4.08992944E-11
  -2.89499998      -4.16793058E-11
  -2.89000010      -4.24708567E-11
  -2.88499999      -4.32741620E-11
  -2.88000011      -4.40891768E-11
  -2.87500000      -4.49160049E-11
  -2.86999989      -4.57547125E-11
  -2.86500001      -4.66054417E-11
  -2.85999990      -4.74681058E-11
  -2.85500002      -4.83430518E-11
  -2.84999990      -4.92299916E-11
  -2.84500003      -5.01292445E-11
  -2.83999991      -5.10408243E-11
  -2.83500004      -5.19647936E-11
  -2.82999992      -5.29011383E-11
  -2.82500005      -5.38500668E-11
  -2.81999993      -5.48114748E-11
  -2.81500006      -5.57854318E-11
  -2.80999994      -5.67718303E-11
  -2.80500007      -5.77710900E-11
  -2.79999995      -5.87829507E-11
  -2.79500008      -5.98076796E-11
  -2.78999996      -6.08448847E-11
  -2.78500009      -6.18949822E-11
  -2.77999997      -6.29577016E-11
  -2.77500010      -6.40331815E-11
  -2.76999998      -6.51214638E-11
  -2.76500010      -6.62225066E-11
  -2.75999999      -6.73363795E-11
  -2.75500011      -6.84626730E-11
  -2.75000000      -6.96017341E-11
  -2.74499989      -7.07535072E-11
  -2.74000001      -7.19178397E-11
  -2.73499990      -7.30946206E-11
  -2.73000002      -7.42840650E-11
  -2.72499990      -7.54861729E-11
  -2.72000003      -7.67007499E-11
  -2.71499991      -7.79276366E-11
  -2.71000004      -7.91664997E-11
  -2.70499992      -8.04178668E-11
  -2.70000005      -8.16816545E-11
  -2.69499993      -8.29572383E-11
  -2.69000006      -8.42451039E-11
  -2.68499994      -8.55453139E-11
  -2.68000007      -8.68566538E-11
  -2.67499995      -8.81804352E-11
  -2.67000008      -8.95155131E-11
  -2.66499996      -9.08622899E-11
  -2.66000009      -9.22202800E-11
  -2.65499997      -9.35898928E-11
  -2.65000010      -9.49708784E-11
  -2.64499998      -9.63624111E-11
  -2.64000010      -9.77648240E-11
  -2.63499999      -9.91784987E-11
  -2.63000011      -1.00602388E-10
  -2.62500000      -1.02037254E-10
  -2.61999989      -1.03481716E-10
  -2.61500001      -1.04936150E-10
  -2.60999990      -1.06400964E-10
  -2.60500002      -1.07874605E-10
  -2.59999990      -1.09358786E-10
  -2.59500003      -1.10851467E-10
  -2.58999991      -1.12353078E-10
  -2.58500004      -1.13863266E-10
  -2.57999992      -1.15381205E-10
  -2.57500005      -1.16908302E-10
  -2.56999993      -1.18443463E-10
  -2.56500006      -1.19985091E-10
  -2.55999994      -1.21534782E-10
  -2.55500007      -1.23092883E-10
  -2.54999995      -1.24655578E-10
  -2.54500008      -1.26224850E-10
  -2.53999996      -1.27800243E-10
  -2.53500009      -1.29381880E-10
  -2.52999997      -1.30969083E-10
  -2.52500010      -1.32560976E-10
  -2.51999998      -1.34156436E-10
  -2.51500010      -1.35758044E-10
  -2.50999999      -1.37361608E-10
  -2.50500011      -1.38969100E-10
  -2.50000000      -1.40580061E-10
  -2.49499989      -1.42193049E-10
  -2.49000001      -1.43805856E-10
  -2.48499990      -1.45422910E-10
  -2.48000002      -1.47039950E-10
  -2.47499990      -1.48656781E-10
  -2.47000003      -1.50275015E-10
  -2.46499991      -1.51891902E-10
  -2.46000004      -1.53506236E-10
  -2.45499992      -1.55119653E-10
  -2.45000005      -1.56731988E-10
  -2.44499993      -1.58340480E-10
  -2.44000006      -1.59944863E-10
  -2.43499994      -1.61545777E-10
  -2.43000007      -1.63141389E-10
  -2.42499995      -1.64731923E-10
  -2.42000008      -1.66318265E-10
  -2.41499996      -1.67893990E-10
  -2.41000009      -1.69466732E-10
  -2.40499997      -1.71027623E-10
  -2.40000010      -1.72581616E-10
  -2.39499998      -1.74125825E-10
  -2.39000010      -1.75660569E-10
  -2.38499999      -1.77184059E-10
  -2.38000011      -1.78696932E-10
  -2.37500000      -1.80194720E-10
  -2.36999989      -1.81680948E-10
  -2.36500001      -1.83154755E-10
  -2.35999990      -1.84610466E-10
  -2.35500002      -1.86050800E-10
  -2.34999990      -1.87480365E-10
  -2.34500003      -1.88886851E-10
  -2.33999991      -1.90273214E-10
  -2.33500004      -1.91645158E-10
  -2.32999992      -1.92992997E-10
  -2.32500005      -1.94320532E-10
  -2.31999993      -1.95627486E-10
  -2.31500006      -1.96910058E-10
  -2.30999994      -1.98171424E-10
  -2.30500007      -1.99402536E-10
  -2.29999995      -2.00607669E-10
  -2.29500008      -2.01785741E-10
  -2.28999996      -2.02936487E-10
  -2.28500009      -2.04056355E-10
  -2.27999997      -2.05147843E-10
  -2.27500010      -2.06201473E-10
  -2.26999998      -2.07225598E-10
  -2.26500010      -2.08215195E-10
  -2.25999999      -2.09167933E-10
  -2.25500011      -2.10082687E-10
  -2.25000000      -2.10959916E-10
  -2.24499989      -2.11802076E-10
  -2.24000001      -2.12602200E-10
  -2.23499990      -2.13358928E-10
  -2.23000002      -2.14069346E-10
  -2.22499990      -2.14744222E-10
  -2.22000003      -2.15371068E-10
  -2.21499991      -2.15952395E-10
  -2.21000004      -2.16476156E-10
  -2.20499992      -2.16966806E-10
  -2.20000005      -2.17401652E-10
  -2.19499993      -2.17782778E-10
  -2.19000006      -2.18115401E-10
  -2.18499994      -2.18389556E-10
  -2.18000007      -2.18606647E-10
  -2.17499995      -2.18767074E-10
  -2.17000008      -2.18874918E-10
  -2.16499996      -2.18926724E-10
  -2.16000009      -2.18914664E-10
  -2.15499997      -2.18837656E-10
  -2.15000010      -2.18692883E-10
  -2.14499998      -2.18493820E-10
  -2.14000010      -2.18219345E-10
  -2.13499999      -2.17880908E-10
  -2.13000011      -2.17477217E-10
  -2.12500000      -2.16991050E-10
  -2.11999989      -2.16437493E-10
  -2.11500001      -2.15817378E-10
  -2.10999990      -2.15111998E-10
  -2.10500002      -2.14330609E-10
  -2.09999990      -2.13478332E-10
  -2.09500003      -2.12531312E-10
  -2.08999991      -2.11511253E-10
  -2.08500004      -2.10400239E-10
  -2.07999992      -2.09208428E-10
  -2.07500005      -2.07932394E-10
  -2.06999993      -2.06562531E-10
  -2.06500006      -2.05114245E-10
  -2.05999994      -2.03570619E-10
  -2.05500007      -2.01930417E-10
  -2.04999995      -2.00187394E-10
  -2.04500008      -1.98364797E-10
  -2.03999996      -1.96454131E-10
  -2.03500009      -1.94406602E-10
  -2.02999997      -1.92297595E-10
  -2.02500010      -1.90073499E-10
  -2.01999998      -1.87746790E-10
  -2.01500010      -1.85312765E-10
  -2.00999999      -1.82782331E-10
  -2.00500011      -1.80132964E-10
  -2.00000000      -1.77375115E-10
  -1.99500000      -1.74515569E-10
  -1.99000001      -1.71548789E-10
  -1.98500001      -1.68470043E-10
  -1.98000002      -1.65260222E-10
  -1.97500002      -1.61944208E-10
  -1.97000003      -1.58512078E-10
  -1.96500003      -1.54969551E-10
  -1.96000004      -1.51298973E-10
  -1.95500004      -1.47504009E-10
  -1.95000005      -1.43612205E-10
  -1.94500005      -1.39569634E-10
  -1.94000006      -1.35423187E-10
  -1.93499994      -1.31141570E-10
  -1.92999995      -1.26738675E-10
  -1.92499995      -1.22210186E-10
  -1.91999996      -1.17545251E-10
  -1.91499996      -1.12748109E-10
  -1.90999997      -1.07854572E-10
  -1.90499997      -1.02824881E-10
  -1.89999998      -9.76416240E-11
  -1.89499998      -9.23425572E-11
  -1.88999999      -8.69105274E-11
  -1.88499999      -8.13518489E-11
  -1.88000000      -7.56633159E-11
  -1.87500000      -6.98285388E-11
  -1.87000000      -6.38733857E-11
  -1.86500001      -5.77922502E-11
  -1.86000001      -5.15816140E-11
  -1.85500002      -4.52197654E-11
  -1.85000002      -3.87190141E-11
  -1.84500003      -3.21029106E-11
  -1.84000003      -2.53366911E-11
  -1.83500004      -1.84620323E-11
  -1.83000004      -1.14422300E-11
  -1.82500005      -4.29236291E-12
  -1.82000005       2.99509766E-12
  -1.81500006       1.04172981E-11
  -1.80999994       1.79820464E-11
  -1.80499995       2.56445525E-11
  -1.79999995       3.34682594E-11
  -1.79499996       4.13828173E-11
  -1.78999996       4.94640162E-11
  -1.78499997       5.76837848E-11
  -1.77999997       6.59880414E-11
  -1.77499998       7.44281858E-11
  -1.76999998       8.29831134E-11
  -1.76499999       9.16964768E-11
  -1.75999999       1.00514999E-10
  -1.75500000       1.09418842E-10
  -1.75000000       1.18461255E-10
  -1.74500000       1.27621580E-10
  -1.74000001       1.36888736E-10
  -1.73500001       1.46263959E-10
  -1.73000002       1.55728389E-10
  -1.72500002       1.65301925E-10
  -1.72000003       1.74993839E-10