  -6.00000000       0.00000000    
  -5.99499989       0.00000000    
  -5.98999977       0.00000000    
  -5.98500013       0.00000000    
  -5.98000002       0.00000000    
  -5.97499990       0.00000000    
  -5.96999979       0.00000000    
  -5.96500015       0.00000000    
  -5.96000004       0.00000000    
  -5.95499992       0.00000000    
  -5.94999981       0.00000000    
  -5.94500017       0.00000000    
  -5.94000006       0.00000000    
  -5.93499994       0.00000000    
  -5.92999983       0.00000000    
  -5.92500019       0.00000000    
  -5.92000008       0.00000000    
  -5.91499996       0.00000000    
  -5.90999985       0.00000000    
  -5.90500021       0.00000000    
  -5.90000010       0.00000000    
  -5.89499998       0.00000000    
  -5.88999987       0.00000000    
  -5.88500023       0.00000000    
  -5.88000011       0.00000000    
  -5.87500000       0.00000000    
  -5.86999989       0.00000000    
  -5.86499977       0.00000000    
  -5.86000013       0.00000000    
  -5.85500002       0.00000000    
  -5.84999990       0.00000000    
  -5.84499979       0.00000000    
  -5.84000015       0.00000000    
  -5.83500004       0.00000000    
  -5.82999992       0.00000000    
  -5.82499981       0.00000000    
  -5.82000017       0.00000000    
  -5.81500006       0.00000000    
  -5.80999994       0.00000000    
  -5.80499983       0.00000000    
  -5.80000019       0.00000000    
  -5.79500008       0.00000000    
  -5.78999996       0.00000000    
  -5.78499985       0.00000000    
  -5.78000021       0.00000000    
  -5.77500010       0.00000000    
  -5.76999998       0.00000000    
  -5.76499987       0.00000000    
  -5.76000023       0.00000000    
  -5.75500011       0.00000000    
  -5.75000000       0.00000000    
  -5.74499989       0.00000000    
  -5.73999977       0.00000000    
  -5.73500013       0.00000000    
  -5.73000002       0.00000000    
  -5.72499990       0.00000000    
  -5.71999979       0.00000000    
  -5.71500015       0.00000000    
  -5.71000004       0.00000000    
  -5.70499992       0.00000000    
  -5.69999981       0.00000000    
  -5.69500017       0.00000000    
  -5.69000006       0.00000000    
  -5.68499994       0.00000000    
  -5.67999983       0.00000000    
  -5.67500019       0.00000000    
  -5.67000008       0.00000000    
  -5.66499996       0.00000000    
  -5.65999985       0.00000000    
  -5.65500021       0.00000000    
  -5.65000010       0.00000000    
  -5.64499998       0.00000000    
  -5.63999987       0.00000000    
  -5.63500023       0.00000000    
  -5.63000011       0.00000000    
  -5.62500000       0.00000000    
  -5.61999989       0.00000000    
  -5.61499977       0.00000000    
  -5.61000013       0.00000000    
  -5.60500002       0.00000000    
  -5.59999990       0.00000000    
  -5.59499979       0.00000000    
  -5.59000015       0.00000000    
  -5.58500004       0.00000000    
  -5.57999992       0.00000000    
  -5.57499981       0.00000000    
  -5.57000017       0.00000000    
  -5.56500006       0.00000000    
  -5.55999994       0.00000000    
  -5.55499983       0.00000000    
  -5.55000019       0.00000000    
  -5.54500008       0.00000000    
  -5.53999996       0.00000000    
  -5.53499985       0.00000000    
  -5.53000021       0.00000000    
  -5.52500010       0.00000000    
  -5.51999998       0.00000000    
  -5.51499987       0.00000000    
  -5.51000023       0.00000000    
  -5.50500011       0.00000000    
  -5.50000000       0.00000000    
  -5.49499989       0.00000000    
  -5.48999977       0.00000000    
  -5.48500013       0.00000000    
  -5.48000002       0.00000000    
  -5.47499990       0.00000000    
  -5.46999979       0.00000000    
  -5.46500015       0.00000000    
  -5.46000004       0.00000000    
  -5.45499992       0.00000000    
  -5.44999981       0.00000000    
  -5.44500017       0.00000000    
  -5.44000006       0.00000000    
  -5.43499994       0.00000000    
  -5.42999983       0.00000000    
  -5.42500019       0.00000000    
  -5.42000008       0.00000000    
  -5.41499996       0.00000000    
  -5.40999985       0.00000000    
  -5.40500021       0.00000000    
  -5.40000010       0.00000000    
  -5.39499998       0.00000000    
  -5.38999987       0.00000000    
  -5.38500023       0.00000000    
  -5.38000011       0.00000000    
  -5.37500000       0.00000000    
  -5.36999989       0.00000000    
  -5.36499977       0.00000000    
  -5.36000013       0.00000000    
  -5.35500002       0.00000000    
  -5.34999990       0.00000000    
  -5.34499979       0.00000000    
  -5.34000015       0.00000000    
  -5.33500004       0.00000000    
  -5.32999992       0.00000000    
  -5.32499981       0.00000000    
  -5.32000017       0.00000000    
  -5.31500006       0.00000000    
  -5.30999994       0.00000000    
  -5.30499983       0.00000000    
  -5.30000019       0.00000000    
  -5.29500008       0.00000000    
  -5.28999996       0.00000000    
  -5.28499985       0.00000000    
  -5.28000021       0.00000000    
  -5.27500010       0.00000000    
  -5.26999998       0.00000000    
  -5.26499987       0.00000000    
  -5.26000023       0.00000000    
  -5.25500011       0.00000000    
  -5.25000000       0.00000000    
  -5.24499989       0.00000000    
  -5.23999977       0.00000000    
  -5.23500013       0.00000000    
  -5.23000002       0.00000000    
  -5.22499990       0.00000000    
  -5.21999979       0.00000000    
  -5.21500015       0.00000000    
  -5.21000004       0.00000000    
  -5.20499992       0.00000000    
  -5.19999981       0.00000000    
  -5.19500017       0.00000000    
  -5.19000006       0.00000000    
  -5.18499994       0.00000000    
  -5.17999983       0.00000000    
  -5.17500019       0.00000000    
  -5.17000008       0.00000000    
  -5.16499996       0.00000000    
  -5.15999985       0.00000000    
  -5.15500021       0.00000000    
  -5.15000010       0.00000000    
  -5.14499998       0.00000000    
  -5.13999987       0.00000000    
  -5.13500023       0.00000000    
  -5.13000011       0.00000000    
  -5.12500000       0.00000000    
  -5.11999989       0.00000000    
  -5.11499977       0.00000000    
  -5.11000013       0.00000000    
  -5.10500002       0.00000000    
  -5.09999990       0.00000000    
  -5.09499979       0.00000000    
  -5.09000015       0.00000000    
  -5.08500004       0.00000000    
  -5.07999992       0.00000000    
  -5.07499981       0.00000000    
  -5.07000017       0.00000000    
  -5.06500006       0.00000000    
  -5.05999994       0.00000000    
  -5.05499983       0.00000000    
  -5.05000019       0.00000000    
  -5.04500008       0.00000000    
  -5.03999996       0.00000000    
  -5.03499985       0.00000000    
  -5.03000021       0.00000000    
  -5.02500010       0.00000000    
  -5.01999998       0.00000000    
  -5.01499987       0.00000000    
  -5.01000023       0.00000000    
  -5.00500011       0.00000000    
  -5.00000000       0.00000000    
  -4.99499989       0.00000000    
  -4.98999977       0.00000000    
  -4.98500013       0.00000000    
  -4.98000002       0.00000000    
  -4.97499990       0.00000000    
  -4.96999979       0.00000000    
  -4.96500015       0.00000000    
  -4.96000004       0.00000000    
  -4.95499992       0.00000000    
  -4.94999981       0.00000000    
  -4.94500017       0.00000000    
  -4.94000006       0.00000000    
  -4.93499994       0.00000000    
  -4.92999983       0.00000000    
  -4.92500019       0.00000000    
  -4.92000008       0.00000000    
  -4.91499996       0.00000000    
  -4.90999985       0.00000000    
  -4.90500021       0.00000000    
  -4.90000010       0.00000000    
  -4.89499998       0.00000000    
  -4.88999987       0.00000000    
  -4.88500023       0.00000000    
  -4.88000011       0.00000000    
  -4.87500000       0.00000000    
  -4.86999989       0.00000000    
  -4.86499977       0.00000000    
  -4.86000013       0.00000000    
  -4.85500002       0.00000000    
  -4.84999990       0.00000000    
  -4.84499979       0.00000000    
  -4.84000015       0.00000000    
  -4.83500004       0.00000000    
  -4.82999992       0.00000000    
  -4.82499981       0.00000000    
  -4.82000017       0.00000000    
  -4.81500006       0.00000000    
  -4.80999994       0.00000000    
  -4.80499983       0.00000000    
  -4.80000019       0.00000000    
  -4.79500008       0.00000000    
  -4.78999996       0.00000000    
  -4.78499985       0.00000000    
  -4.78000021       0.00000000    
  -4.77500010       0.00000000    
  -4.76999998       0.00000000    
  -4.76499987       0.00000000    
  -4.76000023       0.00000000    
  -4.75500011       0.00000000    
  -4.75000000       0.00000000    
  -4.74499989       0.00000000    
  -4.73999977       0.00000000    
  -4.73500013       0.00000000    
  -4.73000002       0.00000000    
  -4.72499990       0.00000000    
  -4.71999979       0.00000000    
  -4.71500015       0.00000000    
  -4.71000004       0.00000000    
  -4.70499992       0.00000000    
  -4.69999981       0.00000000    
  -4.69500017       0.00000000    
  -4.69000006       0.00000000    
  -4.68499994       0.00000000    
  -4.67999983       0.00000000    
  -4.67500019       0.00000000    
  -4.67000008       0.00000000    
  -4.66499996       0.00000000    
  -4.65999985       0.00000000    
  -4.65500021       0.00000000    
  -4.65000010       0.00000000    
  -4.64499998       0.00000000    
  -4.63999987       0.00000000    
  -4.63500023       0.00000000    
  -4.63000011       0.00000000    
  -4.62500000       0.00000000    
  -4.61999989       0.00000000    
  -4.61499977       0.00000000    
  -4.61000013       0.00000000    
  -4.60500002       0.00000000    
  -4.59999990       0.00000000    
  -4.59499979       0.00000000    
  -4.59000015       0.00000000    
  -4.58500004       0.00000000    
  -4.57999992       0.00000000    
  -4.57499981       0.00000000    
  -4.57000017       0.00000000    
  -4.56500006       0.00000000    
  -4.55999994       0.00000000    
  -4.55499983       0.00000000    
  -4.55000019       0.00000000    
  -4.54500008       0.00000000    
  -4.53999996       0.00000000    
  -4.53499985       0.00000000    
  -4.53000021       0.00000000    
  -4.52500010       0.00000000    
  -4.51999998       0.00000000    
  -4.51499987       0.00000000    
  -4.51000023       0.00000000    
  -4.50500011       0.00000000    
  -4.50000000       0.00000000    
  -4.49499989       0.00000000    
  -4.48999977       0.00000000    
  -4.48500013       0.00000000    
  -4.48000002       0.00000000    
  -4.47499990       0.00000000    
  -4.46999979       0.00000000    
  -4.46500015       0.00000000    
  -4.46000004       0.00000000    
  -4.45499992       0.00000000    
  -4.44999981       0.00000000    
  -4.44500017       0.00000000    
  -4.44000006       0.00000000    
  -4.43499994       0.00000000    
  -4.42999983       0.00000000    
  -4.42500019       0.00000000    
  -4.42000008       0.00000000    
  -4.41499996       0.00000000    
  -4.40999985       0.00000000    
  -4.40500021       0.00000000    
  -4.40000010       0.00000000    
  -4.39499998       0.00000000    
  -4.38999987       0.00000000    
  -4.38500023       0.00000000    
  -4.38000011       0.00000000    
  -4.37500000       0.00000000    
  -4.36999989       0.00000000    
  -4.36499977       0.00000000    
  -4.36000013       0.00000000    
  -4.35500002       0.00000000    
  -4.34999990       0.00000000    
  -4.34499979       0.00000000    
  -4.34000015       0.00000000    
  -4.33500004       0.00000000    
  -4.32999992       0.00000000    
  -4.32499981       0.00000000    
  -4.32000017       0.00000000    
  -4.31500006       0.00000000    
  -4.30999994       0.00000000    
  -4.30499983       0.00000000    
  -4.30000019       0.00000000    
  -4.29500008       0.00000000    
  -4.28999996       0.00000000    
  -4.28499985       0.00000000    
  -4.28000021       0.00000000    
  -4.27500010       0.00000000    
  -4.26999998       0.00000000    
  -4.26499987       0.00000000    
  -4.26000023       0.00000000    
  -4.25500011       0.00000000    
  -4.25000000       0.00000000    
  -4.24499989       0.00000000    
  -4.23999977       0.00000000    
  -4.23500013       0.00000000    
  -4.23000002       0.00000000    
  -4.22499990       0.00000000    
  -4.21999979       0.00000000    
  -4.21500015       0.00000000    
  -4.21000004       0.00000000    
  -4.20499992       0.00000000    
  -4.19999981       0.00000000    
  -4.19500017       0.00000000    
  -4.19000006       0.00000000    
  -4.18499994       0.00000000    
  -4.17999983       0.00000000    
  -4.17500019       0.00000000    
  -4.17000008       0.00000000    
  -4.16499996       0.00000000    
  -4.15999985       0.00000000    
  -4.15500021       0.00000000    
  -4.15000010       0.00000000    
  -4.14499998      -0.00000000    
  -4.13999987      -0.00000000    
  -4.13500023       0.00000000    
  -4.13000011       2.99477857E-38
  -4.12500000       5.67415736E-38
  -4.11999989       8.30835913E-38
  -4.11499977       1.06451252E-37
  -4.11000013       1.01425411E-37
  -4.10500002       9.29138121E-38
  -4.09999990       8.16458030E-38
  -4.09499979       7.56445069E-38
  -4.09000015       6.95501422E-38
  -4.08500004       6.33192574E-38
  -4.07999992       5.69135129E-38
  -4.07499981       5.03236042E-38
  -4.07000017       4.35818816E-38
  -4.06500006       1.43901427E-38
  -4.05999994      -3.62634659E-38
  -4.05499983      -1.24218876E-37
  -4.05000019      -1.96842368E-37
  -4.04500008      -2.45931849E-37
  -4.03999996      -3.32058074E-37
  -4.03499985      -4.18915553E-37
  -4.03000021      -4.98593339E-37
  -4.02500010      -5.65169141E-37
  -4.01999998      -6.05573934E-37
  -4.01499987      -6.25073820E-37
  -4.01000023      -5.89269725E-37
  -4.00500011      -4.81298670E-37
  -4.00000000      -3.18565969E-37
  -3.99499989      -1.41451803E-38
  -3.99000001       4.09307129E-37
  -3.98499990       9.79856225E-37
  -3.98000002       1.72522002E-36
  -3.97499990       2.60429970E-36
  -3.97000003       3.64846283E-36
  -3.96499991       4.79705512E-36
  -3.96000004       6.01725004E-36
  -3.95499992       7.24532273E-36
  -3.95000005       8.17649878E-36
  -3.94499993       8.86046445E-36
  -3.94000006       9.28046333E-36
  -3.93499994       9.40929633E-36
  -3.93000007       9.03237763E-36
  -3.92499995       8.03892491E-36
  -3.92000008       6.27983248E-36
  -3.91499996       3.98812825E-36
  -3.91000009       7.93953379E-37
  -3.90499997      -3.18525033E-36
  -3.90000010      -7.91826024E-36
  -3.89499998      -1.34771460E-35
  -3.89000010      -1.96033241E-35
  -3.88499999      -2.61366405E-35
  -3.88000011      -3.27388464E-35
  -3.87500000      -3.90149158E-35
  -3.86999989      -4.44262736E-35
  -3.86500001      -4.85104134E-35
  -3.85999990      -5.09564575E-35
  -3.85500002      -5.14601752E-35
  -3.84999990      -4.93328060E-35
  -3.84500003      -4.45089256E-35
  -3.83999991      -3.67541583E-35
  -3.83500004      -2.56580369E-35
  -3.82999992      -1.12735935E-35
  -3.82500005       6.50632105E-36
  -3.81999993       2.74339948E-35
  -3.81500006       5.09788195E-35
  -3.80999994       7.68568971E-35
  -3.80500007       1.04305941E-34
  -3.79999995       1.32144873E-34
  -3.79500008       1.59166056E-34
  -3.78999996       1.83978561E-34
  -3.78500009       2.05047288E-34
  -3.77999997       2.20704758E-34
  -3.77500010       2.29281711E-34
  -3.76999998       2.28964052E-34
  -3.76500010       2.18356593E-34
  -3.75999999       1.95756819E-34
  -3.75500011       1.60109207E-34
  -3.75000000       1.10648686E-34
  -3.74499989       4.69529981E-35
  -3.74000001      -3.06668740E-35
  -3.73499990      -1.21054211E-34
  -3.73000002      -2.22822232E-34
  -3.72499990      -3.33401146E-34
  -3.72000003      -4.49526259E-34
  -3.71499991      -5.66991022E-34
  -3.71000004      -6.80837466E-34
  -3.70499992      -7.85421244E-34
  -3.70000005      -8.74480553E-34
  -3.69499993      -9.41138154E-34
  -3.69000006      -9.78530630E-34
  -3.68499994      -9.80031773E-34
  -3.68000007      -9.38730595E-34
  -3.67499995      -8.49700030E-34
  -3.67000008      -7.08072660E-34
  -3.66499996      -5.11019353E-34
  -3.66000009      -2.57245666E-34
  -3.65499997       5.19546176E-35
  -3.65000010       4.12553564E-34
  -3.64499998       8.17980050E-34
  -3.64000010       1.25820847E-33
  -3.63499999       1.71947750E-33
  -3.63000011       2.18671392E-33
  -3.62500000       2.63994597E-33
  -3.61999989       3.05724977E-33
  -3.61500001       3.41496501E-33
  -3.60999990       3.68636424E-33
  -3.60500002       3.84583034E-33
  -3.59999990       3.86745209E-33
  -3.59500003       3.72808364E-33
  -3.58999991       3.40524440E-33
  -3.58500004       2.88340922E-33
  -3.57999992       2.15166380E-33
  -3.57500005       1.20660170E-33
  -3.56999993       5.23875703E-35
  -3.56500006      -1.29570876E-33
  -3.55999994      -2.81211309E-33
  -3.55500007      -4.45986193E-33
  -3.54999995      -6.19034427E-33
  -3.54500008      -7.94346773E-33
  -3.53999996      -9.64860163E-33
  -3.53500009      -1.12255486E-32
  -3.52999997      -1.25867189E-32
  -3.52500010      -1.36396107E-32
  -3.51999998      -1.42898780E-32
  -3.51500010      -1.44456501E-32
  -3.50999999      -1.40203944E-32
  -3.50500011      -1.29384621E-32
  -3.50000000      -1.11424977E-32
  -3.49499989      -8.59243245E-33
  -3.49000001      -5.27580893E-33
  -3.48499990      -1.21002973E-33
  -3.48000002       3.55329681E-33
  -3.47499990       8.92520388E-33
  -3.47000003       1.47773290E-32
  -3.46499991       2.09412394E-32
  -3.46000004       2.72093206E-32
  -3.45499992       3.33372725E-32
  -3.45000005       3.90497107E-32
  -3.44499993       4.40452590E-32
  -3.44000006       4.80064046E-32
  -3.43499994       5.06098396E-32
  -3.43000007       5.15399201E-32
  -3.42499995       5.05016765E-32
  -3.42000008       4.72369760E-32
  -3.41499996       4.15406773E-32
  -3.41000009       3.32770079E-32
  -3.40499997       2.23956036E-32
  -3.40000010       8.94633926E-33
  -3.39499998      -6.90790863E-33
  -3.39000010      -2.48811893E-32
  -3.38499999      -4.45581096E-32
  -3.38000011      -6.53919220E-32
  -3.37500000      -8.67076959E-32
  -3.36999989      -1.07711253E-31
  -3.36500001      -1.27504532E-31
  -3.35999990      -1.45107090E-31
  -3.35500002      -1.59484503E-31
  -3.34999990      -1.69582740E-31
  -3.34500003      -1.74368447E-31
  -3.33999991      -1.72874253E-31
  -3.33500004      -1.64247559E-31
  -3.32999992      -1.47801676E-31
  -3.32500005      -1.23067605E-31
  -3.31999993      -8.98439501E-32
  -3.31500006      -4.82431139E-32
  -3.30999994       1.26894551E-33
  -3.30500007       5.78415749E-32
  -3.29999995       1.20219958E-31
  -3.29500008       1.86739127E-31
  -3.28999996       2.55333689E-31
  -3.28500009       3.23565658E-31
  -3.27999997       3.88670977E-31
  -3.27500010       4.47625287E-31
  -3.26999998       4.97229879E-31
  -3.26500010       5.34216855E-31
  -3.25999999       5.55369641E-31
  -3.25500011       5.57660256E-31
  -3.25000000       5.38395644E-31
  -3.24499989       4.95371845E-31
  -3.24000001       4.27028180E-31
  -3.23499990       3.32596840E-31
  -3.23000002       2.12240466E-31
  -3.22499990       6.71716263E-32
  -3.22000003      -1.00255515E-31
  -3.21499991      -2.86485488E-31
  -3.21000004      -4.86743199E-31
  -3.20499992      -6.95060782E-31
  -3.20000005      -9.04357457E-31
  -3.19499993      -1.10657267E-30
  -3.19000006      -1.29285693E-30
  -3.18499994      -1.45381925E-30
  -3.18000007      -1.57982660E-30
  -3.17499995      -1.66135645E-30
  -3.17000008      -1.68938399E-30
  -3.16499996      -1.65580717E-30
  -3.16000009      -1.55388457E-30
  -3.15499997      -1.37867846E-30
  -3.15000010      -1.12748067E-30
  -3.14499998      -8.00208281E-31
  -3.14000010      -3.99742465E-31
  -3.13499999       6.78052531E-32
  -3.13000011       5.92921325E-31
  -3.12500000       1.16263068E-30
  -3.11999989       1.76056836E-30
  -3.11500001       2.36719059E-30
  -3.10999990       2.96014304E-30
  -3.10500002       3.51477927E-30
  -3.09999990       4.00484343E-30
  -3.09500003       4.40329388E-30
  -3.08999991       4.68326278E-30
  -3.08500004       4.81912886E-30
  -3.07999992       4.78767489E-30
  -3.07500005       4.56928835E-30
  -3.06999993       4.14917833E-30
  -3.06500006       3.51854122E-30
  -3.05999994       2.67564049E-30
  -3.05500007       1.62674481E-30
  -3.04999995       3.86854650E-31
  -3.04500008      -1.01980708E-30
  -3.03999996      -2.55962484E-30
  -3.03500009      -4.18974963E-30
  -3.02999997      -5.85865482E-30
  -3.02500010      -7.50708459E-30
  -3.01999998      -9.06942078E-30
  -3.01500010      -1.04754760E-29
  -3.00999999      -1.16526518E-29
  -3.00500011      -1.25284752E-29
  -3.00000000      -1.30334179E-29
  -2.99499989      -1.31039341E-29
  -2.99000001      -1.26856311E-29
  -2.98499990      -1.17364531E-29
  -2.98000002      -1.02297627E-29
  -2.97499990      -8.15719202E-30
  -2.97000003      -5.53109325E-30
  -2.96499991      -2.38650669E-30
  -2.96000004       1.21755166E-30
  -2.95499992       5.19756958E-30
  -2.95000005       9.44590698E-30
  -2.94499993       1.38321402E-29
  -2.94000006       1.82054441E-29
  -2.93499994       2.23980672E-29
  -2.93000007       2.62297756E-29
  -2.92499995       2.95134229E-29
  -2.92000008       3.20612567E-29
  -2.91499996       3.36921583E-29
  -2.91000009       3.42392608E-29
  -2.90499997       3.35580203E-29
  -2.90000010       3.15342832E-29
  -2.89499998       2.80920716E-29
  -2.89000010       2.32008670E-29
  -2.88499999       1.68818232E-29
  -2.88000011       9.21282582E-30
  -2.87500000       3.31844171E-31
  -2.86999989      -9.56160647E-30
  -2.86500001      -2.02072151E-29
  -2.85999990      -3.12870720E-29
  -2.85500002      -4.24313332E-29
  -2.84999990      -5.32266851E-29
  -2.84500003      -6.32271606E-29
  -2.83999991      -7.19676446E-29
  -2.83500004      -7.89794078E-29
  -2.82999992      -8.38075878E-29
  -2.82500005      -8.60300267E-29
  -2.81999993      -8.52767895E-29
  -2.81500006      -8.12500913E-29
  -2.80999994      -7.37433340E-29
  -2.80500007      -6.26588247E-29
  -2.79999995      -4.80233912E-29
  -2.79500008      -3.00006651E-29
  -2.78999996      -8.89972152E-30
  -2.78500009       1.48210511E-29
  -2.77999997       4.05552758E-29
  -2.77500010       6.75557423E-29
  -2.76999998       9.49475819E-29
  -2.76500010       1.21747866E-28
  -2.75999999       1.46891206E-28
  -2.75500011       1.69261196E-28
  -2.75000000       1.87727277E-28
  -2.74499989       2.01185868E-28
  -2.74000001       2.08604695E-28
  -2.73499990       2.09069518E-28
  -2.73000002       2.01830320E-28
  -2.72499990       1.86347384E-28
  -2.72000003       1.62333120E-28
  -2.71499991       1.29788912E-28
  -2.71000004       8.90354705E-29
  -2.70499992       4.07333882E-29
  -2.70000005      -1.41062933E-29
  -2.69499993      -7.41242829E-29
  -2.69000006      -1.37628097E-28
  -2.68499994      -2.02621432E-28
  -2.68000007      -2.66848186E-28
  -2.67499995      -3.27849947E-28
  -2.67000008      -3.83038360E-28
  -2.66499996      -4.29777623E-28
  -2.66000009      -4.65479597E-28
  -2.65499997      -4.87704251E-28
  -2.65000010      -4.94266279E-28
  -2.64499998      -4.83342501E-28
  -2.64000010      -4.53575280E-28
  -2.63499999      -4.04170314E-28
  -2.63000011      -3.34982677E-28
  -2.62500000      -2.46585790E-28
  -2.61999989      -1.40321715E-28
  -2.61500001      -1.83273164E-29
  -2.60999990       1.16467303E-28
  -2.60500002       2.60369623E-28
  -2.59999990       4.08987402E-28
  -2.59500003       5.57322959E-28
  -2.58999991       6.99900997E-28
  -2.58500004       8.30923986E-28
  -2.57999992       9.44457074E-28
  -2.57500005       1.03463460E-27
  -2.56999993       1.09588486E-27
  -2.56500006       1.12316402E-27
  -2.55999994       1.11219508E-27
  -2.55500007       1.05969798E-27
  -2.54999995       9.63607848E-28
  -2.54500008       8.23267740E-28
  -2.53999996       6.39584820E-28
  -2.53500009       4.15147055E-28
  -2.52999997       1.54285465E-28
  -2.52500010      -1.36920535E-28
  -2.51999998      -4.50703863E-28
  -2.51500010      -7.77738226E-28
  -2.50999999      -1.10733461E-27
  -2.50500011      -1.42771055E-27
  -2.50000000      -1.72632252E-27
  -2.49499989      -1.99025620E-27
  -2.49000001      -2.20666986E-27
  -2.48499990      -2.36327223E-27
  -2.48000002      -2.44882936E-27
  -2.47499990      -2.45367288E-27
  -2.47000003      -2.37020077E-27
  -2.46499991      -2.19334532E-27
  -2.46000004      -1.92099205E-27
  -2.45499992      -1.55432792E-27
  -2.45000005      -1.09809515E-27
  -2.44499993      -5.60742448E-28
  -2.44000006       4.55541082E-29
  -2.43499994       7.04997201E-28
  -2.43000007       1.39842592E-27
  -2.42499995       2.10371389E-27
  -2.42000008       2.79631951E-27
  -2.41499996       3.44996723E-27
  -2.41000009       4.03745482E-27
  -2.40499997       4.53157488E-27
  -2.40000010       4.90610662E-27
  -2.39499998       5.13686269E-27
  -2.39000010       5.20276069E-27
  -2.38499999       5.08686709E-27
  -2.38000011       4.77737438E-27
  -2.37500000       4.26849477E-27
  -2.36999989       3.56119353E-27
  -2.36500001       2.66374003E-27
  -2.35999990       1.59204755E-27
  -2.35500002       3.69754427E-28
  -2.34999990      -9.71972835E-28
  -2.34500003      -2.39492316E-27
  -2.33999991      -3.85463169E-27
  -2.33500004      -5.30146345E-27
  -2.32999992      -6.68197696E-27
  -2.32500005      -7.94055755E-27
  -2.31999993      -9.02125076E-27
  -2.31500006      -9.86978160E-27
  -2.30999994      -1.04356699E-26
  -2.30500007      -1.06744059E-26
  -2.29999995      -1.05495524E-26
  -2.29500008      -1.00347883E-26
  -2.28999996      -9.11569914E-27
  -2.28500009      -7.79130183E-27
  -2.27999997      -6.07523354E-27
  -2.27500010      -3.99644677E-27
  -2.26999998      -1.59946874E-27
  -2.26500010       1.05593568E-27
  -2.25999999       3.89566362E-27
  -2.25500011       6.83277266E-27
  -2.25000000       9.76957932E-27
  -2.24499989       1.26003150E-26
  -2.24000001       1.52142981E-26
  -2.23499990       1.74995403E-26
  -2.23000002       1.93467197E-26
  -2.22499990       2.06533461E-26
  -2.22000003       2.13280363E-26
  -2.21499991       2.12947378E-26
  -2.21000004       2.04967325E-26
  -2.20499992       1.89002568E-26
  -2.20000005       1.64975791E-26
  -2.19499993       1.33093885E-26
  -2.19000006       9.38634699E-27
  -2.18499994       4.80964565E-27
  -2.18000007      -3.09456136E-28
  -2.17499995      -5.83126443E-27
  -2.17000008      -1.15904105E-26
  -2.16499996      -1.73997817E-26
  -2.16000009      -2.30555431E-26
  -2.15499997      -2.83431776E-26
  -2.15000010      -3.30443603E-26
  -2.14499998      -3.69445502E-26
  -2.14000010      -3.98409763E-26
  -2.13499999      -4.15509679E-26
  -2.13000011      -4.19199637E-26
  -2.12500000      -4.08293728E-26
  -2.11999989      -3.82036462E-26
  -2.11500001      -3.40162708E-26
  -2.10999990      -2.82945764E-26
  -2.10500002      -2.11229294E-26
  -2.09999990      -1.26440521E-26
  -2.09500003      -3.05841084E-27
  -2.08999991       7.37853036E-27
  -2.08500004       1.83613215E-26
  -2.07999992       2.95416360E-26
  -2.07500005       4.05375096E-26
  -2.06999993       5.09444801E-26
  -2.06500006       6.03483954E-26
  -2.05999994       6.83395256E-26
  -2.05500007       7.45275293E-26
  -2.04999995       7.85569753E-26
  -2.04500008       8.01226362E-26
  -2.03999996       7.89840695E-26
  -2.03500009       7.49792446E-26
  -2.02999997       6.80360607E-26
  -2.02500010       5.81815178E-26
  -2.01999998       4.55482062E-26
  -2.01500010       3.03772616E-26
  -2.00999999       1.30177996E-26
  -2.00500011      -6.07771259E-27
  -2.00000000      -2.63620089E-26
  -1.99500000      -4.72056985E-26
  -1.99000001      -6.79136886E-26
  -1.98500001      -8.77453005E-26
  -1.98000002      -1.05937401E-25
  -1.97500002      -1.21729890E-25
  -1.97000003      -1.34393191E-25
  -1.96500003      -1.43256389E-25
  -1.96000004      -1.47735282E-25
  -1.95500004      -1.47359464E-25
  -1.95000005      -1.41797131E-25
  -1.94500005      -1.30876844E-25
  -1.94000006      -1.14604776E-25
  -1.93499994      -9.31772303E-26
  -1.92999995      -6.69870112E-26
  -1.92499995      -3.66229815E-26
  -1.91999996      -2.86309458E-27
  -1.91499996       3.33402262E-26
  -1.90999997       7.08818825E-26
  -1.90499997       1.08532778E-25
  -1.89999998       1.44974971E-25
  -1.89499998       1.78842570E-25
  -1.88999999       2.08766862E-25
  -1.88499999       2.33425027E-25
  -1.88000000       2.51590127E-25
  -1.87500000       2.62181546E-25
  -1.87000000       2.64313220E-25
  -1.86500001       2.57338556E-25
  -1.86000001       2.40889648E-25
  -1.85500002       2.14909056E-25
  -1.85000002       1.79673092E-25
  -1.84500003       1.35804229E-25
  -1.84000003       8.42724020E-26
  -1.83500004       2.63835423E-26
  -1.83000004      -3.62442081E-26
  -1.82500005      -1.01717297E-25
  -1.82000005      -1.67915872E-25
  -1.81500006      -2.32554099E-25
  -1.80999994      -2.93250586E-25
  -1.80499995      -3.47606849E-25
  -1.79999995      -3.93291165E-25
  -1.79499996      -4.28126597E-25
  -1.78999996      -4.50177971E-25
  -1.78499997      -4.57837120E-25
  -1.77999997      -4.49901426E-25
  -1.77499998      -4.25642720E-25
  -1.76999998      -3.84864405E-25
  -1.76499999      -3.27943185E-25
  -1.75999999      -2.55852539E-25
  -1.75500000      -1.70166788E-25
  -1.75000000      -7.30441010E-26
  -1.74500000       3.28128943E-26
  -1.74000001       1.44218306E-25
  -1.73500001       2.57585322E-25
  -1.73000002       3.69028022E-25
  -1.72500002       4.74480853E-25
  -1.72000003       5.69831900E-25