  -6.00000000       0.00000000    
  -5.99499989       0.00000000    
  -5.98999977      -3.28286965E-28
  -5.98500013      -2.04013971E-27
  -5.98000002      -7.07803675E-27
  -5.97499990      -1.97987879E-26
  -5.96999979      -5.39481204E-26
  -5.96500015      -1.52188278E-25
  -5.96000004      -4.28413594E-25
  -5.95499992      -1.14578832E-24
  -5.94999981      -2.84513138E-24
  -5.94500017      -6.53837067E-24
  -5.94000006      -1.39797686E-23
  -5.93499994      -2.80230530E-23
  -5.92999983      -5.30652595E-23
  -5.92500019      -9.55677219E-23
  -5.92000008      -1.64632015E-22
  -5.91499996      -2.72593221E-22
  -5.90999985      -4.35576579E-22
  -5.90500021      -6.73946767E-22
  -5.90000010      -1.01256227E-21
  -5.89499998      -1.48073428E-21
  -5.88999987      -2.11178019E-21
  -5.88500023      -2.94205667E-21
  -5.88000011      -4.00936180E-21
  -5.87500000      -5.35060729E-21
  -5.86999989      -6.99868388E-21
  -5.86499977      -8.97848009E-21
  -5.86000013      -1.13020506E-20
  -5.85500002      -1.39629768E-20
  -5.84999990      -1.69300704E-20
  -5.84499979      -2.01405587E-20
  -5.84000015      -2.34930652E-20
  -5.83500004      -2.68406942E-20
  -5.82999992      -2.99845411E-20
  -5.82499981      -3.26682866E-20
  -5.82000017      -3.45742238E-20
  -5.81500006      -3.53212552E-20
  -5.80999994      -3.44654916E-20
  -5.80499983      -3.15039006E-20
  -5.80000019      -2.58815233E-20
  -5.79500008      -1.70024002E-20
  -5.78999996      -4.24481100E-21
  -5.78499985       1.30195078E-20
  -5.78000021       3.54020668E-20
  -5.77500010       6.34706605E-20
  -5.76999998       9.77194599E-20
  -5.76499987       1.38536739E-19
  -5.76000023       1.86171770E-19
  -5.75500011       2.40701700E-19
  -5.75000000       3.02000488E-19
  -5.74499989       3.69711244E-19
  -5.73999977       4.43223638E-19
  -5.73500013       5.21658868E-19
  -5.73000002       6.03863095E-19
  -5.72499990       6.88411242E-19
  -5.71999979       7.73623408E-19
  -5.71500015       8.57593200E-19
  -5.71000004       9.38229610E-19
  -5.70499992       1.01331321E-18
  -5.69999981       1.08056351E-18
  -5.69500017       1.13771859E-18
  -5.69000006       1.18262612E-18
  -5.68499994       1.21333758E-18
  -5.67999983       1.22821008E-18
  -5.67500019       1.22600481E-18
  -5.67000008       1.20598373E-18
  -5.66499996       1.16799474E-18
  -5.65999985       1.11254334E-18
  -5.65500021       1.04084716E-18
  -5.65000010       9.54863075E-19
  -5.64499998       8.57291745E-19
  -5.63999987       7.51545699E-19
  -5.63500023       6.41686808E-19
  -5.63000011       5.32330325E-19
  -5.62500000       4.28509827E-19
  -5.61999989       3.35513891E-19
  -5.61499977       2.58688406E-19
  -5.61000013       2.03217455E-19
  -5.60500002       1.73885217E-19
  -5.59999990       1.74825204E-19
  -5.59499979       2.09271124E-19
  -5.59000015       2.79316973E-19
  -5.58500004       3.85695889E-19
  -5.57999992       5.27595440E-19
  -5.57499981       7.02513534E-19
  -5.57000017       9.06171915E-19
  -5.56500006       1.13249360E-18
  -5.55999994       1.37365407E-18
  -5.55499983       1.62021304E-18
  -5.55000019       1.86132947E-18
  -5.54500008       2.08506052E-18
  -5.53999996       2.27874093E-18
  -5.53499985       2.42944476E-18
  -5.53000021       2.52450043E-18
  -5.52500010       2.55207408E-18
  -5.51999998       2.50177281E-18
  -5.51499987       2.36528284E-18
  -5.51000023       2.13698678E-18
  -5.50500011       1.81455674E-18
  -5.50000000       1.39950150E-18
  -5.49499989       8.97613284E-19
  -5.48999977       3.19337211E-19
  -5.48500013      -3.20012165E-19
  -5.48000002      -1.00016889E-18
  -5.47499990      -1.69600770E-18
  -5.46999979      -2.37779664E-18
  -5.46500015      -3.01165914E-18
  -5.46000004      -3.56020934E-18
  -5.45499992      -3.98336103E-18
  -5.44999981      -4.23931718E-18
  -5.44500017      -4.28570713E-18
  -5.44000006      -4.08084468E-18
  -5.43499994      -3.58506860E-18
  -5.42999983      -2.76215397E-18
  -5.42500019      -1.58073347E-18
  -5.42000008      -1.56630300E-20
  -5.41499996       1.95065980E-18
  -5.40999985       4.32713316E-18
  -5.40500021       7.11294925E-18
  -5.40000010       1.02968295E-17
  -5.39499998       1.38564838E-17
  -5.38999987       1.77583898E-17
  -5.38500023       2.19578998E-17
  -5.38000011       2.63996512E-17
  -5.37500000       3.10183267E-17
  -5.36999989       3.57397710E-17
  -5.36499977       4.04823978E-17
  -5.36000013       4.51589065E-17
  -5.35500002       4.96782507E-17
  -5.34999990       5.39478427E-17
  -5.34499979       5.78758091E-17
  -5.34000015       6.13734861E-17
  -5.33500004       6.43577817E-17
  -5.32999992       6.67536012E-17
  -5.32499981       6.84959876E-17
  -5.32000017       6.95322464E-17
  -5.31500006       6.98235861E-17
  -5.30999994       6.93465675E-17
  -5.30499983       6.80940639E-17
  -5.30000019       6.60758094E-17
  -5.29500008       6.33184260E-17
  -5.28999996       5.98650329E-17
  -5.28499985       5.57742476E-17
  -5.28000021       5.11187759E-17
  -5.27500010       4.59835294E-17
  -5.26999998       4.04632966E-17
  -5.26499987       3.46600919E-17
  -5.26000023       2.86802246E-17
  -5.25500011       2.26311669E-17
  -5.25000000       1.66183364E-17
  -5.24499989       1.07418940E-17
  -5.23999977       5.09362436E-18
  -5.23500013      -2.45995475E-19
  -5.23000002      -5.21026096E-18
  -5.22499990      -9.74853859E-18
  -5.21999979      -1.38278385E-17
  -5.21500015      -1.74339729E-17
  -5.21000004      -2.05720480E-17
  -5.20499992      -2.32662762E-17
  -5.19999981      -2.55592605E-17
  -5.19500017      -2.75103778E-17
  -5.19000006      -2.91937615E-17
  -5.18499994      -3.06956667E-17
  -5.17999983      -3.21111613E-17
  -5.17500019      -3.35406551E-17
  -5.17000008      -3.50858782E-17
  -5.16499996      -3.68458670E-17
  -5.15999985      -3.89127432E-17
  -5.15500021      -4.13676532E-17
  -5.15000010      -4.42769202E-17
  -5.14499998      -4.76884678E-17
  -5.13999987      -5.16287790E-17
  -5.13500023      -5.61004943E-17
  -5.13000011      -6.10805517E-17
  -5.12500000      -6.65193039E-17
  -5.11999989      -7.23402599E-17
  -5.11499977      -7.84409154E-17
  -5.11000013      -8.46941825E-17
  -5.10500002      -9.09510296E-17
  -5.09999990      -9.70435589E-17
  -5.09499979      -1.02789036E-16
  -5.09000015      -1.07994676E-16
  -5.08500004      -1.12462536E-16
  -5.07999992      -1.15995101E-16
  -5.07499981      -1.18401137E-16
  -5.07000017      -1.19501221E-16
  -5.06500006      -1.19133583E-16
  -5.05999994      -1.17159228E-16
  -5.05499983      -1.13466919E-16
  -5.05000019      -1.07977404E-16
  -5.04500008      -1.00646758E-16
  -5.03999996      -9.14690035E-17
  -5.03499985      -8.04776062E-17
  -5.03000021      -6.77460326E-17
  -5.02500010      -5.33870540E-17
  -5.01999998      -3.75510782E-17
  -5.01499987      -2.04232680E-17
  -5.01000023      -2.21990668E-18
  -5.00500011       1.68165173E-17
  -5.00000000       3.64227112E-17
  -4.99499989       5.63208088E-17
  -4.98999977       7.62249449E-17
  -4.98500013       9.58482631E-17
  -4.98000002       1.14909668E-16
  -4.97499990       1.33140927E-16
  -4.96999979       1.50293026E-16
  -4.96500015       1.66142098E-16
  -4.96000004       1.80494807E-16
  -4.95499992       1.93192678E-16
  -4.94999981       2.04115207E-16
  -4.94500017       2.13182351E-16
  -4.94000006       2.20355436E-16
  -4.93499994       2.25636819E-16
  -4.92999983       2.29068546E-16
  -4.92500019       2.30729631E-16
  -4.92000008       2.30732145E-16
  -4.91499996       2.29216671E-16
  -4.90999985       2.26346606E-16
  -4.90500021       2.22301706E-16
  -4.90000010       2.17271601E-16
  -4.89499998       2.11448474E-16
  -4.88999987       2.05020354E-16
  -4.88500023       1.98164165E-16
  -4.88000011       1.91039176E-16
  -4.87500000       1.83781864E-16
  -4.86999989       1.76500358E-16
  -4.86499977       1.69271024E-16
  -4.86000013       1.62135870E-16
  -4.85500002       1.55100640E-16
  -4.84999990       1.48135422E-16
  -4.84499979       1.41174968E-16
  -4.84000015       1.34122307E-16
  -4.83500004       1.26851667E-16
  -4.82999992       1.19213998E-16
  -4.82499981       1.11042247E-16
  -4.82000017       1.02158784E-16
  -4.81500006       9.23821447E-17
  -4.80999994       8.15348158E-17
  -4.80499983       6.94511563E-17
  -4.80000019       5.59849801E-17
  -4.79500008       4.10164819E-17
  -4.78999996       2.44588556E-17
  -4.78499985       6.26468297E-18
  -4.78000021      -1.35709038E-17
  -4.77500010      -3.50048707E-17
  -4.76999998      -5.79459210E-17
  -4.76499987      -8.22527953E-17
  -4.76000023      -1.07735325E-16
  -4.75500011      -1.34157313E-16
  -4.75000000      -1.61239087E-16
  -4.74499989      -1.88663989E-16
  -4.73999977      -2.16082314E-16
  -4.73500013      -2.43121405E-16
  -4.73000002      -2.69390491E-16
  -4.72499990      -2.94491703E-16
  -4.71999979      -3.18027017E-16
  -4.71500015      -3.39608066E-16
  -4.71000004      -3.58863772E-16
  -4.70499992      -3.75449074E-16
  -4.69999981      -3.89051974E-16
  -4.69500017      -3.99398905E-16
  -4.69000006      -4.06261513E-16
  -4.68499994      -4.09459777E-16
  -4.67999983      -4.08864101E-16
  -4.67500019      -4.04396584E-16
  -4.67000008      -3.96031102E-16
  -4.66499996      -3.83790973E-16
  -4.65999985      -3.67746686E-16
  -4.65500021      -3.48010554E-16
  -4.65000010      -3.24731971E-16
  -4.64499998      -2.98091170E-16
  -4.63999987      -2.68292604E-16
  -4.63500023      -2.35556766E-16
  -4.63000011      -2.00114088E-16
  -4.62500000      -1.62197638E-16
  -4.61999989      -1.22034207E-16
  -4.61499977      -7.98406308E-17
  -4.61000013      -3.58165599E-17
  -4.60500002       9.85929559E-18
  -4.59999990       5.70335209E-17
  -4.59499979       1.05580486E-16
  -4.59000015       1.55402925E-16
  -4.58500004       2.06431935E-16
  -4.57999992       2.58627164E-16
  -4.57499981       3.11971869E-16
  -4.57000017       3.66472193E-16
  -4.56500006       4.22151215E-16
  -4.55999994       4.79045677E-16
  -4.55499983       5.37196977E-16
  -4.55000019       5.96650167E-16
  -4.54500008       6.57443204E-16
  -4.53999996       7.19604940E-16
  -4.53499985       7.83146917E-16
  -4.53000021       8.48059657E-16
  -4.52500010       9.14307904E-16
  -4.51999998       9.81827018E-16
  -4.51499987       1.05051917E-15
  -4.51000023       1.12025179E-15
  -4.50500011       1.19085918E-15
  -4.50000000       1.26213944E-15
  -4.49499989       1.33385783E-15
  -4.48999977       1.40574657E-15
  -4.48500013       1.47750932E-15
  -4.48000002       1.54882526E-15
  -4.47499990       1.61935229E-15
  -4.46999979       1.68873308E-15
  -4.46500015       1.75659482E-15
  -4.46000004       1.82256227E-15
  -4.45499992       1.88625831E-15
  -4.44999981       1.94730630E-15
  -4.44500017       2.00533843E-15
  -4.44000006       2.05999789E-15
  -4.43499994       2.11094354E-15
  -4.42999983       2.15784989E-15
  -4.42500019       2.20041478E-15
  -4.42000008       2.23835190E-15
  -4.41499996       2.27139868E-15
  -4.40999985       2.29931477E-15
  -4.40500021       2.32187909E-15
  -4.40000010       2.33889598E-15
  -4.39499998       2.35017740E-15
  -4.38999987       2.35556093E-15
  -4.38500023       2.35489559E-15
  -4.38000011       2.34804246E-15
  -4.37500000       2.33487088E-15
  -4.36999989       2.31525889E-15
  -4.36499977       2.28909066E-15
  -4.36000013       2.25625310E-15
  -4.35500002       2.21663017E-15
  -4.34999990       2.17011090E-15
  -4.34499979       2.11658308E-15
  -4.34000015       2.05592748E-15
  -4.33500004       1.98802656E-15
  -4.32999992       1.91275710E-15
  -4.32499981       1.82999626E-15
  -4.32000017       1.73961499E-15
  -4.31500006       1.64148251E-15
  -4.30999994       1.53546819E-15
  -4.30499983       1.42143828E-15
  -4.30000019       1.29925452E-15
  -4.29500008       1.16878349E-15
  -4.28999996       1.02988989E-15
  -4.28499985       8.82437760E-16
  -4.28000021       7.26297771E-16
  -4.27500010       5.61335193E-16
  -4.26999998       3.87417412E-16
  -4.26499987       2.04413654E-16
  -4.26000023       1.22024377E-17
  -4.25500011      -1.89339128E-16
  -4.25000000      -4.00327623E-16
  -4.24499989      -6.20878062E-16
  -4.23999977      -8.51099870E-16
  -4.23500013      -1.09109533E-15
  -4.23000002      -1.34095194E-15
  -4.22499990      -1.60075315E-15
  -4.21999979      -1.87056533E-15
  -4.21500015      -2.15043856E-15
  -4.21000004      -2.44041331E-15
  -4.20499992      -2.74049103E-15
  -4.19999981      -3.05066730E-15
  -4.19500017      -3.37090187E-15
  -4.19000006      -3.70112783E-15
  -4.18499994      -4.04124163E-15
  -4.17999983      -4.39111240E-15
  -4.17500019      -4.75058090E-15
  -4.17000008      -5.11941801E-15
  -4.16499996      -5.49739799E-15
  -4.15999985      -5.88423497E-15
  -4.15500021      -6.27961386E-15
  -4.15000010      -6.68318482E-15
  -4.14499998      -7.09456924E-15
  -4.13999987      -7.51336690E-15
  -4.13500023      -7.93916104E-15
  -4.13000011      -8.37149852E-15
  -4.12500000      -8.80993378E-15
  -4.11999989      -9.25402807E-15
  -4.11499977      -9.70333924E-15
  -4.11000013      -1.01574294E-14
  -4.10500002      -1.06158902E-14
  -4.09999990      -1.10783515E-14
  -4.09499979      -1.15444661E-14
  -4.09000015      -1.20139325E-14
  -4.08500004      -1.24865226E-14
  -4.07999992      -1.29620131E-14
  -4.07499981      -1.34402741E-14
  -4.07000017      -1.39212177E-14
  -4.06500006      -1.44048337E-14
  -4.05999994      -1.48911577E-14
  -4.05499983      -1.53802887E-14
  -4.05000019      -1.58723962E-14
  -4.04500008      -1.63676581E-14
  -4.03999996      -1.68663487E-14
  -4.03499985      -1.73687545E-14
  -4.03000021      -1.78752226E-14
  -4.02500010      -1.83861054E-14
  -4.01999998      -1.89017808E-14
  -4.01499987      -1.94226552E-14
  -4.01000023      -1.99491082E-14
  -4.00500011      -2.04815785E-14
  -4.00000000      -2.10204440E-14
  -3.99499989      -2.15661365E-14
  -3.99000001      -2.21190220E-14
  -3.98499990      -2.26794867E-14
  -3.98000002      -2.32479238E-14
  -3.97499990      -2.38246990E-14
  -3.97000003      -2.44101953E-14
  -3.96499991      -2.50048124E-14
  -3.96000004      -2.56089570E-14
  -3.95499992      -2.62230440E-14
  -3.95000005      -2.68475885E-14
  -3.94499993      -2.74830512E-14
  -3.94000006      -2.81300489E-14
  -3.93499994      -2.87892167E-14
  -3.93000007      -2.94613170E-14
  -3.92499995      -3.01471867E-14
  -3.92000008      -3.08477609E-14
  -3.91499996      -3.15641271E-14
  -3.91000009      -3.22974544E-14
  -3.90499997      -3.30490775E-14
  -3.90000010      -3.38204704E-14
  -3.89499998      -3.46132221E-14
  -3.89000010      -3.54290944E-14
  -3.88499999      -3.62699644E-14
  -3.88000011      -3.71378106E-14
  -3.87500000      -3.80348083E-14
  -3.86999989      -3.89631971E-14
  -3.86500001      -3.99253147E-14
  -3.85999990      -4.09236853E-14
  -3.85500002      -4.19608060E-14
  -3.84999990      -4.30393026E-14
  -3.84500003      -4.41618618E-14
  -3.83999991      -4.53311637E-14
  -3.83500004      -4.65499797E-14
  -3.82999992      -4.78211153E-14
  -3.82500005      -4.91473215E-14
  -3.81999993      -5.05314513E-14
  -3.81500006      -5.19762286E-14
  -3.80999994      -5.34844589E-14
  -3.80500007      -5.50589170E-14
  -3.79999995      -5.67023845E-14
  -3.79500008      -5.84177075E-14
  -3.78999996      -6.02075898E-14
  -3.78500009      -6.20748434E-14
  -3.77999997      -6.40223687E-14
  -3.77500010      -6.60530116E-14
  -3.76999998      -6.81696656E-14
  -3.76500010      -7.03753936E-14
  -3.75999999      -7.26731772E-14
  -3.75500011      -7.50661808E-14
  -3.75000000      -7.75576977E-14
  -3.74499989      -8.01511567E-14
  -3.74000001      -8.28500544E-14
  -3.73499990      -8.56580161E-14
  -3.73000002      -8.85788432E-14
  -3.72499990      -9.16164795E-14
  -3.72000003      -9.47750315E-14
  -3.71499991      -9.80587343E-14
  -3.71000004      -1.01471952E-13
  -3.70499992      -1.05019224E-13
  -3.70000005      -1.08705186E-13
  -3.69499993      -1.12534602E-13
  -3.69000006      -1.16512404E-13
  -3.68499994      -1.20643594E-13
  -3.68000007      -1.24933064E-13
  -3.67499995      -1.29386072E-13
  -3.67000008      -1.34007714E-13
  -3.66499996      -1.38803357E-13
  -3.66000009      -1.43778178E-13
  -3.65499997      -1.48937340E-13
  -3.65000010      -1.54286225E-13
  -3.64499998      -1.59829967E-13
  -3.64000010      -1.65573921E-13
  -3.63499999      -1.71523426E-13
  -3.63000011      -1.77683728E-13
  -3.62500000      -1.84059948E-13
  -3.61999989      -1.90657467E-13
  -3.61500001      -1.97481571E-13
  -3.60999990      -2.04537518E-13
  -3.60500002      -2.11830634E-13
  -3.59999990      -2.19366449E-13
  -3.59500003      -2.27150465E-13
  -3.58999991      -2.35188035E-13
  -3.58500004      -2.43484920E-13
  -3.57999992      -2.52046973E-13
  -3.57500005      -2.60879859E-13
  -3.56999993      -2.69989733E-13
  -3.56500006      -2.79382583E-13
  -3.55999994      -2.89065023E-13
  -3.55500007      -2.99043396E-13
  -3.54999995      -3.09324371E-13
  -3.54500008      -3.19914668E-13
  -3.53999996      -3.30821525E-13
  -3.53500009      -3.42051908E-13
  -3.52999997      -3.53613054E-13
  -3.52500010      -3.65512714E-13
  -3.51999998      -3.77758480E-13
  -3.51500010      -3.90357966E-13
  -3.50999999      -4.03319088E-13
  -3.50500011      -4.16650004E-13
  -3.50000000      -4.30358602E-13
  -3.49499989      -4.44453448E-13
  -3.49000001      -4.58942400E-13
  -3.48499990      -4.73834351E-13
  -3.48000002      -4.89137539E-13
  -3.47499990      -5.04860531E-13
  -3.47000003      -5.21012107E-13
  -3.46499991      -5.37600942E-13
  -3.46000004      -5.54635710E-13
  -3.45499992      -5.72125301E-13
  -3.45000005      -5.90078604E-13
  -3.44499993      -6.08504946E-13
  -3.44000006      -6.27413323E-13
  -3.43499994      -6.46813169E-13
  -3.43000007      -6.66713863E-13
  -3.42499995      -6.87125324E-13
  -3.42000008      -7.08056769E-13
  -3.41499996      -7.29519038E-13
  -3.41000009      -7.51521729E-13
  -3.40499997      -7.74075790E-13
  -3.40000010      -7.97191414E-13
  -3.39499998      -8.20879660E-13
  -3.39000010      -8.45152290E-13
  -3.38499999      -8.70020798E-13
  -3.38000011      -8.95496622E-13
  -3.37500000      -9.21592121E-13
  -3.36999989      -9.48319982E-13
  -3.36500001      -9.75693159E-13
  -3.35999990      -1.00372445E-12
  -3.35500002      -1.03242772E-12
  -3.34999990      -1.06181665E-12
  -3.34500003      -1.09190565E-12
  -3.33999991      -1.12270989E-12
  -3.33500004      -1.15424380E-12
  -3.32999992      -1.18652245E-12
  -3.32500005      -1.21956124E-12
  -3.31999993      -1.25337663E-12
  -3.31500006      -1.28798513E-12
  -3.30999994      -1.32340298E-12
  -3.30500007      -1.35964785E-12
  -3.29999995      -1.39673603E-12
  -3.29500008      -1.43468625E-12
  -3.28999996      -1.47351597E-12
  -3.28500009      -1.51324342E-12
  -3.27999997      -1.55388766E-12
  -3.27500010      -1.59546822E-12
  -3.26999998      -1.63800397E-12
  -3.26500010      -1.68151484E-12
  -3.25999999      -1.72602015E-12
  -3.25500011      -1.77154244E-12
  -3.25000000      -1.81810177E-12
  -3.24499989      -1.86571938E-12
  -3.24000001      -1.91441763E-12
  -3.23499990      -1.96421894E-12
  -3.23000002      -2.01514586E-12
  -3.22499990      -2.06722183E-12
  -3.22000003      -2.12047090E-12
  -3.21499991      -2.17491736E-12
  -3.21000004      -2.23058594E-12
  -3.20499992      -2.28750157E-12
  -3.20000005      -2.34569048E-12
  -3.19499993      -2.40518044E-12
  -3.19000006      -2.46599681E-12
  -3.18499994      -2.52816800E-12
  -3.18000007      -2.59172133E-12
  -3.17499995      -2.65668650E-12
  -3.17000008      -2.72309107E-12
  -3.16499996      -2.79096689E-12
  -3.16000009      -2.86034326E-12
  -3.15499997      -2.93125095E-12
  -3.15000010      -3.00372184E-12
  -3.14499998      -3.07778781E-12
  -3.14000010      -3.15348160E-12
  -3.13499999      -3.23083639E-12
  -3.13000011      -3.30988557E-12
  -3.12500000      -3.39066188E-12
  -3.11999989      -3.47320241E-12
  -3.11500001      -3.55754185E-12
  -3.10999990      -3.64371337E-12
  -3.10500002      -3.73175579E-12
  -3.09999990      -3.82170511E-12
  -3.09500003      -3.91359905E-12
  -3.08999991      -4.00747491E-12
  -3.08500004      -4.10336869E-12
  -3.07999992      -4.20132158E-12
  -3.07500005      -4.30137219E-12
  -3.06999993      -4.40355955E-12
  -3.06500006      -4.50792615E-12
  -3.05999994      -4.61451060E-12
  -3.05500007      -4.72335539E-12
  -3.04999995      -4.83450129E-12
  -3.04500008      -4.94799080E-12
  -3.03999996      -5.06386773E-12
  -3.03500009      -5.18217630E-12
  -3.02999997      -5.30296033E-12
  -3.02500010      -5.42626361E-12
  -3.01999998      -5.55213384E-12
  -3.01500010      -5.68061310E-12
  -3.00999999      -5.81175125E-12
  -3.00500011      -5.94559471E-12
  -3.00000000      -6.08219204E-12
  -2.99499989      -6.22158791E-12
  -2.99000001      -6.36383437E-12
  -2.98499990      -6.50898129E-12
  -2.98000002      -6.65707723E-12
  -2.97499990      -6.80817208E-12
  -2.97000003      -6.96231831E-12
  -2.96499991      -7.11957099E-12
  -2.96000004      -7.27997437E-12
  -2.95499992      -7.44358828E-12
  -2.95000005      -7.61045914E-12
  -2.94499993      -7.78064592E-12
  -2.94000006      -7.95419893E-12
  -2.93499994      -8.13117542E-12
  -2.93000007      -8.31162830E-12
  -2.92499995      -8.49561047E-12
  -2.92000008      -8.68318265E-12
  -2.91499996      -8.87439948E-12
  -2.91000009      -9.06931214E-12
  -2.90499997      -9.26798135E-12
  -2.90000010      -9.47046348E-12
  -2.89499998      -9.67681577E-12
  -2.89000010      -9.88709982E-12
  -2.88499999      -1.01013659E-11
  -2.88000011      -1.03196774E-11
  -2.87500000      -1.05420950E-11
  -2.86999989      -1.07686776E-11
  -2.86500001      -1.09994808E-11
  -2.85999990      -1.12345636E-11
  -2.85500002      -1.14739928E-11
  -2.84999990      -1.17178272E-11
  -2.84500003      -1.19661208E-11
  -2.83999991      -1.22189394E-11
  -2.83500004      -1.24763463E-11
  -2.82999992      -1.27384084E-11
  -2.82500005      -1.30051768E-11
  -2.81999993      -1.32767217E-11
  -2.81500006      -1.35531066E-11
  -2.80999994      -1.38343798E-11
  -2.80500007      -1.41206248E-11
  -2.79999995      -1.44118944E-11
  -2.79500008      -1.47082572E-11
  -2.78999996      -1.50097677E-11
  -2.78500009      -1.53164998E-11
  -2.77999997      -1.56285072E-11
  -2.77500010      -1.59458679E-11
  -2.76999998      -1.62686340E-11
  -2.76500010      -1.65968714E-11
  -2.75999999      -1.69306427E-11
  -2.75500011      -1.72700153E-11
  -2.75000000      -1.76150500E-11
  -2.74499989      -1.79658111E-11
  -2.74000001      -1.83223575E-11
  -2.73499990      -1.86847673E-11
  -2.73000002      -1.90530872E-11
  -2.72499990      -1.94273868E-11
  -2.72000003      -1.98077232E-11
  -2.71499991      -2.01941710E-11
  -2.71000004      -2.05867823E-11
  -2.70499992      -2.09856073E-11
  -2.70000005      -2.13907312E-11
  -2.69499993      -2.18021868E-11
  -2.69000006      -2.22200626E-11
  -2.68499994      -2.26443968E-11
  -2.68000007      -2.30752622E-11
  -2.67499995      -2.35127143E-11
  -2.67000008      -2.39568174E-11
  -2.66499996      -2.44076148E-11
  -2.66000009      -2.48651690E-11
  -2.65499997      -2.53295510E-11
  -2.65000010      -2.58007973E-11
  -2.64499998      -2.62789894E-11
  -2.64000010      -2.67641534E-11
  -2.63499999      -2.72563569E-11
  -2.63000011      -2.77556589E-11
  -2.62500000      -2.82620993E-11
  -2.61999989      -2.87757543E-11
  -2.61500001      -2.92966380E-11
  -2.60999990      -2.98248162E-11
  -2.60500002      -3.03603601E-11
  -2.59999990      -3.09032973E-11
  -2.59500003      -3.14536730E-11
  -2.58999991      -3.20115393E-11
  -2.58500004      -3.25769411E-11
  -2.57999992      -3.31499168E-11
  -2.57500005      -3.37304976E-11
  -2.56999993      -3.43187388E-11
  -2.56500006      -3.49146753E-11
  -2.55999994      -3.55183521E-11
  -2.55500007      -3.61297936E-11
  -2.54999995      -3.67490482E-11
  -2.54500008      -3.73761057E-11
  -2.53999996      -3.80110388E-11
  -2.53500009      -3.86538752E-11
  -2.52999997      -3.93046290E-11
  -2.52500010      -3.99633451E-11
  -2.51999998      -4.06300375E-11
  -2.51500010      -4.13047062E-11
  -2.50999999      -4.19874066E-11
  -2.50500011      -4.26781180E-11
  -2.50000000      -4.33768611E-11
  -2.49499989      -4.40836846E-11
  -2.49000001      -4.47985954E-11
  -2.48499990      -4.55215483E-11
  -2.48000002      -4.62525886E-11
  -2.47499990      -4.69917230E-11
  -2.47000003      -4.77389447E-11
  -2.46499991      -4.84942538E-11
  -2.46000004      -4.92576570E-11
  -2.45499992      -5.00290989E-11
  -2.45000005      -5.08086212E-11
  -2.44499993      -5.15961995E-11
  -2.44000006      -5.23918096E-11
  -2.43499994      -5.31954307E-11
  -2.43000007      -5.40070419E-11
  -2.42499995      -5.48265912E-11
  -2.42000008      -5.56541167E-11
  -2.41499996      -5.64895457E-11
  -2.41000009      -5.73328329E-11
  -2.40499997      -5.81839646E-11
  -2.40000010      -5.90428748E-11
  -2.39499998      -5.99094940E-11
  -2.39000010      -6.07838849E-11
  -2.38499999      -6.16658460E-11
  -2.38000011      -6.25554192E-11
  -2.37500000      -6.34525696E-11
  -2.36999989      -6.43571793E-11
  -2.36500001      -6.52691790E-11
  -2.35999990      -6.61885061E-11
  -2.35500002      -6.71150358E-11
  -2.34999990      -6.80487472E-11
  -2.34500003      -6.89895155E-11
  -2.33999991      -6.99372643E-11
  -2.33500004      -7.08920214E-11
  -2.32999992      -7.18534884E-11
  -2.32500005      -7.28216515E-11
  -2.31999993      -7.37963995E-11
  -2.31500006      -7.47776008E-11
  -2.30999994      -7.57652205E-11
  -2.30500007      -7.67590158E-11
  -2.29999995      -7.77589104E-11
  -2.29500008      -7.87647864E-11
  -2.28999996      -7.97764285E-11
  -2.28500009      -8.07937814E-11
  -2.27999997      -8.18166437E-11
  -2.27500010      -8.28448837E-11
  -2.26999998      -8.38783001E-11
  -2.26500010      -8.49168028E-11
  -2.25999999      -8.59601557E-11
  -2.25500011      -8.70081437E-11
  -2.25000000      -8.80607184E-11
  -2.24499989      -8.91174912E-11
  -2.24000001      -9.01784411E-11
  -2.23499990      -9.12433601E-11
  -2.23000002      -9.23118804E-11
  -2.22499990      -9.33839811E-11
  -2.22000003      -9.44592599E-11
  -2.21499991      -9.55376125E-11
  -2.21000004      -9.66187200E-11
  -2.20499992      -9.77024017E-11
  -2.20000005      -9.87883733E-11
  -2.19499993      -9.98764751E-11
  -2.19000006      -1.00966312E-10
  -2.18499994      -1.02057751E-10
  -2.18000007      -1.03150412E-10
  -2.17499995      -1.04243995E-10
  -2.17000008      -1.05338280E-10
  -2.16499996      -1.06433105E-10
  -2.16000009      -1.07527938E-10
  -2.15499997      -1.08622611E-10
  -2.15000010      -1.09716777E-10
  -2.14499998      -1.10810035E-10
  -2.14000010      -1.11902154E-10
  -2.13499999      -1.12992768E-10
  -2.13000011      -1.14081501E-10
  -2.12500000      -1.15168236E-10
  -2.11999989      -1.16252161E-10
  -2.11500001      -1.17333268E-10
  -2.10999990      -1.18411114E-10
  -2.10500002      -1.19485200E-10
  -2.09999990      -1.20555246E-10
  -2.09500003      -1.21620741E-10
  -2.08999991      -1.22681462E-10
  -2.08500004      -1.23736743E-10
  -2.07999992      -1.24786403E-10
  -2.07500005      -1.25829888E-10
  -2.06999993      -1.26866850E-10
  -2.06500006      -1.27896665E-10
  -2.05999994      -1.28919111E-10
  -2.05500007      -1.29933564E-10
  -2.04999995      -1.30939731E-10
  -2.04500008      -1.31936920E-10
  -2.03999996      -1.32924893E-10
  -2.03500009      -1.33903000E-10
  -2.02999997      -1.34870573E-10
  -2.02500010      -1.35827488E-10
  -2.01999998      -1.36773023E-10
  -2.01500010      -1.37706679E-10
  -2.00999999      -1.38628012E-10
  -2.00500011      -1.39536355E-10
  -2.00000000      -1.40431416E-10
  -1.99500000      -1.41312351E-10
  -1.99000001      -1.42178561E-10
  -1.98500001      -1.43029838E-10
  -1.98000002      -1.43865600E-10
  -1.97500002      -1.44684889E-10
  -1.97000003      -1.45487455E-10
  -1.96500003      -1.46272508E-10
  -1.96000004      -1.47039589E-10
  -1.95500004      -1.47788184E-10
  -1.95000005      -1.48517670E-10
  -1.94500005      -1.49227214E-10
  -1.94000006      -1.49916315E-10
  -1.93499994      -1.50584323E-10
  -1.92999995      -1.51230653E-10
  -1.92499995      -1.51854987E-10
  -1.91999996      -1.52456159E-10
  -1.91499996      -1.53033641E-10
  -1.90999997      -1.53587101E-10
  -1.90499997      -1.54115359E-10
  -1.89999998      -1.54618485E-10
  -1.89499998      -1.55095145E-10
  -1.88999999      -1.55545438E-10
  -1.88499999      -1.55968127E-10
  -1.88000000      -1.56362465E-10
  -1.87500000      -1.56728228E-10
  -1.87000000      -1.57064348E-10
  -1.86500001      -1.57370575E-10
  -1.86000001      -1.57646007E-10
  -1.85500002      -1.57889965E-10
  -1.85000002      -1.58101740E-10
  -1.84500003      -1.58280916E-10
  -1.84000003      -1.58426439E-10
  -1.83500004      -1.58537544E-10
  -1.83000004      -1.58614136E-10
  -1.82500005      -1.58655075E-10
  -1.82000005      -1.58659905E-10
  -1.81500006      -1.58628236E-10
  -1.80999994      -1.58558874E-10
  -1.80499995      -1.58451599E-10
  -1.79999995      -1.58305341E-10
  -1.79499996      -1.58119712E-10
  -1.78999996      -1.57894378E-10
  -1.78499997      -1.57627855E-10
  -1.77999997      -1.57320129E-10
  -1.77499998      -1.56970714E-10
  -1.76999998      -1.56578472E-10
  -1.76499999      -1.56142918E-10
  -1.75999999      -1.55663760E-10
  -1.75500000      -1.55140276E-10
  -1.75000000      -1.54571855E-10
  -1.74500000      -1.53957999E-10
  -1.74000001      -1.53297347E-10
  -1.73500001      -1.52590315E-10
  -1.73000002      -1.51836127E-10
  -1.72500002      -1.51034421E-10
  -1.72000003      -1.50183754E-10