  -6.00000000       0.00000000    
  -5.99499989       0.00000000    
  -5.98999977       0.00000000    
  -5.98500013       0.00000000    
  -5.98000002       0.00000000    
  -5.97499990       0.00000000    
  -5.96999979       0.00000000    
  -5.96500015       0.00000000    
  -5.96000004       0.00000000    
  -5.95499992       0.00000000    
  -5.94999981       0.00000000    
  -5.94500017       0.00000000    
  -5.94000006       0.00000000    
  -5.93499994       0.00000000    
  -5.92999983       0.00000000    
  -5.92500019       0.00000000    
  -5.92000008       0.00000000    
  -5.91499996       0.00000000    
  -5.90999985       0.00000000    
  -5.90500021       0.00000000    
  -5.90000010       0.00000000    
  -5.89499998       0.00000000    
  -5.88999987       0.00000000    
  -5.88500023       0.00000000    
  -5.88000011       0.00000000    
  -5.87500000       0.00000000    
  -5.86999989       0.00000000    
  -5.86499977       0.00000000    
  -5.86000013       0.00000000    
  -5.85500002       0.00000000    
  -5.84999990       0.00000000    
  -5.84499979       0.00000000    
  -5.84000015       0.00000000    
  -5.83500004       0.00000000    
  -5.82999992       0.00000000    
  -5.82499981       0.00000000    
  -5.82000017       0.00000000    
  -5.81500006       0.00000000    
  -5.80999994       0.00000000    
  -5.80499983       0.00000000    
  -5.80000019       0.00000000    
  -5.79500008       0.00000000    
  -5.78999996       0.00000000    
  -5.78499985       0.00000000    
  -5.78000021       0.00000000    
  -5.77500010       0.00000000    
  -5.76999998       0.00000000    
  -5.76499987       0.00000000    
  -5.76000023       0.00000000    
  -5.75500011       0.00000000    
  -5.75000000       0.00000000    
  -5.74499989       0.00000000    
  -5.73999977       0.00000000    
  -5.73500013       0.00000000    
  -5.73000002       0.00000000    
  -5.72499990       0.00000000    
  -5.71999979       0.00000000    
  -5.71500015       0.00000000    
  -5.71000004       0.00000000    
  -5.70499992       0.00000000    
  -5.69999981       0.00000000    
  -5.69500017       0.00000000    
  -5.69000006       0.00000000    
  -5.68499994       0.00000000    
  -5.67999983       0.00000000    
  -5.67500019       0.00000000    
  -5.67000008       0.00000000    
  -5.66499996       0.00000000    
  -5.65999985       0.00000000    
  -5.65500021       0.00000000    
  -5.65000010       0.00000000    
  -5.64499998       0.00000000    
  -5.63999987       0.00000000    
  -5.63500023       0.00000000    
  -5.63000011       0.00000000    
  -5.62500000       0.00000000    
  -5.61999989       0.00000000    
  -5.61499977       0.00000000    
  -5.61000013       0.00000000    
  -5.60500002       0.00000000    
  -5.59999990       0.00000000    
  -5.59499979       0.00000000    
  -5.59000015       0.00000000    
  -5.58500004       0.00000000    
  -5.57999992       0.00000000    
  -5.57499981       0.00000000    
  -5.57000017       0.00000000    
  -5.56500006       0.00000000    
  -5.55999994       0.00000000    
  -5.55499983       0.00000000    
  -5.55000019       0.00000000    
  -5.54500008       0.00000000    
  -5.53999996       0.00000000    
  -5.53499985       0.00000000    
  -5.53000021       0.00000000    
  -5.52500010       0.00000000    
  -5.51999998       0.00000000    
  -5.51499987       0.00000000    
  -5.51000023       0.00000000    
  -5.50500011       0.00000000    
  -5.50000000       0.00000000    
  -5.49499989       0.00000000    
  -5.48999977       0.00000000    
  -5.48500013       0.00000000    
  -5.48000002       0.00000000    
  -5.47499990       0.00000000    
  -5.46999979       0.00000000    
  -5.46500015       0.00000000    
  -5.46000004       0.00000000    
  -5.45499992       0.00000000    
  -5.44999981       0.00000000    
  -5.44500017       0.00000000    
  -5.44000006       0.00000000    
  -5.43499994       0.00000000    
  -5.42999983       0.00000000    
  -5.42500019       0.00000000    
  -5.42000008       0.00000000    
  -5.41499996       0.00000000    
  -5.40999985       0.00000000    
  -5.40500021       0.00000000    
  -5.40000010       0.00000000    
  -5.39499998       0.00000000    
  -5.38999987       0.00000000    
  -5.38500023       0.00000000    
  -5.38000011       0.00000000    
  -5.37500000       0.00000000    
  -5.36999989       0.00000000    
  -5.36499977       0.00000000    
  -5.36000013       0.00000000    
  -5.35500002       0.00000000    
  -5.34999990       0.00000000    
  -5.34499979       0.00000000    
  -5.34000015       0.00000000    
  -5.33500004       0.00000000    
  -5.32999992       0.00000000    
  -5.32499981       0.00000000    
  -5.32000017       0.00000000    
  -5.31500006       0.00000000    
  -5.30999994       0.00000000    
  -5.30499983       0.00000000    
  -5.30000019       0.00000000    
  -5.29500008      -0.00000000    
  -5.28999996      -0.00000000    
  -5.28499985      -0.00000000    
  -5.28000021      -1.47570881E-38
  -5.27500010      -1.98663050E-38
  -5.26999998      -2.63783786E-38
  -5.26499987      -3.06221606E-38
  -5.26000023      -3.73934982E-38
  -5.25500011      -4.45661284E-38
  -5.25000000      -5.14851685E-38
  -5.24499989      -5.78555330E-38
  -5.23999977      -6.47767031E-38
  -5.23500013      -6.39792353E-38
  -5.23000002      -6.74618936E-38
  -5.22499990      -6.29270283E-38
  -5.21999979      -6.47762266E-38
  -5.21500015      -5.21558580E-38
  -5.21000004      -3.52843058E-38
  -5.20499992      -0.00000000    
  -5.19999981       2.42508264E-38
  -5.19500017       6.86418205E-38
  -5.19000006       1.24629737E-37
  -5.18499994       1.93096395E-37
  -5.17999983       2.74538628E-37
  -5.17500019       3.68916192E-37
  -5.17000008       4.75480927E-37
  -5.16499996       5.92598717E-37
  -5.15999985       7.17559205E-37
  -5.15500021       8.46385797E-37
  -5.15000010       9.73656522E-37
  -5.14499998       1.09235040E-36
  -5.13999987       1.19373096E-36
  -5.13500023       1.26750033E-36
  -5.13000011       1.30075348E-36
  -5.12500000       1.28021022E-36
  -5.11999989       1.19032417E-36
  -5.11499977       1.01471165E-36
  -5.11000013       7.36467407E-37
  -5.10500002       3.38857981E-37
  -5.09999990      -1.93794421E-37
  -5.09499979      -8.75037396E-37
  -5.09000015      -1.71502610E-36
  -5.08500004      -2.71909299E-36
  -5.07999992      -3.88616861E-36
  -5.07499981      -5.20710169E-36
  -5.07000017      -6.66293071E-36
  -5.06500006      -8.22317920E-36
  -5.05999994      -9.84428090E-36
  -5.05499983      -1.14682252E-35
  -5.05000019      -1.30215588E-35
  -5.04500008      -1.44148826E-35
  -5.03999996      -1.55429755E-35
  -5.03499985      -1.62857553E-35
  -5.03000021      -1.65101353E-35
  -5.02500010      -1.60729954E-35
  -5.01999998      -1.48253643E-35
  -5.01499987      -1.26178858E-35
  -5.01000023      -9.30764161E-36
  -5.00500011      -4.76633184E-36
  -5.00000000       1.11029662E-36
  -4.99499989       8.39189607E-36
  -4.98999977       1.71020868E-35
  -4.98500013       2.72064953E-35
  -4.98000002       3.86006947E-35
  -4.97499990       5.10986246E-35
  -4.96999979       6.44220725E-35
  -4.96500015       7.81921221E-35
  -4.96000004       9.19231130E-35
  -4.95499992       1.05020364E-34
  -4.94999981       1.16782207E-34
  -4.94500017       1.26407577E-34
  -4.94000006       1.33009505E-34
  -4.93499994       1.35635759E-34
  -4.92999983       1.33297053E-34
  -4.92500019       1.25002574E-34
  -4.92000008       1.09803915E-34
  -4.91499996       8.68458728E-35
  -4.90999985       5.54243405E-35
  -4.90500021       1.50493281E-35
  -4.90000010      -3.44880773E-35
  -4.89499998      -9.30477017E-35
  -4.88999987      -1.60073494E-34
  -4.88500023      -2.34531763E-34
  -4.88000011      -3.14857815E-34
  -4.87500000      -3.98915533E-34
  -4.86999989      -4.83974672E-34
  -4.86499977      -5.66708949E-34
  -4.86000013      -6.43221371E-34
  -4.85500002      -7.09099289E-34
  -4.84999990      -7.59503293E-34
  -4.84499979      -7.89293488E-34
  -4.84000015      -7.93192731E-34
  -4.83500004      -7.65988486E-34
  -4.82999992      -7.02771502E-34
  -4.82499981      -5.99206546E-34
  -4.82000017      -4.51831008E-34
  -4.81500006      -2.58372281E-34
  -4.80999994      -1.80722155E-35
  -4.80499983       2.67991062E-34
  -4.80000019       5.96602184E-34
  -4.79500008       9.62144330E-34
  -4.78999996       1.35639081E-33
  -4.78499985       1.76836980E-33
  -4.78000021       2.18432656E-33
  -4.77500010       2.58779626E-33
  -4.76999998       2.95981231E-33
  -4.76499987       3.27925455E-33
  -4.76000023       3.52336285E-33
  -4.75500011       3.66840489E-33
  -4.75000000       3.69051594E-33
  -4.74499989       3.56668459E-33
  -4.73999977       3.27588529E-33
  -4.73500013       2.80032178E-33
  -4.73000002       2.12675434E-33
  -4.72499990       1.24785944E-33
  -4.71999979       1.63578763E-34
  -4.71500015      -1.11760851E-33
  -4.71000004      -2.57756322E-33
  -4.70499992      -4.18757410E-33
  -4.69999981      -5.90774698E-33
  -4.69500017      -7.68676107E-33
  -4.69000006      -9.46206757E-33
  -4.68499994      -1.11605974E-32
  -4.67999983      -1.27000395E-32
  -4.67500019      -1.39907044E-32
  -4.67000008      -1.49380338E-32
  -4.66499996      -1.54456945E-32
  -4.65999985      -1.54192856E-32
  -4.65500021      -1.47705508E-32
  -4.65000010      -1.34220222E-32
  -4.64499998      -1.13119489E-32
  -4.63999987      -8.39939203E-33
  -4.63500023      -4.66921527E-33
  -4.63000011      -1.36844234E-34
  -4.62500000       5.14753605E-33
  -4.61999989       1.10955441E-32
  -4.61499977       1.75782059E-32
  -4.61000013       2.44248948E-32
  -4.60500002       3.14238058E-32
  -4.59999990       3.83241839E-32
  -4.59499979       4.48405427E-32
  -4.59000015       5.06588930E-32
  -4.58500004       5.54450887E-32
  -4.57999992       5.88552918E-32
  -4.57499981       6.05482858E-32
  -4.57000017       6.01995695E-32
  -4.56500006       5.75168152E-32
  -4.55999994       5.22562428E-32
  -4.55499983       4.42393479E-32
  -4.55000019       3.33694282E-32
  -4.54500008       1.96470862E-32
  -4.53999996       3.18398624E-33
  -4.53499985      -1.57859473E-32
  -4.53000021      -3.68987794E-32
  -4.52500010      -5.96570083E-32
  -4.51999998      -8.34308056E-32
  -4.51499987      -1.07465045E-31
  -4.51000023      -1.30892095E-31
  -4.50500011      -1.52751024E-31
  -4.50000000      -1.72013180E-31
  -4.49499989      -1.87613741E-31
  -4.48999977      -1.98489180E-31
  -4.48500013      -2.03619273E-31
  -4.48000002      -2.02073051E-31
  -4.47499990      -1.93057185E-31
  -4.46999979      -1.75964545E-31
  -4.46500015      -1.50421994E-31
  -4.46000004      -1.16334479E-31
  -4.45499992      -7.39235248E-32
  -4.44999981      -2.37576489E-32
  -4.44500017       3.32274667E-32
  -4.44000006       9.57212455E-32
  -4.43499994       1.62044565E-31
  -4.42999983       2.30171997E-31
  -4.42500019       2.97770939E-31
  -4.42000008       3.62257760E-31
  -4.41499996       4.20870659E-31
  -4.40999985       4.70759109E-31
  -4.40500021       5.09087043E-31
  -4.40000010       5.33147532E-31
  -4.39499998       5.40485673E-31
  -4.38999987       5.29026060E-31
  -4.38500023       4.97197999E-31
  -4.38000011       4.44055921E-31
  -4.37500000       3.69386710E-31
  -4.36999989       2.73799812E-31
  -4.36499977       1.58793324E-31
  -4.36000013       2.67905213E-32
  -4.35500002      -1.18857255E-31
  -4.34999990      -2.73906406E-31
  -4.34499979      -4.33297421E-31
  -4.34000015      -5.91273894E-31
  -4.33500004      -7.41543026E-31
  -4.32999992      -8.77476816E-31
  -4.32499981      -9.92348193E-31
  -4.32000017      -1.07959705E-30
  -4.31500006      -1.13311844E-30
  -4.30999994      -1.14755953E-30
  -4.30499983      -1.11862008E-30
  -4.30000019      -1.04333766E-30
  -4.29500008      -9.20345873E-31
  -4.28999996      -7.50092537E-31
  -4.28499985      -5.35002744E-31
  -4.28000021      -2.79573746E-31
  -4.27500010       9.60830568E-33
  -4.26999998       3.23941229E-31
  -4.26499987       6.52973194E-31
  -4.26000023       9.84666385E-31
  -4.25500011       1.30575671E-30
  -4.25000000       1.60220294E-30
  -4.24499989       1.85971519E-30
  -4.23999977       2.06434694E-30
  -4.23500013       2.20313088E-30
  -4.23000002       2.26473544E-30
  -4.22499990       2.24011269E-30
  -4.21999979       2.12310699E-30
  -4.21500015       1.91099327E-30
  -4.21000004       1.60491579E-30
  -4.20499992       1.21019081E-30
  -4.19999981       7.36445189E-31
  -4.19500017       1.97574387E-31
  -4.19000006      -3.88506431E-31
  -4.18499994      -1.00032444E-30
  -4.17999983      -1.61352643E-30
  -4.17500019      -2.20175922E-30
  -4.17000008      -2.73774177E-30
  -4.16499996      -3.19448809E-30
  -4.15999985      -3.54664513E-30
  -4.15500021      -3.77189091E-30
  -4.15000010      -3.85233573E-30
  -4.14499998      -3.77584697E-30
  -4.13999987      -3.53724343E-30
  -4.13500023      -3.13925659E-30
  -4.13000011      -2.59320919E-30
  -4.12500000      -1.91933044E-30
  -4.11999989      -1.14664838E-30
  -4.11499977      -3.12413179E-31
  -4.11000013       5.38969849E-31
  -4.10500002       1.35752746E-30
  -4.09999990       2.08977693E-30
  -4.09499979       2.68126443E-30
  -4.09000015       3.07944819E-30
  -4.08500004       3.23690670E-30
  -4.07999992       3.11468538E-30
  -4.07499981       2.68566586E-30
  -4.07000017       1.93779360E-30
  -4.06500006       8.76960915E-31
  -4.05999994      -4.70624351E-31
  -4.05499983      -2.05679087E-30
  -4.05000019      -3.81064875E-30
  -4.04500008      -5.63890207E-30
  -4.03999996      -7.42735334E-30
  -4.03499985      -9.04370811E-30
  -4.03000021      -1.03417157E-29
  -4.02500010      -1.11666599E-29
  -4.01999998      -1.13620779E-29
  -4.01499987      -1.07776499E-29
  -4.01000023      -9.27793053E-30
  -4.00500011      -6.75174088E-30
  -4.00000000      -3.12180774E-30
  -3.99499989       1.64579723E-30
  -3.99000001       7.53277920E-30
  -3.98499990       1.44609323E-29
  -3.98000002       2.22861030E-29
  -3.97499990       3.07942777E-29
  -3.97000003       3.97004458E-29
  -3.96499991       4.86504619E-29
  -3.96000004       5.72264203E-29
  -3.95499992       6.49557730E-29
  -3.95000005       7.13242757E-29
  -3.94499993       7.57927581E-29
  -3.94000006       7.78173499E-29
  -3.93499994       7.68731507E-29
  -3.93000007       7.24803994E-29
  -3.92499995       6.42323456E-29
  -3.92000008       5.18242530E-29
  -3.91499996       3.50818160E-29
  -3.91000009       1.39883346E-29
  -3.90499997      -1.12913315E-29
  -3.90000010      -4.03909790E-29
  -3.89499998      -7.27291272E-29
  -3.89000010      -1.07502460E-28
  -3.88499999      -1.43687398E-28
  -3.88000011      -1.80051339E-28
  -3.87500000      -2.15174210E-28
  -3.86999989      -2.47480842E-28
  -3.86500001      -2.75283904E-28
  -3.85999990      -2.96837540E-28
  -3.85500002      -3.10400612E-28
  -3.84999990      -3.14307867E-28
  -3.84500003      -3.07047833E-28
  -3.83999991      -2.87344270E-28
  -3.83500004      -2.54239147E-28
  -3.82999992      -2.07173247E-28
  -3.82500005      -1.46060914E-28
  -3.81999993      -7.13557947E-29
  -3.81500006       1.58972216E-29
  -3.80999994       1.14026837E-28
  -3.80500007       2.20720912E-28
  -3.79999995       3.33035826E-28
  -3.79500008       4.47432237E-28
  -3.78999996       5.59838513E-28
  -3.78500009       6.65744004E-28
  -3.77999997       7.60319923E-28
  -3.77500010       8.38569157E-28
  -3.76999998       8.95499935E-28
  -3.76500010       9.26319822E-28
  -3.75999999       9.26647808E-28
  -3.75500011       8.92732855E-28
  -3.75000000       8.21676055E-28
  -3.74499989       7.11644596E-28
  -3.74000001       5.62072302E-28
  -3.73499990       3.73830513E-28
  -3.73000002       1.49367627E-28
  -3.72499990      -1.07199632E-28
  -3.72000003      -3.90044893E-28
  -3.71499991      -6.91656188E-28
  -3.71000004      -1.00292474E-27
  -3.70499992      -1.31330453E-27
  -3.70000005      -1.61104935E-27
  -3.69499993      -1.88351712E-27
  -3.69000006      -2.11755034E-27
  -3.68499994      -2.29990741E-27
  -3.68000007      -2.41776334E-27
  -3.67499995      -2.45922958E-27
  -3.67000008      -2.41391572E-27
  -3.66499996      -2.27348345E-27
  -3.66000009      -2.03219101E-27
  -3.65499997      -1.68739794E-27
  -3.65000010      -1.24000682E-27
  -3.64499998      -6.94823668E-28
  -3.64000010      -6.08070190E-29
  -3.63499999       6.48808724E-28
  -3.63000011       1.41653756E-27
  -3.62500000       2.22082872E-27
  -3.61999989       3.03641788E-27
  -3.61500001       3.83486779E-27
  -3.60999990       4.58526826E-27
  -3.60500002       5.25510439E-27
  -3.59999990       5.81129562E-27
  -3.59500003       6.22132187E-27
  -3.58999991       6.45449305E-27
  -3.58500004       6.48324719E-27
  -3.57999992       6.28447504E-27
  -3.57500005       5.84083438E-27
  -3.56999993       5.14195831E-27
  -3.56500006       4.18555152E-27
  -3.55999994       2.97828965E-27
  -3.55500007       1.53649035E-27
  -3.54999995      -1.13509869E-28
  -3.54500008      -1.93529516E-27
  -3.53999996      -3.88268209E-27
  -3.53500009      -5.90040416E-27
  -3.52999997      -7.92520095E-27
  -3.52500010      -9.88729755E-27
  -3.51999998      -1.17122756E-26
  -3.51500010      -1.33232552E-26
  -3.50999999      -1.46434216E-26
  -3.50500011      -1.55987507E-26
  -3.50000000      -1.61209273E-26
  -3.49499989      -1.61502815E-26
  -3.49000001      -1.56387484E-26
  -3.48499990      -1.45526425E-26
  -3.48000002      -1.28751891E-26
  -3.47499990      -1.06086924E-26
  -3.47000003      -7.77619252E-27
  -3.46499991      -4.42256955E-27
  -3.46000004      -6.14923142E-28
  -3.45499992       3.55776307E-27
  -3.45000005       7.98581305E-27
  -3.44499993       1.25408338E-26
  -3.44000006       1.70786398E-26
  -3.43499994       2.14428449E-26
  -3.43000007       2.54693773E-26
  -3.42499995       2.89915103E-26
  -3.42000008       3.18455690E-26
  -3.41499996       3.38768766E-26
  -3.41000009       3.49460543E-26
  -3.40499997       3.49351828E-26
  -3.40000010       3.37538667E-26
  -3.39499998       3.13446516E-26
  -3.39000010       2.76880040E-26
  -3.38499999       2.28060889E-26
  -3.38000011       1.67655930E-26
  -3.37500000       9.67911916E-27
  -3.36999989       1.70508934E-27
  -3.36500001      -6.95401226E-27
  -3.35999990      -1.60550019E-26
  -3.35500002      -2.53192719E-26
  -3.34999990      -3.44394762E-26
  -3.34500003      -4.30881188E-26
  -3.33999991      -5.09272392E-26
  -3.33500004      -5.76195345E-26
  -3.32999992      -6.28401728E-26
  -3.32500005      -6.62892514E-26
  -3.31999993      -6.77043755E-26
  -3.31500006      -6.68728236E-26
  -3.30999994      -6.36431716E-26
  -3.30500007      -5.79354795E-26
  -3.29999995      -4.97499444E-26
  -3.29500008      -3.91732887E-26
  -3.28999996      -2.63827874E-26
  -3.28500009      -1.16473025E-26
  -3.27999997       4.67473657E-27
  -3.27500010       2.21406940E-26
  -3.26999998       4.02324023E-26
  -3.26500010       5.83682436E-26
  -3.25999999       7.59182972E-26
  -3.25500011       9.22224621E-26
  -3.25000000       1.06610964E-25
  -3.24499989       1.18426893E-25
  -3.24000001       1.27050055E-25
  -3.23499990       1.31921000E-25
  -3.23000002       1.32565598E-25
  -3.22499990       1.28617793E-25
  -3.22000003       1.19840643E-25
  -3.21499991       1.06144711E-25
  -3.21000004       8.76023811E-26
  -3.20499992       6.44578431E-26
  -3.20000005       3.71320742E-26
  -3.19499993       6.22180143E-27
  -3.19000006      -2.75072932E-26
  -3.18499994      -6.31342022E-26
  -3.18000007      -9.96017936E-26
  -3.17499995      -1.35742895E-25
  -3.17000008      -1.70311532E-25
  -3.16499996      -2.02019377E-25
  -3.16000009      -2.29576199E-25
  -3.15499997      -2.51733354E-25
  -3.15000010      -2.67328986E-25
  -3.14499998      -2.75333731E-25
  -3.14000010      -2.74894705E-25
  -3.13499999      -2.65377468E-25
  -3.13000011      -2.46402503E-25
  -3.12500000      -2.17876726E-25
  -3.11999989      -1.80016703E-25
  -3.11500001      -1.33363506E-25
  -3.10999990      -7.87876370E-26
  -3.10500002      -1.74830281E-26
  -3.09999990       4.90501847E-26
  -3.09500003       1.19034094E-25
  -3.08999991       1.90453246E-25
  -3.08500004       2.61104553E-25
  -3.07999992       3.28658312E-25
  -3.07500005       3.90725789E-25
  -3.06999993       4.44935004E-25
  -3.06500006       4.89009205E-25
  -3.05999994       5.20848815E-25
  -3.05500007       5.38612335E-25
  -3.04999995       5.40792796E-25
  -3.04500008       5.26290229E-25
  -3.03999996       4.94473349E-25
  -3.03500009       4.45229792E-25
  -3.02999997       3.79004204E-25
  -3.02500010       2.96817371E-25
  -3.01999998       2.00269967E-25
  -3.01500010       9.15257253E-26
  -3.00999999      -2.67241454E-26
  -3.00500011      -1.51316378E-25
  -3.00000000      -2.78690802E-25
  -2.99499989      -4.04981369E-25
  -2.99000001      -5.26125555E-25
  -2.98499990      -6.37983023E-25
  -2.98000002      -7.36468560E-25
  -2.97499990      -8.17686080E-25
  -2.97000003      -8.78069931E-25
  -2.96499991      -9.14516981E-25
  -2.96000004      -9.24517272E-25
  -2.95499992      -9.06269243E-25
  -2.95000005      -8.58780211E-25
  -2.94499993      -7.81944124E-25
  -2.94000006      -6.76594659E-25
  -2.93499994      -5.44534511E-25
  -2.93000007      -3.88527505E-25
  -2.92499995      -2.12265386E-25
  -2.92000008      -2.02981722E-26
  -2.91499996       1.82066422E-25
  -2.91000009       3.88894054E-25
  -2.90499997       5.93782013E-25
  -2.90000010       7.90042471E-25
  -2.89499998       9.70905054E-25
  -2.89000010       1.12973214E-24
  -2.88499999       1.26024375E-24
  -2.88000011       1.35673978E-24
  -2.87500000       1.41432022E-24
  -2.86999989       1.42908207E-24
  -2.86500001       1.39830624E-24
  -2.85999990       1.32060552E-24
  -2.85500002       1.19604122E-24
  -2.84999990       1.02619917E-24
  -2.84500003       8.14217212E-25
  -2.83999991       5.64766920E-25
  -2.83500004       2.83980657E-25
  -2.82999992      -2.06698736E-26
  -2.82500005      -3.40547037E-25
  -2.81999993      -6.66065929E-25
  -2.81500006      -9.86958374E-25
  -2.80999994      -1.29256684E-24
  -2.80500007      -1.57217336E-24
  -2.79999995      -1.81534151E-24
  -2.79500008      -2.01227136E-24
  -2.78999996      -2.15414149E-24
  -2.78500009      -2.23345731E-24
  -2.77999997      -2.24434576E-24
  -2.77500010      -2.18283906E-24
  -2.76999998      -2.04709208E-24
  -2.76500010      -1.83755031E-24
  -2.75999999      -1.55705405E-24
  -2.75500011      -1.21086047E-24
  -2.75000000      -8.06601006E-25
  -2.74499989      -3.54151338E-25
  -2.74000001       1.34573286E-25
  -2.73499990       6.45897122E-25
  -2.73000002       1.16474050E-24
  -2.72499990       1.67502563E-24
  -2.72000003       2.16014551E-24
  -2.71499991       2.60346818E-24
  -2.71000004       2.98886243E-24
  -2.70499992       3.30123458E-24
  -2.70000005       3.52705509E-24
  -2.69499993       3.65487540E-24
  -2.69000006       3.67576681E-24
  -2.68499994       3.58373869E-24
  -2.68000007       3.37605370E-24
  -2.67499995       3.05347664E-24
  -2.67000008       2.62039930E-24
  -2.66499996       2.08487398E-24
  -2.66000009       1.45852927E-24
  -2.65499997       7.56360132E-25
  -2.65000010      -3.58873164E-27
  -2.64499998      -8.00647868E-25
  -2.64000010      -1.61206536E-24
  -2.63499999      -2.41361500E-24
  -2.63000011      -3.18029925E-24
  -2.62500000      -3.88708529E-24
  -2.61999989      -4.50969731E-24
  -2.61500001      -5.02539067E-24
  -2.60999990      -5.41374177E-24
  -2.60500002      -5.65736331E-24
  -2.59999990      -5.74258277E-24
  -2.59500003      -5.66001704E-24
  -2.58999991      -5.40504497E-24
  -2.58500004      -4.97813593E-24
  -2.57999992      -4.38504782E-24
  -2.57500005      -3.63685861E-24
  -2.56999993      -2.74984211E-24
  -2.56500006      -1.74516188E-24
  -2.55999994      -6.48410729E-25
  -2.55500007       5.10996484E-25
  -2.54999995       1.70059281E-24
  -2.54500008       2.88574391E-24
  -2.53999996       4.03061971E-24
  -2.53500009       5.09926118E-24
  -2.52999997       6.05668352E-24
  -2.52500010       6.86998689E-24
  -2.51999998       7.50943832E-24
  -2.51500010       7.94950044E-24
  -2.50999999       8.16976933E-24
  -2.50500011       8.15578914E-24
  -2.50000000       7.89969728E-24
  -2.49499989       7.40070174E-24
  -2.49000001       6.66535637E-24
  -2.48499990       5.70760626E-24
  -2.48000002       4.54861300E-24
  -2.47499990       3.21636301E-24
  -2.47000003       1.74503270E-24
  -2.46499991       1.74148527E-25
  -2.46000004      -1.45243985E-24
  -2.45499992      -3.08777217E-24
  -2.45000005      -4.68308460E-24
  -2.44499993      -6.18927053E-24
  -2.44000006      -7.55835796E-24
  -2.43499994      -8.74502485E-24
  -2.43000007      -9.70804494E-24
  -2.42499995      -1.04116931E-23
  -2.42000008      -1.08270157E-23
  -2.41499996      -1.09329085E-23
  -2.41000009      -1.07169973E-23
  -2.40499997      -1.01763002E-23
  -2.40000010      -9.31759666E-24
  -2.39499998      -8.15750491E-24
  -2.39000010      -6.72225612E-24
  -2.38499999      -5.04720228E-24
  -2.38000011      -3.17599680E-24
  -2.37500000      -1.15946874E-24
  -2.36999989       9.45671169E-25
  -2.36500001       3.07843877E-24
  -2.35999990       5.17529949E-24
  -2.35500002       7.17203778E-24
  -2.34999990       9.00570551E-24
  -2.34500003       1.06165839E-23
  -2.33999991       1.19500736E-23
  -2.33500004       1.29585708E-23
  -2.32999992       1.36030070E-23
  -2.32500005       1.38543902E-23
  -2.31999993       1.36948983E-23
  -2.31500006       1.31187166E-23
  -2.30999994       1.21325742E-23
  -2.30500007       1.07558747E-23
  -2.29999995       9.02039647E-24
  -2.29500008       6.96969812E-24
  -2.28999996       4.65807140E-24
  -2.28500009       2.14917186E-24
  -2.27999997      -4.85683023E-25
  -2.27500010      -3.16947489E-24
  -2.26999998      -5.82170828E-24
  -2.26500010      -8.36076281E-24
  -2.25999999      -1.07063255E-23
  -2.25500011      -1.27819503E-23
  -2.25000000      -1.45173615E-23
  -2.24499989      -1.58508472E-23
  -2.24000001      -1.67312791E-23
  -2.23499990      -1.71199698E-23
  -2.23000002      -1.69921696E-23
  -2.22499990      -1.63380714E-23
  -2.22000003      -1.51635743E-23
  -2.21499991      -1.34904066E-23
  -2.21000004      -1.13559091E-23
  -2.20499992      -8.81224211E-24
  -2.20000005      -5.92517370E-24
  -2.19499993      -2.77242089E-24
  -2.19000006       5.58408405E-25
  -2.18499994       3.97221640E-24
  -2.18000007       7.36910313E-24
  -2.17499995       1.06472572E-23
  -2.17000008       1.37059171E-23
  -2.16499996       1.64484188E-23
  -2.16000009       1.87852157E-23
  -2.15499997       2.06365902E-23
  -2.15000010       2.19353219E-23
  -2.14499998       2.26288663E-23
  -2.14000010       2.26812230E-23
  -2.13499999       2.20743303E-23
  -2.13000011       2.08089343E-23
  -2.12500000       1.89049301E-23
  -2.11999989       1.64010809E-23
  -2.11500001       1.33542508E-23
  -2.10999990       9.83805238E-24
  -2.10500002       5.94093830E-24
  -2.09999990       1.76387208E-24
  -2.09500003      -2.58241151E-24
  -2.08999991      -6.98052602E-24
  -2.08500004      -1.13096827E-23
  -2.07999992      -1.54492334E-23
  -2.07500005      -1.92821287E-23
  -2.06999993      -2.26983524E-23
  -2.06500006      -2.55981845E-23
  -2.05999994      -2.78951534E-23
  -2.05500007      -2.95187649E-23
  -2.04999995      -3.04165959E-23
  -2.04500008      -3.05559339E-23
  -2.03999996      -2.99249493E-23
  -2.03500009      -2.85330579E-23
  -2.02999997      -2.64108564E-23
  -2.02500010      -2.36093069E-23
  -2.01999998      -2.01983165E-23
  -2.01500010      -1.62648036E-23
  -2.00999999      -1.19101943E-23
  -2.00500011      -7.24752625E-24
  -2.00000000      -2.39815175E-24
  -1.99500000       2.51180392E-24
  -1.99000001       7.35502038E-24
  -1.98500001       1.20068290E-23
  -1.98000002       1.63487463E-23
  -1.97500002       2.02718920E-23
  -1.97000003       2.36802176E-23
  -1.96500003       2.64931046E-23
  -1.96000004       2.86477425E-23
  -1.95500004       3.01007991E-23
  -1.95000005       3.08294541E-23
  -1.94500005       3.08319185E-23
  -1.94000006       3.01272606E-23
  -1.93499994       2.87544565E-23
  -1.92999995       2.67711402E-23
  -1.92499995       2.42513970E-23
  -1.91999996       2.12833237E-23
  -1.91499996       1.79661225E-23
  -1.90999997       1.44067932E-23
  -1.90499997       1.07166809E-23
  -1.89999998       7.00793657E-24
  -1.89499998       3.38985127E-24
  -1.88999999      -3.44247652E-26
  -1.88499999      -3.17126206E-24
  -1.88000000      -5.93922174E-24
  -1.87500000      -8.27163810E-24
  -1.87000000      -1.01184175E-23
  -1.86500001      -1.14475014E-23
  -1.86000001      -1.22454421E-23
  -1.85500002      -1.25176819E-23
  -1.85000002      -1.22880295E-23
  -1.84500003      -1.15974276E-23
  -1.84000003      -1.05024437E-23
  -1.83500004      -9.07297721E-24
  -1.83000004      -7.38977601E-24
  -1.82500005      -5.54147057E-24
  -1.82000005      -3.62145255E-24
  -1.81500006      -1.72462526E-24
  -1.80999994       5.58768730E-26
  -1.80499995       1.63184566E-24
  -1.79999995       2.92290932E-24
  -1.79499996       3.85926335E-24
  -1.78999996       4.38384323E-24
  -1.78499997       4.45416899E-24
  -1.77999997       4.04363237E-24
  -1.77499998       3.14216157E-24
  -1.76999998       1.75648242E-24
  -1.76499999      -9.03108179E-26
  -1.75999999      -2.35967032E-24
  -1.75500000      -4.99900603E-24
  -1.75000000      -7.94350115E-24
  -1.74500000      -1.11182671E-23
  -1.74000001      -1.44408436E-23
  -1.73500001      -1.78237174E-23
  -1.73000002      -2.11770972E-23
  -1.72500002      -2.44114727E-23
  -1.72000003      -2.74401795E-23