  -6.00000000       0.00000000    
  -5.99499989       0.00000000    
  -5.98999977       0.00000000    
  -5.98500013       0.00000000    
  -5.98000002       0.00000000    
  -5.97499990       0.00000000    
  -5.96999979       0.00000000    
  -5.96500015       0.00000000    
  -5.96000004      -1.99472034E-38
  -5.95499992      -3.43887993E-37
  -5.94999981      -2.96780719E-36
  -5.94500017      -1.80448155E-35
  -5.94000006      -8.66149467E-35
  -5.93499994      -3.50165211E-34
  -5.92999983      -1.23490062E-33
  -5.92500019      -3.89613231E-33
  -5.92000008      -1.11990662E-32
  -5.91499996      -2.97296275E-32
  -5.90999985      -7.36638111E-32
  -5.90500021      -1.71797195E-31
  -5.90000010      -3.79673014E-31
  -5.89499998      -7.99533548E-31
  -5.88999987      -1.61170413E-30
  -5.88500023      -3.12189276E-30
  -5.88000011      -5.82955936E-30
  -5.87500000      -1.05226440E-29
  -5.86999989      -1.84031724E-29
  -5.86499977      -3.12459865E-29
  -5.86000013      -5.15885674E-29
  -5.85500002      -8.29424541E-29
  -5.84999990      -1.30006518E-28
  -5.84499979      -1.98846814E-28
  -5.84000015      -2.96989014E-28
  -5.83500004      -4.33345215E-28
  -5.82999992      -6.17868804E-28
  -5.82499981      -8.60803344E-28
  -5.82000017      -1.17135791E-27
  -5.81500006      -1.55561820E-27
  -5.80999994      -2.01348850E-27
  -5.80499983      -2.53444523E-27
  -5.80000019      -3.09193011E-27
  -5.79500008      -3.63622314E-27
  -5.78999996      -4.08577217E-27
  -5.78499985      -4.31706480E-27
  -5.78000021      -4.15333110E-27
  -5.77500010      -3.35262765E-27
  -5.76999998      -1.59617232E-27
  -5.76499987       1.52185289E-27
  -5.76000023       6.50136402E-27
  -5.75500011       1.39382169E-26
  -5.75000000       2.45183347E-26
  -5.74499989       3.90011599E-26
  -5.73999977       5.81893201E-26
  -5.73500013       8.28810239E-26
  -5.73000002       1.13802233E-25
  -5.72499990       1.51515355E-25
  -5.71999979       1.96302576E-25
  -5.71500015       2.48023292E-25
  -5.71000004       3.05945305E-25
  -5.70499992       3.68553966E-25
  -5.69999981       4.33343975E-25
  -5.69500017       4.96603027E-25
  -5.69000006       5.53200000E-25
  -5.68499994       5.96393192E-25
  -5.67999983       6.17679272E-25
  -5.67500019       6.06708485E-25
  -5.67000008       5.51288788E-25
  -5.66499996       4.37515767E-25
  -5.65999985       2.50052834E-25
  -5.65500021      -2.74055486E-26
  -5.65000010      -4.11458607E-25
  -5.64499998      -9.18091014E-25
  -5.63999987      -1.56151831E-24
  -5.63500023      -2.35278140E-24
  -5.63000011      -3.29810123E-24
  -5.62500000      -4.39702786E-24
  -5.61999989      -5.64042884E-24
  -5.61499977      -7.00839174E-24
  -5.61000013      -8.46814414E-24
  -5.60500002      -9.97210588E-24
  -5.59999990      -1.14562309E-23
  -5.59499979      -1.28388051E-23
  -5.59000015      -1.40198616E-23
  -5.58500004      -1.48814665E-23
  -5.57999992      -1.52890189E-23
  -5.57499981      -1.50937395E-23
  -5.57000017      -1.41366193E-23
  -5.56500006      -1.22537953E-23
  -5.55999994      -9.28355652E-24
  -5.55499983      -5.07492680E-24
  -5.55000019       5.02234458E-25
  -5.54500008       7.54583321E-24
  -5.53999996       1.61090777E-23
  -5.53499985       2.61873958E-23
  -5.53000021       3.77052762E-23
  -5.52500010       5.05036451E-23
  -5.51999998       6.43286470E-23
  -5.51499987       7.88224452E-23
  -5.51000023       9.35173840E-23
  -5.50500011       1.07833941E-22
  -5.50000000       1.21083901E-22
  -5.49499989       1.32479369E-22
  -5.48999977       1.41148219E-22
  -5.48500013       1.46157145E-22
  -5.48000002       1.46541881E-22
  -5.47499990       1.41345169E-22
  -5.46999979       1.29661735E-22
  -5.46500015       1.10689769E-22
  -5.46000004       8.37874095E-23
  -5.45499992       4.85324552E-23
  -5.44999981       4.78337288E-24
  -5.44500017      -4.72616350E-23
  -5.44000006      -1.07010067E-22
  -5.43499994      -1.73429215E-22
  -5.42999983      -2.45011842E-22
  -5.42500019      -3.19758041E-22
  -5.42000008      -3.95176299E-22
  -5.41499996      -4.68307971E-22
  -5.40999985      -5.35777111E-22
  -5.40500021      -5.93868727E-22
  -5.40000010      -6.38636091E-22
  -5.39499998      -6.66038064E-22
  -5.38999987      -6.72104089E-22
  -5.38500023      -6.53124020E-22
  -5.38000011      -6.05860321E-22
  -5.37500000      -5.27772836E-22
  -5.36999989      -4.17251454E-22
  -5.36499977      -2.73845705E-22
  -5.36000013      -9.84794706E-23
  -5.35500002       1.06358721E-22
  -5.34999990       3.36466316E-22
  -5.34499979       5.85828404E-22
  -5.34000015       8.46583663E-22
  -5.33500004       1.10906997E-21
  -5.32999992       1.36195500E-21
  -5.32499981       1.59246253E-21
  -5.32000017       1.78670164E-21
  -5.31500006       1.93009671E-21
  -5.30999994       2.00791308E-21
  -5.30499983       2.00588027E-21
  -5.30000019       1.91088839E-21
  -5.29500008       1.71174607E-21
  -5.28999996       1.39997259E-21
  -5.28499985       9.70602846E-22
  -5.28000021       4.22956597E-22
  -5.27500010      -2.38646706E-22
  -5.26999998      -1.00427956E-21
  -5.26499987      -1.85794580E-21
  -5.26000023      -2.77729768E-21
  -5.25500011      -3.73358390E-21
  -5.25000000      -4.69184679E-21
  -5.24499989      -5.61141637E-21
  -5.23999977      -6.44670359E-21
  -5.23500013      -7.14831391E-21
  -5.23000002      -7.66448350E-21
  -5.22499990      -7.94279746E-21
  -5.21999979      -7.93221375E-21
  -5.21500015      -7.58528095E-21
  -5.21000004      -6.86055603E-21
  -5.20499992      -5.72509312E-21
  -5.19999981      -4.15696870E-21
  -5.19500017      -2.14768379E-21
  -5.19000006       2.95581940E-22
  -5.18499994       3.14807473E-21
  -5.17999983       6.36597069E-21
  -5.17500019       9.88540932E-21
  -5.17000008       1.36221864E-20
  -5.16499996       1.74721677E-20
  -5.15999985       2.13125234E-20
  -5.15500021       2.50037894E-20
  -5.15000010       2.83928582E-20
  -5.14499998       3.13168092E-20
  -5.13999987       3.36076180E-20
  -5.13500023       3.50975577E-20
  -5.13000011       3.56253054E-20
  -5.12500000       3.50424824E-20
  -5.11999989       3.32205751E-20
  -5.11499977       3.00578015E-20
  -5.11000013       2.54859307E-20
  -5.10500002       1.94765847E-20
  -5.09999990       1.20468621E-20
  -5.09499979       3.26388567E-21
  -5.09000015      -6.75185488E-21
  -5.08500004      -1.78247179E-20
  -5.07999992      -2.97240051E-20
  -5.07499981      -4.21657902E-20
  -5.07000017      -5.48170459E-20
  -5.06500006      -6.73017992E-20
  -5.05999994      -7.92094907E-20
  -5.05499983      -9.01052753E-20
  -5.05000019      -9.95424044E-20
  -5.04500008      -1.07076081E-19
  -5.03999996      -1.12278666E-19
  -5.03499985      -1.14755736E-19
  -5.03000021      -1.14162608E-19
  -5.02500010      -1.10220615E-19
  -5.01999998      -1.02732743E-19
  -5.01499987      -9.15976642E-20
  -5.01000023      -7.68220988E-20
  -5.00500011      -5.85303760E-20
  -5.00000000      -3.69707405E-20
  -4.99499989      -1.25182404E-20
  -4.98999977       1.43267844E-20
  -4.98500013       4.29444418E-20
  -4.98000002       7.26056749E-20
  -4.97499990       1.02487271E-19
  -4.96999979       1.31691393E-19
  -4.96500015       1.59269207E-19
  -4.96000004       1.84248562E-19
  -4.95499992       2.05664152E-19
  -4.94999981       2.22590555E-19
  -4.94500017       2.34176227E-19
  -4.94000006       2.39677806E-19
  -4.93499994       2.38493645E-19
  -4.92999983       2.30195033E-19
  -4.92500019       2.14554133E-19
  -4.92000008       1.91567133E-19
  -4.91499996       1.61471666E-19
  -4.90999985       1.24757616E-19
  -4.90500021       8.21698473E-20
  -4.90000010       3.47026630E-20
  -4.89499998      -1.64146060E-20
  -4.88999987      -6.97411032E-20
  -4.88500023      -1.23656949E-19
  -4.88000011      -1.76404085E-19
  -4.87500000      -2.26135205E-19
  -4.86999989      -2.70968781E-19
  -4.86499977      -3.09050367E-19
  -4.86000013      -3.38616310E-19
  -4.85500002      -3.58059940E-19
  -4.84999990      -3.65997358E-19
  -4.84499979      -3.61330509E-19
  -4.84000015      -3.43304692E-19
  -4.83500004      -3.11560189E-19
  -4.82999992      -2.66173176E-19
  -4.82499981      -2.07685833E-19
  -4.82000017      -1.37122506E-19
  -4.81500006      -5.59922176E-20
  -4.80999994       3.37257530E-20
  -4.80499983       1.29612533E-19
  -4.80000019       2.28856422E-19
  -4.79500008       3.28316877E-19
  -4.78999996       4.24602226E-19
  -4.78499985       5.14162958E-19
  -4.78000021       5.93394194E-19
  -4.77500010       6.58750406E-19
  -4.76999998       7.06862436E-19
  -4.76499987       7.34659013E-19
  -4.76000023       7.39487629E-19
  -4.75500011       7.19227287E-19
  -4.75000000       6.72395630E-19
  -4.74499989       5.98239301E-19
  -4.73999977       4.96810156E-19
  -4.73500013       3.69019359E-19
  -4.73000002       2.16668006E-19
  -4.72499990       4.24528801E-20
  -4.71999979      -1.50057168E-19
  -4.71500015      -3.56471831E-19
  -4.71000004      -5.71659662E-19
  -4.70499992      -7.89856104E-19
  -4.69999981      -1.00479914E-18
  -4.69500017      -1.20988513E-18
  -4.69000006      -1.39834924E-18
  -4.68499994      -1.56345925E-18
  -4.67999983      -1.69871806E-18
  -4.67500019      -1.79807641E-18
  -4.67000008      -1.85613891E-18
  -4.66499996      -1.86836629E-18
  -4.65999985      -1.83125938E-18
  -4.65500021      -1.74252751E-18
  -4.65000010      -1.60122500E-18
  -4.64499998      -1.40785644E-18
  -4.63999987      -1.16444676E-18
  -4.63500023      -8.74563793E-19
  -4.63000011      -5.43302825E-19
  -4.62500000      -1.77219168E-19
  -4.61999989       2.15784164E-19
  -4.61499977       6.26615112E-19
  -4.61000013       1.04519626E-18
  -4.60500002       1.46070325E-18
  -4.59999990       1.86184976E-18
  -4.59499979       2.23718400E-18
  -4.59000015       2.57541877E-18
  -4.58500004       2.86576889E-18
  -4.57999992       3.09828874E-18
  -4.57499981       3.26420111E-18
  -4.57000017       3.35621316E-18
  -4.56500006       3.36879644E-18
  -4.55999994       3.29843501E-18
  -4.55499983       3.14382007E-18
  -4.55000019       2.90599344E-18
  -4.54500008       2.58842226E-18
  -4.53999996       2.19701053E-18
  -4.53499985       1.74003728E-18
  -4.53000021       1.22802169E-18
  -4.52500010       6.73510152E-19
  -4.51999998       9.08011991E-20
  -4.51499987      -5.04400158E-19
  -4.51000023      -1.09538462E-18
  -4.50500011      -1.66489403E-18
  -4.50000000      -2.19560453E-18
  -4.49499989      -2.67064525E-18
  -4.48999977      -3.07412369E-18
  -4.48500013      -3.39164296E-18
  -4.48000002      -3.61080922E-18
  -4.47499990      -3.72169403E-18
  -4.46999979      -3.71724710E-18
  -4.46500015      -3.59364771E-18
  -4.46000004      -3.35057324E-18
  -4.45499992      -2.99137109E-18
  -4.44999981      -2.52314406E-18
  -4.44500017      -1.95670939E-18
  -4.44000006      -1.30645888E-18
  -4.43499994      -5.90100413E-19
  -4.42999983       1.71713881E-19
  -4.42500019       9.55860137E-19
  -4.42000008       1.73731855E-18
  -4.41499996       2.48983122E-18
  -4.40999985       3.18662542E-18
  -4.40500021       3.80120139E-18
  -4.40000010       4.30813282E-18
  -4.39499998       4.68389285E-18
  -4.38999987       4.90766092E-18
  -4.38500023       4.96207782E-18
  -4.38000011       4.83396409E-18
  -4.37500000       4.51492218E-18
  -4.36999989       4.00185017E-18
  -4.36499977       3.29731956E-18
  -4.36000013       2.40980357E-18
  -4.35500002       1.35375056E-18
  -4.34999990       1.49484319E-19
  -4.34499979      -1.17707615E-18
  -4.34000015      -2.59485462E-18
  -4.33500004      -4.06825210E-18
  -4.32999992      -5.55792332E-18
  -4.32499981      -7.02170792E-18
  -4.32000017      -8.41569088E-18
  -4.31500006      -9.69535170E-18
  -4.30999994      -1.08168076E-17
  -4.30499983      -1.17380833E-17
  -4.30000019      -1.24203890E-17
  -4.29500008      -1.28293678E-17
  -4.28999996      -1.29363008E-17
  -4.28499985      -1.27191650E-17
  -4.28000021      -1.21635809E-17
  -4.27500010      -1.12635902E-17
  -4.26999998      -1.00222080E-17
  -4.26499987      -8.45177002E-18
  -4.26000023      -6.57402205E-18
  -4.25500011      -4.41995564E-18
  -4.25000000      -2.02936273E-18
  -4.24499989       5.49869088E-19
  -4.23999977       3.26270164E-18
  -4.23500013       6.04816266E-18
  -4.23000002       8.84075501E-18
  -4.22499990       1.15720657E-17
  -4.21999979       1.41725073E-17
  -4.21500015       1.65731740E-17
  -4.21000004       1.87077517E-17
  -4.20499992       2.05144084E-17
  -4.19999981       2.19376885E-17
  -4.19500017       2.29302092E-17
  -4.19000006       2.34542712E-17
  -4.18499994       2.34832324E-17
  -4.17999983       2.30026008E-17
  -4.17500019       2.20108261E-17
  -4.17000008       2.05197983E-17
  -4.16499996       1.85549300E-17
  -4.15999985       1.61548506E-17
  -4.15500021       1.33707799E-17
  -4.15000010       1.02654578E-17
  -4.14499998       6.91172805E-18
  -4.13999987       3.39079572E-18
  -4.13500023      -2.09825852E-19
  -4.13000011      -3.79860569E-18
  -4.12500000      -7.28249480E-18
  -4.11999989      -1.05695170E-17
  -4.11499977      -1.35714464E-17
  -4.11000013      -1.62064253E-17
  -4.10500002      -1.84015426E-17
  -4.09999990      -2.00951056E-17
  -4.09499979      -2.12388565E-17
  -4.09000015      -2.17995989E-17
  -4.08500004      -2.17606867E-17
  -4.07999992      -2.11229007E-17
  -4.07499981      -1.99049020E-17
  -4.07000017      -1.81431579E-17
  -4.06500006      -1.58913473E-17
  -4.05999994      -1.32191891E-17
  -4.05499983      -1.02108217E-17
  -4.05000019      -6.96262654E-18
  -4.04500008      -3.58067793E-18
  -4.03999996      -1.77765301E-19
  -4.03499985       3.12983575E-18
  -4.03000021       6.22584809E-18
  -4.02500010       8.99754710E-18
  -4.01999998       1.13393690E-17
  -4.01499987       1.31563829E-17
  -4.01000023       1.43675631E-17
  -4.00500011       1.49088188E-17
  -4.00000000       1.47354765E-17
  -3.99499989       1.38243677E-17
  -3.99000001       1.21753252E-17
  -3.98499990       9.81198168E-18
  -3.98000002       6.78194548E-18
  -3.97499990       3.15616884E-18
  -3.97000003      -9.72339126E-19
  -3.96499991      -5.49051140E-18
  -3.96000004      -1.02679650E-17
  -3.95499992      -1.51602834E-17
  -3.95000005      -2.00128822E-17
  -3.94499993      -2.46652967E-17
  -3.94000006      -2.89558180E-17
  -3.93499994      -3.27262760E-17
  -3.93000007      -3.58269724E-17
  -3.92499995      -3.81214325E-17
  -3.92000008      -3.94910351E-17
  -3.91499996      -3.98391392E-17
  -3.91000009      -3.90948421E-17
  -3.90499997      -3.72159741E-17
  -3.90000010      -3.41915106E-17
  -3.89499998      -3.00428921E-17
  -3.89000010      -2.48247539E-17
  -3.88499999      -1.86244430E-17
  -3.88000011      -1.15606630E-17
  -3.87500000      -3.78118155E-18
  -3.86999989       4.54042168E-18
  -3.86500001       1.32088526E-17
  -3.85999990       2.20119511E-17
  -3.85500002       3.07261930E-17
  -3.84999990       3.91226453E-17
  -3.84500003       4.69733470E-17
  -3.83999991       5.40577353E-17
  -3.83500004       6.01690979E-17
  -3.82999992       6.51208591E-17
  -3.82500005       6.87523408E-17
  -3.81999993       7.09340396E-17
  -3.81500006       7.15721069E-17
  -3.80999994       7.06119554E-17
  -3.80500007       6.80407604E-17
  -3.79999995       6.38889357E-17
  -3.79500008       5.82302527E-17
  -3.78999996       5.11808773E-17
  -3.78500009       4.28971002E-17
  -3.77999997       3.35717968E-17
  -3.77500010       2.34298842E-17
  -3.76999998       1.27226731E-17
  -3.76500010       1.72133845E-18
  -3.75999999      -9.29027887E-18
  -3.75500011      -2.00234817E-17
  -3.75000000      -3.01926681E-17
  -3.74499989      -3.95235566E-17
  -3.74000001      -4.77611141E-17
  -3.73499990      -5.46771083E-17
  -3.73000002      -6.00771750E-17
  -3.72499990      -6.38067405E-17
  -3.72000003      -6.57562794E-17
  -3.71499991      -6.58651165E-17
  -3.71000004      -6.41240337E-17
  -3.70499992      -6.05762759E-17
  -3.70000005      -5.53171840E-17
  -3.69499993      -4.84923550E-17
  -3.69000006      -4.02941018E-17
  -3.68499994      -3.09567282E-17
  -3.68000007      -2.07503418E-17
  -3.67499995      -9.97355736E-18
  -3.67000008       1.05472094E-18
  -3.66499996       1.20043536E-17
  -3.66000009       2.25433534E-17
  -3.65499997       3.23476820E-17
  -3.65000010       4.11108037E-17
  -3.64499998       4.85531230E-17
  -3.64000010       5.44304298E-17
  -3.63499999       5.85419675E-17
  -3.63000011       6.07369409E-17
  -3.62500000       6.09198934E-17
  -3.61999989       5.90545481E-17
  -3.61500001       5.51658364E-17
  -3.60999990       4.93404269E-17
  -3.60500002       4.17253492E-17
  -3.59999990       3.25246457E-17
  -3.59500003       2.19945207E-17
  -3.58999991       1.04369249E-17
  -3.58500004      -1.80852908E-18
  -3.57999992      -1.43738017E-17
  -3.57500005      -2.68726314E-17
  -3.56999993      -3.89114958E-17
  -3.56500006      -5.01009930E-17
  -3.55999994      -6.00672554E-17
  -3.55500007      -6.84633703E-17
  -3.54999995      -7.49798594E-17
  -3.54500008      -7.93545927E-17
  -3.53999996      -8.13815227E-17
  -3.53500009      -8.09177589E-17
  -3.52999997      -7.78891330E-17
  -3.52500010      -7.22939775E-17
  -3.51999998      -6.42047467E-17
  -3.51500010      -5.37678085E-17
  -3.50999999      -4.12007049E-17
  -3.50500011      -2.67880258E-17
  -3.50000000      -1.08745680E-17
  -3.49499989       6.14244553E-18
  -3.49000001       2.38236983E-17
  -3.48499990       4.16985717E-17
  -3.48000002       5.92774965E-17
  -3.47499990       7.60648689E-17
  -3.47000003       9.15722224E-17
  -3.46499991       1.05331518E-16
  -3.46000004       1.16907937E-16
  -3.45499992       1.25911845E-16
  -3.45000005       1.32009900E-16
  -3.44499993       1.34934320E-16
  -3.44000006       1.34490713E-16
  -3.43499994       1.30563829E-16
  -3.43000007       1.23121175E-16
  -3.42499995       1.12214343E-16
  -3.42000008       9.79777568E-17
  -3.41499996       8.06256119E-17
  -3.41000009       6.04457402E-17
  -3.40499997       3.77921583E-17
  -3.40000010       1.30749784E-17
  -3.39499998      -1.32509321E-17
  -3.39000010      -4.06989339E-17
  -3.38499999      -6.87643184E-17
  -3.38000011      -9.69393011E-17
  -3.37500000      -1.24727335E-16
  -3.36999989      -1.51658073E-16
  -3.36500001      -1.77301188E-16
  -3.35999990      -2.01279314E-16
  -3.35500002      -2.23279870E-16
  -3.34999990      -2.43064654E-16
  -3.34500003      -2.60477507E-16
  -3.33999991      -2.75450270E-16
  -3.33500004      -2.88004808E-16
  -3.32999992      -2.98254118E-16
  -3.32500005      -3.06399610E-16
  -3.31999993      -3.12726046E-16
  -3.31500006      -3.17594209E-16
  -3.30999994      -3.21430448E-16
  -3.30500007      -3.24715480E-16
  -3.29999995      -3.27969834E-16
  -3.29500008      -3.31738839E-16
  -3.28999996      -3.36576456E-16
  -3.28500009      -3.43028438E-16
  -3.27999997      -3.51615288E-16
  -3.27500010      -3.62815234E-16
  -3.26999998      -3.77049596E-16
  -3.26500010      -3.94667273E-16
  -3.25999999      -4.15933279E-16
  -3.25500011      -4.41016571E-16
  -3.25000000      -4.69984119E-16
  -3.24499989      -5.02793093E-16
  -3.24000001      -5.39291107E-16
  -3.23499990      -5.79214364E-16
  -3.23000002      -6.22193028E-16
  -3.22499990      -6.67756677E-16
  -3.22000003      -7.15345106E-16
  -3.21499991      -7.64319121E-16
  -3.21000004      -8.13975210E-16
  -3.20499992      -8.63563378E-16
  -3.20000005      -9.12302977E-16
  -3.19499993      -9.59402879E-16
  -3.19000006      -1.00408154E-15
  -3.18499994      -1.04558499E-15
  -3.18000007      -1.08320712E-15
  -3.17499995      -1.11630705E-15
  -3.17000008      -1.14432605E-15
  -3.16499996      -1.16680186E-15
  -3.16000009      -1.18337893E-15
  -3.15499997      -1.19382105E-15
  -3.15000010      -1.19801365E-15
  -3.14499998      -1.19597039E-15
  -3.14000010      -1.18782914E-15
  -3.13499999      -1.17384939E-15
  -3.13000011      -1.15440807E-15
  -3.12500000      -1.12998377E-15
  -3.11999989      -1.10114791E-15
  -3.11500001      -1.06854922E-15
  -3.10999990      -1.03289305E-15
  -3.10500002      -9.94926170E-16
  -3.09999990      -9.55413566E-16
  -3.09500003      -9.15119044E-16
  -3.08999991      -8.74785770E-16
  -3.08500004      -8.35114717E-16
  -3.07999992      -7.96747513E-16
  -3.07500005      -7.60249763E-16
  -3.06999993      -7.26094430E-16
  -3.06500006      -6.94654367E-16
  -3.05999994      -6.66190354E-16
  -3.05500007      -6.40846652E-16
  -3.04999995      -6.18649360E-16
  -3.04500008      -5.99508162E-16
  -3.03999996      -5.83223265E-16
  -3.03500009      -5.69491749E-16
  -3.02999997      -5.57922285E-16
  -3.02500010      -5.48047840E-16
  -3.01999998      -5.39342459E-16
  -3.01500010      -5.31244930E-16
  -3.00999999      -5.23176517E-16
  -3.00500011      -5.14560339E-16
  -3.00000000      -5.04849107E-16
  -2.99499989      -4.93543123E-16
  -2.99000001      -4.80210665E-16
  -2.98499990      -4.64507892E-16
  -2.98000002      -4.46197634E-16
  -2.97499990      -4.25159770E-16
  -2.97000003      -4.01403726E-16
  -2.96499991      -3.75080536E-16
  -2.96000004      -3.46476683E-16
  -2.95499992      -3.16023784E-16
  -2.95000005      -2.84294274E-16
  -2.94499993      -2.51984731E-16
  -2.94000006      -2.19914132E-16
  -2.93499994      -1.89003385E-16
  -2.93000007      -1.60263028E-16
  -2.92499995      -1.34762479E-16
  -2.92000008      -1.13621357E-16
  -2.91499996      -9.79700541E-17
  -2.91000009      -8.89422049E-17
  -2.90499997      -8.76325795E-17
  -2.90000010      -9.50853709E-17
  -2.89499998      -1.12261578E-16
  -2.89000010      -1.40028403E-16
  -2.88499999      -1.79124493E-16
  -2.88000011      -2.30160769E-16
  -2.87500000      -2.93592366E-16
  -2.86999989      -3.69724773E-16
  -2.86500001      -4.58693964E-16
  -2.85999990      -5.60479372E-16
  -2.85500002      -6.74896741E-16
  -2.84999990      -8.01613029E-16
  -2.84500003      -9.40148126E-16
  -2.83999991      -1.08990832E-15
  -2.83500004      -1.25018569E-15
  -2.82999992      -1.42019537E-15
  -2.82500005      -1.59908290E-15
  -2.81999993      -1.78597215E-15
  -2.81500006      -1.97997763E-15
  -2.80999994      -2.18022257E-15
  -2.80500007      -2.38589107E-15
  -2.79999995      -2.59622989E-15
  -2.79500008      -2.81058915E-15
  -2.78999996      -3.02842887E-15
  -2.78500009      -3.24934841E-15
  -2.77999997      -3.47309893E-15
  -2.77500010      -3.69959343E-15
  -2.76999998      -3.92890600E-15
  -2.76500010      -4.16128991E-15
  -2.75999999      -4.39716106E-15
  -2.75500011      -4.63709500E-15
  -2.75000000      -4.88181341E-15
  -2.74499989      -5.13218152E-15
  -2.74000001      -5.38917640E-15
  -2.73499990      -5.65386573E-15
  -2.73000002      -5.92739553E-15
  -2.72499990      -6.21094532E-15
  -2.72000003      -6.50571067E-15
  -2.71499991      -6.81288462E-15
  -2.71000004      -7.13361153E-15
  -2.70499992      -7.46896458E-15
  -2.70000005      -7.81995216E-15
  -2.69499993      -8.18742894E-15
  -2.69000006      -8.57215808E-15
  -2.68499994      -8.97471896E-15
  -2.68000007      -9.39554949E-15
  -2.67499995      -9.83492750E-15
  -2.67000008      -1.02929394E-14
  -2.66499996      -1.07695250E-14
  -2.66000009      -1.12644650E-14
  -2.65499997      -1.17773824E-14
  -2.65000010      -1.23077784E-14
  -2.64499998      -1.28550201E-14
  -2.64000010      -1.34184173E-14
  -2.63499999      -1.39972101E-14
  -2.63000011      -1.45905779E-14
  -2.62500000      -1.51977277E-14
  -2.61999989      -1.58178693E-14
  -2.61500001      -1.64502828E-14
  -2.60999990      -1.70943124E-14
  -2.60500002      -1.77494484E-14
  -2.59999990      -1.84152434E-14
  -2.59500003      -1.90914552E-14
  -2.58999991      -1.97780245E-14
  -2.58500004      -2.04750089E-14
  -2.57999992      -2.11827118E-14
  -2.57500005      -2.19015886E-14
  -2.56999993      -2.26322833E-14
  -2.56500006      -2.33756699E-14
  -2.55999994      -2.41326988E-14
  -2.55500007      -2.49045101E-14
  -2.54999995      -2.56924049E-14
  -2.54500008      -2.64977164E-14
  -2.53999996      -2.73218846E-14
  -2.53500009      -2.81663697E-14
  -2.52999997      -2.90326912E-14
  -2.52500010      -2.99222893E-14
  -2.51999998      -3.08365597E-14
  -2.51500010      -3.17768679E-14
  -2.50999999      -3.27443828E-14
  -2.50500011      -3.37402293E-14
  -2.50000000      -3.47653458E-14
  -2.49499989      -3.58204541E-14
  -2.49000001      -3.69061742E-14
  -2.48499990      -3.80229431E-14
  -2.48000002      -3.91709234E-14
  -2.47499990      -4.03502034E-14
  -2.47000003      -4.15606778E-14
  -2.46499991      -4.28021029E-14
  -2.46000004      -4.40741160E-14
  -2.45499992      -4.53762394E-14
  -2.45000005      -4.67079717E-14
  -2.44499993      -4.80687979E-14
  -2.44000006      -4.94581250E-14
  -2.43499994      -5.08755195E-14
  -2.43000007      -5.23205645E-14
  -2.42499995      -5.37930194E-14
  -2.42000008      -5.52927658E-14
  -2.41499996      -5.68198747E-14
  -2.41000009      -5.83746579E-14
  -2.40499997      -5.99577015E-14
  -2.40000010      -6.15697949E-14
  -2.39499998      -6.32120224E-14
  -2.39000010      -6.48858544E-14
  -2.38499999      -6.65929510E-14
  -2.38000011      -6.83352504E-14
  -2.37500000      -7.01149750E-14
  -2.36999989      -7.19347067E-14
  -2.36500001      -7.37971831E-14
  -2.35999990      -7.57052637E-14
  -2.35500002      -7.76622486E-14
  -2.34999990      -7.96712549E-14
  -2.34500003      -8.17358198E-14
  -2.33999991      -8.38592569E-14
  -2.33500004      -8.60451575E-14
  -2.32999992      -8.82969777E-14
  -2.32500005      -9.06182681E-14
  -2.31999993      -9.30122746E-14
  -2.31500006      -9.54823582E-14
  -2.30999994      -9.80315276E-14
  -2.30500007      -1.00663022E-13
  -2.29999995      -1.03379497E-13
  -2.29500008      -1.06183745E-13
  -2.28999996      -1.09078179E-13
  -2.28500009      -1.12065190E-13
  -2.27999997      -1.15146973E-13
  -2.27500010      -1.18325543E-13
  -2.26999998      -1.21602937E-13
  -2.26500010      -1.24980823E-13
  -2.25999999      -1.28461098E-13
  -2.25500011      -1.32045579E-13
  -2.25000000      -1.35735864E-13
  -2.24499989      -1.39533987E-13
  -2.24000001      -1.43441736E-13
  -2.23499990      -1.47461253E-13
  -2.23000002      -1.51594544E-13
  -2.22499990      -1.55844169E-13
  -2.22000003      -1.60212840E-13
  -2.21499991      -1.64703131E-13
  -2.21000004      -1.69318444E-13
  -2.20499992      -1.74061964E-13
  -2.20000005      -1.78937526E-13
  -2.19499993      -1.83948980E-13
  -2.19000006      -1.89100593E-13
  -2.18499994      -1.94396907E-13
  -2.18000007      -1.99842882E-13
  -2.17499995      -2.05443328E-13
  -2.17000008      -2.11203722E-13
  -2.16499996      -2.17128941E-13
  -2.16000009      -2.23225315E-13
  -2.15499997      -2.29498332E-13
  -2.15000010      -2.35953292E-13
  -2.14499998      -2.42596416E-13
  -2.14000010      -2.49433422E-13
  -2.13499999      -2.56470572E-13
  -2.13000011      -2.63713259E-13
  -2.12500000      -2.71167095E-13
  -2.11999989      -2.78837934E-13
  -2.11500001      -2.86731169E-13
  -2.10999990      -2.94852657E-13
  -2.10500002      -3.03207031E-13
  -2.09999990      -3.11799957E-13
  -2.09500003      -3.20636367E-13
  -2.08999991      -3.29721385E-13
  -2.08500004      -3.39059754E-13
  -2.07999992      -3.48656596E-13
  -2.07500005      -3.58516737E-13
  -2.06999993      -3.68644649E-13
  -2.06500006      -3.79045699E-13
  -2.05999994      -3.89725009E-13
  -2.05500007      -4.00686889E-13
  -2.04999995      -4.11937113E-13
  -2.04500008      -4.23481454E-13
  -2.03999996      -4.35325170E-13
  -2.03500009      -4.47474658E-13
  -2.02999997      -4.59935909E-13
  -2.02500010      -4.72714966E-13
  -2.01999998      -4.85819338E-13
  -2.01500010      -4.99255910E-13
  -2.00999999      -5.13032325E-13
  -2.00500011      -5.27156010E-13
  -2.00000000      -5.41636668E-13
  -1.99500000      -5.56480968E-13
  -1.99000001      -5.71699318E-13
  -1.98500001      -5.87299849E-13
  -1.98000002      -6.03292698E-13
  -1.97500002      -6.19688383E-13
  -1.97000003      -6.36495251E-13
  -1.96500003      -6.53725229E-13
  -1.96000004      -6.71387533E-13
  -1.95500004      -6.89492788E-13
  -1.95000005      -7.08052161E-13
  -1.94500005      -7.27076710E-13
  -1.94000006      -7.46576303E-13
  -1.93499994      -7.66562595E-13
  -1.92999995      -7.87047023E-13
  -1.92499995      -8.08038315E-13
  -1.91999996      -8.29549916E-13
  -1.91499996      -8.51591801E-13
  -1.90999997      -8.74173780E-13
  -1.90499997      -8.97307781E-13
  -1.89999998      -9.21005785E-13
  -1.89499998      -9.45276951E-13
  -1.88999999      -9.70133804E-13
  -1.88499999      -9.95587618E-13
  -1.88000000      -1.02164804E-12
  -1.87500000      -1.04832712E-12
  -1.87000000      -1.07563665E-12
  -1.86500001      -1.10358890E-12
  -1.86000001      -1.13219622E-12
  -1.85500002      -1.16146979E-12
  -1.85000002      -1.19142337E-12
  -1.84500003      -1.22206878E-12
  -1.84000003      -1.25341968E-12
  -1.83500004      -1.28549027E-12
  -1.83000004      -1.31829530E-12
  -1.82500005      -1.35184843E-12
  -1.82000005      -1.38616397E-12
  -1.81500006      -1.42125743E-12
  -1.80999994      -1.45714517E-12
  -1.80499995      -1.49384509E-12
  -1.79999995      -1.53137095E-12
  -1.79499996      -1.56974141E-12
  -1.78999996      -1.60897446E-12
  -1.78499997      -1.64908690E-12
  -1.77999997      -1.69009750E-12
  -1.77499998      -1.73202457E-12
  -1.76999998      -1.77488894E-12
  -1.76499999      -1.81870968E-12
  -1.75999999      -1.86350761E-12
  -1.75500000      -1.90930019E-12
  -1.75000000      -1.95610867E-12
  -1.74500000      -2.00395711E-12
  -1.74000001      -2.05285984E-12
  -1.73500001      -2.10284394E-12
  -1.73000002      -2.15392894E-12
  -1.72500002      -2.20613957E-12
  -1.72000003      -2.25949121E-12