  -6.00000000       0.00000000    
  -5.99499989       0.00000000    
  -5.98999977       0.00000000    
  -5.98500013       0.00000000    
  -5.98000002       0.00000000    
  -5.97499990       0.00000000    
  -5.96999979       0.00000000    
  -5.96500015       0.00000000    
  -5.96000004       0.00000000    
  -5.95499992       0.00000000    
  -5.94999981       0.00000000    
  -5.94500017       0.00000000    
  -5.94000006       0.00000000    
  -5.93499994       0.00000000    
  -5.92999983       0.00000000    
  -5.92500019       0.00000000    
  -5.92000008       0.00000000    
  -5.91499996       0.00000000    
  -5.90999985       0.00000000    
  -5.90500021       0.00000000    
  -5.90000010       0.00000000    
  -5.89499998       0.00000000    
  -5.88999987       0.00000000    
  -5.88500023       0.00000000    
  -5.88000011       0.00000000    
  -5.87500000       0.00000000    
  -5.86999989       0.00000000    
  -5.86499977       0.00000000    
  -5.86000013       0.00000000    
  -5.85500002       0.00000000    
  -5.84999990       0.00000000    
  -5.84499979       0.00000000    
  -5.84000015       0.00000000    
  -5.83500004       0.00000000    
  -5.82999992       0.00000000    
  -5.82499981       0.00000000    
  -5.82000017       0.00000000    
  -5.81500006       0.00000000    
  -5.80999994       0.00000000    
  -5.80499983       0.00000000    
  -5.80000019       0.00000000    
  -5.79500008       0.00000000    
  -5.78999996       0.00000000    
  -5.78499985       0.00000000    
  -5.78000021       0.00000000    
  -5.77500010       0.00000000    
  -5.76999998      -0.00000000    
  -5.76499987      -0.00000000    
  -5.76000023      -0.00000000    
  -5.75500011      -0.00000000    
  -5.75000000      -0.00000000    
  -5.74499989      -0.00000000    
  -5.73999977      -0.00000000    
  -5.73500013      -0.00000000    
  -5.73000002       0.00000000    
  -5.72499990       0.00000000    
  -5.71999979       0.00000000    
  -5.71500015       0.00000000    
  -5.71000004       0.00000000    
  -5.70499992       2.08062638E-38
  -5.69999981       3.32027049E-38
  -5.69500017       5.44423455E-38
  -5.69000006       7.97720091E-38
  -5.68499994       1.24583707E-37
  -5.67999983       1.89002227E-37
  -5.67500019       2.78956665E-37
  -5.67000008       4.05529901E-37
  -5.66499996       5.76813908E-37
  -5.65999985       8.06812321E-37
  -5.65500021       1.11043931E-36
  -5.65000010       1.50435906E-36
  -5.64499998       2.00627430E-36
  -5.63999987       2.63367504E-36
  -5.63500023       3.40183825E-36
  -5.63000011       4.32087767E-36
  -5.62500000       5.38987298E-36
  -5.61999989       6.59974645E-36
  -5.61499977       7.90884710E-36
  -5.61000013       9.25059312E-36
  -5.60500002       1.05133864E-35
  -5.59999990       1.15284736E-35
  -5.59499979       1.20538537E-35
  -5.59000015       1.17562701E-35
  -5.58500004       1.01918087E-35
  -5.57999992       6.78610865E-36
  -5.57499981       8.15608709E-37
  -5.57000017      -8.60812920E-36
  -5.56500006      -2.25483493E-35
  -5.55999994      -4.22438145E-35
  -5.55499983      -6.90961491E-35
  -5.55000019      -1.04638616E-34
  -5.54500008      -1.50480829E-34
  -5.53999996      -2.08222776E-34
  -5.53499985      -2.79331391E-34
  -5.53000021      -3.64973065E-34
  -5.52500010      -4.65795560E-34
  -5.51999998      -5.81653707E-34
  -5.51499987      -7.11276754E-34
  -5.51000023      -8.51873868E-34
  -5.50500011      -9.98684205E-34
  -5.50000000      -1.14447875E-33
  -5.49499989      -1.27902813E-33
  -5.48999977      -1.38855702E-33
  -5.48500013      -1.45522454E-33
  -5.48000002      -1.45665974E-33
  -5.47499990      -1.36561816E-33
  -5.46999979      -1.14981301E-33
  -5.46500015      -7.72002609E-34
  -5.46000004      -1.90413612E-34
  -5.45499992       6.40400782E-34
  -5.44999981       1.76817842E-33
  -5.44500017       3.24093417E-33
  -5.44000006       5.10423047E-33
  -5.43499994       7.39765117E-33
  -5.42999983       1.01504246E-32
  -5.42500019       1.33761618E-32
  -5.42000008       1.70667586E-32
  -5.41499996       2.11854968E-32
  -5.40999985       2.56595341E-32
  -5.40500021       3.03719793E-32
  -5.40000010       3.51539079E-32
  -5.39499998       3.97767129E-32
  -5.38999987       4.39452862E-32
  -5.38500023       4.72928002E-32
  -5.38000011       4.93776276E-32
  -5.37500000       4.96834266E-32
  -5.36999989       4.76231435E-32
  -5.36499977       4.25478879E-32
  -5.36000013       3.37617053E-32
  -5.35500002       2.05429496E-32
  -5.34999990       2.17317681E-33
  -5.34499979      -2.20260811E-32
  -5.34000015      -5.26481762E-32
  -5.33500004      -9.01481563E-32
  -5.32999992      -1.34781771E-31
  -5.32499981      -1.86538058E-31
  -5.32000017      -2.45067109E-31
  -5.31500006      -3.09605323E-31
  -5.30999994      -3.78900950E-31
  -5.30499983      -4.51144952E-31
  -5.30000019      -5.23910591E-31
  -5.29500008      -5.94106929E-31
  -5.28999996      -6.57953905E-31
  -5.28499985      -7.10982994E-31
  -5.28000021      -7.48071110E-31
  -5.27500010      -7.63514473E-31
  -5.26999998      -7.51147144E-31
  -5.26499987      -7.04510299E-31
  -5.26000023      -6.17075383E-31
  -5.25500011      -4.82523457E-31
  -5.25000000      -2.95079786E-31
  -5.24499989      -4.99011340E-32
  -5.23999977       2.56491034E-31
  -5.23500013       6.25742162E-31
  -5.23000002       1.05717407E-30
  -5.22499990       1.54729202E-30
  -5.21999979       2.08931087E-30
  -5.21500015       2.67272621E-30
  -5.21000004       3.28296539E-30
  -5.20499992       3.90114075E-30
  -5.19999981       4.50395795E-30
  -5.19500017       5.06378742E-30
  -5.19000006       5.54896265E-30
  -5.18499994       5.92431812E-30
  -5.17999983       6.15199426E-30
  -5.17500019       6.19253885E-30
  -5.17000008       6.00629992E-30
  -5.16499996       5.55510907E-30
  -5.15999985       4.80425594E-30
  -5.15500021       3.72469134E-30
  -5.15000010       2.29542543E-30
  -5.14499998       5.06039598E-31
  -5.13999987      -1.64076517E-30
  -5.13500023      -4.12672470E-30
  -5.13000011      -6.91575864E-30
  -5.12500000      -9.95209553E-30
  -5.11999989      -1.31588983E-29
  -5.11499977      -1.64375698E-29
  -5.11000013      -1.96678840E-29
  -5.10500002      -2.27091275E-29
  -5.09999990      -2.54023419E-29
  -5.09499979      -2.75738219E-29
  -5.09000015      -2.90399150E-29
  -5.08500004      -2.96131981E-29
  -5.07999992      -2.91099015E-29
  -5.07499981      -2.73586835E-29
  -5.07000017      -2.42103312E-29
  -5.06500006      -1.95484252E-29
  -5.05999994      -1.33004391E-29
  -5.05499983      -5.44898394E-30
  -5.05000019       3.95732336E-30
  -5.04500008       1.47938834E-29
  -5.03999996       2.68516614E-29
  -5.03499985       3.98309005E-29
  -5.03000021       5.33375645E-29
  -5.02500010       6.68834183E-29
  -5.01999998       7.98899213E-29
  -5.01499987       9.16970635E-29
  -5.01000023       1.01576880E-28
  -5.00500011       1.08752630E-28
  -5.00000000       1.12423211E-28
  -4.99499989       1.11792999E-28
  -4.98999977       1.06106522E-28
  -4.98500013       9.46875272E-29
  -4.98000002       7.69815083E-29
  -4.97499990       5.26003125E-29
  -4.96999979       2.13672869E-29
  -4.96500015      -1.66383992E-29
  -4.96000004      -6.10411158E-29
  -4.95499992      -1.11132995E-28
  -4.94999981      -1.65846450E-28
  -4.94500017      -2.23736533E-28
  -4.94000006      -2.82976068E-28
  -4.93499994      -3.41365425E-28
  -4.92999983      -3.96359175E-28
  -4.92500019      -4.45110769E-28
  -4.92000008      -4.84536963E-28
  -4.91499996      -5.11401663E-28
  -4.90999985      -5.22419331E-28
  -4.90500021      -5.14376262E-28
  -4.90000010      -4.84268922E-28
  -4.89499998      -4.29454018E-28
  -4.88999987      -3.47809298E-28
  -4.88500023      -2.37896307E-28
  -4.88000011      -9.91236360E-29
  -4.87500000       6.81006782E-29
  -4.86999989       2.62230456E-28
  -4.86499977       4.80467425E-28
  -4.86000013       7.18678574E-28
  -4.85500002       9.71351145E-28
  -4.84999990       1.23159580E-27
  -4.84499979       1.49120018E-27
  -4.84000015       1.74074331E-27
  -4.83500004       1.96976681E-27
  -4.82999992       2.16701477E-27
  -4.82499981       2.32073056E-27
  -4.82000017       2.41902001E-27
  -4.81500006       2.45025975E-27
  -4.80999994       2.40355922E-27
  -4.80499983       2.26925392E-27
  -4.80000019       2.03941306E-27
  -4.79500008       1.70836111E-27
  -4.78999996       1.27317297E-27
  -4.78499985       7.34137724E-28
  -4.78000021       9.51631296E-29
  -4.77500010      -6.35899842E-28
  -4.76999998      -1.44704024E-27
  -4.76499987      -2.32198684E-27
  -4.76000023      -3.24025503E-27
  -4.75500011      -4.17735245E-27
  -4.75000000      -5.10515187E-27
  -4.74499989      -5.99243203E-27
  -4.73999977      -6.80561165E-27
  -4.73500013      -7.50963534E-27
  -4.73000002      -8.06902092E-27
  -4.72499990      -8.44905235E-27
  -4.71999979      -8.61705816E-27
  -4.71500015      -8.54378500E-27
  -4.71000004      -8.20478435E-27
  -4.70499992      -7.58179300E-27
  -4.69999981      -6.66403038E-27
  -4.69500017      -5.44938989E-27
  -4.69000006      -3.94542927E-27
  -4.68499994      -2.17013574E-27
  -4.67999983      -1.52399234E-28
  -4.67500019       2.06785634E-27
  -4.67000008       4.43991602E-27
  -4.66499996       6.90292889E-27
  -4.65999985       9.38698178E-27
  -4.65500021       1.18146180E-26
  -4.65000010       1.41027668E-26
  -4.64499998       1.61650573E-26
  -4.63999987       1.79145088E-26
  -4.63500023       1.92664747E-26
  -4.63000011       2.01418237E-26
  -4.62500000       2.04701994E-26
  -4.61999989       2.01933385E-26
  -4.61499977       1.92682157E-26
  -4.61000013       1.76700128E-26
  -4.60500002       1.53946853E-26
  -4.59999990       1.24610556E-26
  -4.59499979       8.91228550E-27
  -4.59000015       4.81664371E-27
  -4.58500004       2.67439327E-28
  -4.57999992      -4.61791855E-27
  -4.57499981      -9.69980365E-27
  -4.57000017      -1.48192005E-26
  -4.56500006      -1.98014965E-26
  -4.55999994      -2.44611207E-26
  -4.55499983      -2.86070331E-26
  -4.55000019      -3.20488702E-26
  -4.54500008      -3.46036147E-26
  -4.53999996      -3.61026353E-26
  -4.53499985      -3.63988033E-26
  -4.53000021      -3.53735430E-26
  -4.52500010      -3.29434662E-26
  -4.51999998      -2.90663812E-26
  -4.51499987      -2.37464836E-26
  -4.51000023      -1.70382754E-26
  -4.50500011      -9.04922066E-27
  -4.50000000       5.92233027E-29
  -4.49499989       1.00723139E-26
  -4.48999977       2.07245531E-26
  -4.48500013       3.17041534E-26
  -4.48000002       4.26594130E-26
  -4.47499990       5.32068808E-26
  -4.46999979       6.29413134E-26
  -4.46500015       7.14471075E-26
  -4.46000004       7.83108815E-26
  -4.45499992       8.31350741E-26
  -4.44999981       8.55521192E-26
  -4.44500017       8.52385039E-26
  -4.44000006       8.19288256E-26
  -4.43499994       7.54286919E-26
  -4.42999983       6.56265220E-26
  -4.42500019       5.25036544E-26
  -4.42000008       3.61420876E-26
  -4.41499996       1.67297784E-26
  -4.40999985      -5.43690216E-27
  -4.40500021      -2.99539792E-26
  -4.40000010      -5.63139389E-26
  -4.39499998      -8.39130635E-26
  -4.38999987      -1.12062289E-25
  -4.38500023      -1.40001154E-25
  -4.38000011      -1.66914635E-25
  -4.37500000      -1.91952674E-25
  -4.36999989      -2.14251910E-25
  -4.36499977      -2.32958884E-25
  -4.36000013      -2.47254424E-25
  -4.35500002      -2.56378414E-25
  -4.34999990      -2.59653887E-25
  -4.34499979      -2.56510819E-25
  -4.34000015      -2.46507644E-25
  -4.33500004      -2.29350264E-25
  -4.32999992      -2.04909110E-25
  -4.32499981      -1.73231094E-25
  -4.32000017      -1.34549139E-25
  -4.31500006      -8.92860752E-26
  -4.30999994      -3.80548658E-26
  -4.30499983       1.83464102E-26
  -4.30000019       7.89444539E-26
  -4.29500008       1.42604826E-25
  -4.28999996       2.08050428E-25
  -4.28499985       2.73884889E-25
  -4.28000021       3.38619012E-25
  -4.27500010       4.00700245E-25
  -4.26999998       4.58544728E-25
  -4.26499987       5.10572077E-25
  -4.26000023       5.55240833E-25
  -4.25500011       5.91084454E-25
  -4.25000000       6.16747381E-25
  -4.24499989       6.31020784E-25
  -4.23999977       6.32876332E-25
  -4.23500013       6.21498394E-25
  -4.23000002       5.96313369E-25
  -4.22499990       5.57015918E-25
  -4.21999979       5.03591940E-25
  -4.21500015       4.36336174E-25
  -4.21000004       3.55866174E-25
  -4.20499992       2.63130964E-25
  -4.19999981       1.59413061E-25
  -4.19500017       4.63256933E-26
  -4.19000006      -7.41980566E-26
  -4.18499994      -1.99921907E-25
  -4.17999983      -3.28331723E-25
  -4.17500019      -4.56667042E-25
  -4.17000008      -5.81963299E-25
  -4.16499996      -7.01100228E-25
  -4.15999985      -8.10859376E-25
  -4.15500021      -9.07991425E-25
  -4.15000010      -9.89288965E-25
  -4.14499998      -1.05166932E-24
  -4.13999987      -1.09226233E-24
  -4.13500023      -1.10850389E-24
  -4.13000011      -1.09823381E-24
  -4.12500000      -1.05979390E-24
  -4.11999989      -9.92125906E-25
  -4.11499977      -8.94866357E-25
  -4.11000013      -7.68432514E-25
  -4.10500002      -6.14099224E-25
  -4.09999990      -4.34059669E-25
  -4.09499979      -2.31469071E-25
  -4.09000015      -1.04636983E-26
  -4.08500004       2.23845346E-25
  -4.07999992       4.65409494E-25
  -4.07499981       7.07313494E-25
  -4.07000017       9.41882270E-25
  -4.06500006       1.16082490E-24
  -4.05999994       1.35541874E-24
  -4.05499983       1.51672679E-24
  -4.05000019       1.63585524E-24
  -4.04500008       1.70424149E-24
  -4.03999996       1.71396223E-24
  -4.03499985       1.65807005E-24
  -4.03000021       1.53093605E-24
  -4.02500010       1.32858889E-24
  -4.01999998       1.04904893E-24
  -4.01499987       6.92635405E-25
  -4.01000023       2.62235952E-25
  -4.00500011      -2.36476834E-25
  -4.00000000      -7.94889725E-25
  -3.99499989      -1.40137669E-24
  -3.99000001      -2.04131525E-24
  -3.98499990      -2.69720379E-24
  -3.98000002      -3.34889006E-24
  -3.97499990      -3.97391363E-24
  -3.97000003      -4.54796140E-24
  -3.96499991      -5.04544549E-24
  -3.96000004      -5.44018557E-24
  -3.95499992      -5.70617960E-24
  -3.95000005      -5.81848184E-24
  -3.94499993      -5.75411513E-24
  -3.94000006      -5.49303570E-24
  -3.93499994      -5.01911331E-24
  -3.93000007      -4.32107514E-24
  -3.92499995      -3.39340509E-24
  -3.92000008      -2.23714445E-24
  -3.91499996      -8.60572503E-25
  -3.91000009       7.20292820E-25
  -3.90499997       2.48137342E-24
  -3.90000010       4.39045940E-24
  -3.89499998       6.40737519E-24
  -3.89000010       8.48443412E-24
  -3.88499999       1.05671705E-23
  -3.88000011       1.25953705E-23
  -3.87500000       1.45043879E-23
  -3.86999989       1.62267252E-23
  -3.86500001       1.76938566E-23
  -3.85999990       1.88382540E-23
  -3.85500002       1.95955905E-23
  -3.84999990       1.99070059E-23
  -3.84500003       1.97214374E-23
  -3.83999991       1.89978989E-23
  -3.83500004       1.77076302E-23
  -3.82999992       1.58360608E-23
  -3.82500005       1.33844846E-23
  -3.81999993       1.03713768E-23
  -3.81500006       6.83324648E-24
  -3.80999994       2.82504205E-24
  -3.80500007      -1.58005339E-24
  -3.79999995      -6.29139212E-24
  -3.79500008      -1.12022769E-23
  -3.78999996      -1.61919586E-23
  -3.78500009      -2.11282967E-23
  -3.77999997      -2.58709411E-23
  -3.77500010      -3.02750679E-23
  -3.76999998      -3.41955047E-23
  -3.76500010      -3.74911857E-23
  -3.75999999      -4.00298852E-23
  -3.75500011      -4.16928734E-23
  -3.75000000      -4.23796210E-23
  -3.74499989      -4.20121917E-23
  -3.74000001      -4.05392590E-23
  -3.73499990      -3.79395206E-23
  -3.73000002      -3.42243927E-23
  -3.72499990      -2.94398851E-23
  -3.72000003      -2.36674301E-23
  -3.71499991      -1.70236452E-23
  -3.71000004      -9.65895255E-24
  -3.70499992      -1.75496939E-24
  -3.70000005       6.47927789E-24
  -3.69499993       1.48122614E-23
  -3.69000006       2.29959880E-23
  -3.68499994       3.07729212E-23
  -3.68000007       3.78837071E-23
  -3.67499995       4.40754574E-23
  -3.67000008       4.91104252E-23
  -3.66499996       5.27746936E-23
  -3.66000009       5.48866068E-23
  -3.65499997       5.53048797E-23
  -3.65000010       5.39357328E-23
  -3.64499998       5.07389244E-23
  -3.64000010       4.57325607E-23
  -3.63499999       3.89961051E-23
  -3.63000011       3.06716661E-23
  -3.62500000       2.09632844E-23
  -3.61999989       1.01340630E-23
  -3.61500001      -1.49879805E-24
  -3.60999990      -1.35711023E-23
  -3.60500002      -2.56807546E-23
  -3.59999990      -3.73987848E-23
  -3.59500003      -4.82818657E-23
  -3.58999991      -5.78861462E-23
  -3.58500004      -6.57820633E-23
  -3.57999992      -7.15695950E-23
  -3.57500005      -7.48935014E-23
  -3.56999993      -7.54580292E-23
  -3.56500006      -7.30407511E-23
  -3.55999994      -6.75047209E-23
  -3.55500007      -5.88086275E-23
  -3.54999995      -4.70145606E-23
  -3.54500008      -3.22926396E-23
  -3.53999996      -1.49227792E-23
  -3.53500009       4.70746987E-24
  -3.52999997       2.61083362E-23
  -3.52500010       4.86971852E-23
  -3.51999998       7.18113335E-23
  -3.51500010       9.47243160E-23
  -3.50999999       1.16665144E-22
  -3.50500011       1.36840356E-22
  -3.50000000       1.54457829E-22
  -3.49499989       1.68752481E-22
  -3.49000001       1.79012116E-22
  -3.48499990       1.84603474E-22
  -3.48000002       1.84997386E-22
  -3.47499990       1.79791536E-22
  -3.47000003       1.68731277E-22
  -3.46499991       1.51726465E-22
  -3.46000004       1.28864241E-22
  -3.45499992       1.00416692E-22
  -3.45000005       6.68437565E-23
  -3.44499993       2.87894566E-23
  -3.44000006      -1.29271102E-23
  -3.43499994      -5.73271468E-23
  -3.43000007      -1.03293144E-22
  -3.42499995      -1.49595682E-22
  -3.42000008      -1.94924841E-22
  -3.41499996      -2.37925725E-22
  -3.41000009      -2.77237781E-22
  -3.40499997      -3.11535586E-22
  -3.40000010      -3.39571222E-22
  -3.39499998      -3.60216078E-22
  -3.39000010      -3.72501104E-22
  -3.38499999      -3.75654301E-22
  -3.38000011      -3.69133715E-22
  -3.37500000      -3.52654954E-22
  -3.36999989      -3.26212488E-22
  -3.36500001      -2.90092377E-22
  -3.35999990      -2.44877622E-22
  -3.35500002      -1.91444223E-22
  -3.34999990      -1.30947843E-22
  -3.34500003      -6.48014524E-23
  -3.33999991       5.35600819E-24
  -3.33500004       7.76991452E-23
  -3.32999992       1.50263576E-22
  -3.32500005       2.20999219E-22
  -3.31999993       2.87828712E-22
  -3.31500006       3.48709614E-22
  -3.30999994       4.01697061E-22
  -3.30500007       4.45006812E-22
  -3.29999995       4.77076671E-22
  -3.29500008       4.96621690E-22
  -3.28999996       5.02684737E-22
  -3.28500009       4.94678745E-22
  -3.27999997       4.72417469E-22
  -3.27500010       4.36138753E-22
  -3.26999998       3.86511248E-22
  -3.26500010       3.24631636E-22
  -3.25999999       2.52006375E-22
  -3.25500011       1.70521334E-22
  -3.25000000       8.23979099E-23
  -3.24499989      -9.86320205E-24
  -3.24000001      -1.03548192E-22
  -3.23499990      -1.95805690E-22
  -3.23000002      -2.83729892E-22
  -3.22499990      -3.64448538E-22
  -3.22000003      -4.35211608E-22
  -3.21499991      -4.93481595E-22
  -3.21000004      -5.37019497E-22
  -3.20499992      -5.63964108E-22
  -3.20000005      -5.72904565E-22
  -3.19499993      -5.62939220E-22
  -3.19000006      -5.33721781E-22
  -3.18499994      -4.85493122E-22
  -3.18000007      -4.19094536E-22
  -3.17499995      -3.35962809E-22
  -3.17000008      -2.38108337E-22
  -3.16499996      -1.28073398E-22
  -3.16000009      -8.87192890E-24
  -3.15499997       1.16085464E-22
  -3.15000010       2.43082780E-22
  -3.14499998       3.68202531E-22
  -3.14000010       4.87439501E-22
  -3.13499999       5.96819294E-22
  -3.13000011       6.92525010E-22
  -3.12500000       7.71015786E-22
  -3.11999989       8.29148953E-22
  -3.11500001       8.64289538E-22
  -3.10999990       8.74407557E-22
  -3.10500002       8.58164141E-22
  -3.09999990       8.14974296E-22
  -3.09500003       7.45052342E-22
  -3.08999991       6.49433666E-22
  -3.08500004       5.29970539E-22
  -3.07999992       3.89304952E-22
  -3.07500005       2.30815223E-22
  -3.06999993       5.85381114E-23
  -3.06500006      -1.22930694E-22
  -3.05999994      -3.08556746E-22
  -3.05500007      -4.93004845E-22
  -3.04999995      -6.70789708E-22
  -3.04500008      -8.36437170E-22
  -3.03999996      -9.84649568E-22
  -3.03500009      -1.11047190E-21
  -3.02999997      -1.20944963E-21
  -3.02500010      -1.27778291E-21
  -3.01999998      -1.31245886E-21
  -3.01500010      -1.31136854E-21
  -3.00999999      -1.27339861E-21
  -3.00500011      -1.19849858E-21
  -3.00000000      -1.08771181E-21
  -2.99499989      -9.43182798E-22
  -2.99000001      -7.68125450E-22
  -2.98499990      -5.66760285E-22
  -2.98000002      -3.44220428E-22
  -2.97499990      -1.06426209E-22
  -2.97000003       1.40067113E-22
  -2.96499991       3.88245026E-22
  -2.96000004       6.30828009E-22
  -2.95499992       8.60481801E-22
  -2.95000005       1.07003113E-21
  -2.94499993       1.25267850E-21
  -2.94000006       1.40221785E-21
  -2.93499994       1.51323222E-21
  -2.93000007       1.58128347E-21
  -2.92499995       1.60306482E-21
  -2.92000008       1.57653920E-21
  -2.91499996       1.50102858E-21
  -2.91000009       1.37727864E-21
  -2.90499997       1.20747700E-21
  -2.90000010       9.95228130E-22
  -2.89499998       7.45489459E-22
  -2.89000010       4.64464539E-22
  -2.88499999       1.59455901E-22
  -2.88000011      -1.61317246E-22
  -2.87500000      -4.88933970E-22
  -2.86999989      -8.14011053E-22
  -2.86500001      -1.12696341E-21
  -2.85999990      -1.41827881E-21
  -2.85500002      -1.67879294E-21
  -2.84999990      -1.89996682E-21
  -2.84500003      -2.07414589E-21
  -2.83999991      -2.19480905E-21
  -2.83500004      -2.25677994E-21
  -2.82999992      -2.25641603E-21
  -2.82500005      -2.19174327E-21
  -2.81999993      -2.06256052E-21
  -2.81500006      -1.87048518E-21
  -2.80999994      -1.61894776E-21
  -2.80500007      -1.31314155E-21
  -2.79999995      -9.59905437E-22
  -2.79500008      -5.67573532E-22
  -2.78999996      -1.45765188E-22
  -2.78500009       2.94860884E-22
  -2.77999997       7.42887859E-22
  -2.77500010       1.18645417E-21
  -2.76999998       1.61357967E-21
  -2.76500010       2.01250559E-21
  -2.75999999       2.37203371E-21
  -2.75500011       2.68186030E-21
  -2.75000000       2.93287973E-21
  -2.74499989       3.11747753E-21
  -2.74000001       3.22975720E-21
  -2.73499990       3.26575369E-21
  -2.73000002       3.22356990E-21
  -2.72499990       3.10346736E-21
  -2.72000003       2.90789225E-21
  -2.71499991       2.64143589E-21
  -2.71000004       2.31073550E-21
  -2.70499992       1.92431291E-21
  -2.70000005       1.49235348E-21
  -2.69499993       1.02642784E-21
  -2.69000006       5.39180749E-22
  -2.68499994       4.39696175E-23
  -2.68000007      -4.45517792E-22
  -2.67499995      -9.15661069E-22
  -2.67000008      -1.35331080E-21
  -2.66499996      -1.74619382E-21
  -2.66000009      -2.08327093E-21
  -2.65499997      -2.35511467E-21
  -2.65000010      -2.55418146E-21
  -2.64499998      -2.67509423E-21
  -2.64000010      -2.71481687E-21
  -2.63499999      -2.67278878E-21
  -2.63000011      -2.55098240E-21
  -2.62500000      -2.35387754E-21
  -2.61999989      -2.08836730E-21
  -2.61500001      -1.76358602E-21
  -2.60999990      -1.39067055E-21
  -2.60500002      -9.82447927E-22
  -2.59999990      -5.53076919E-22
  -2.59500003      -1.17628981E-22
  -2.58999991       3.08353560E-22
  -2.58500004       7.09333275E-22
  -2.57999992       1.07025802E-21
  -2.57500005       1.37704034E-21
  -2.56999993       1.61701208E-21
  -2.56500006       1.77936203E-21
  -2.55999994       1.85549980E-21
  -2.55500007       1.83939422E-21
  -2.54999995       1.72782137E-21
  -2.54500008       1.52053174E-21
  -2.53999996       1.22035616E-21
  -2.53500009       8.33188779E-22
  -2.52999997       3.67912155E-22
  -2.52500010      -1.63792439E-22
  -2.51999998      -7.47712103E-22
  -2.51500010      -1.36745547E-21
  -2.50999999      -2.00487154E-21
  -2.50500011      -2.64053762E-21
  -2.50000000      -3.25429271E-21
  -2.49499989      -3.82581050E-21
  -2.49000001      -4.33517927E-21
  -2.48499990      -4.76350697E-21
  -2.48000002      -5.09347812E-21
  -2.47499990      -5.30991590E-21
  -2.47000003      -5.40027488E-21
  -2.46499991      -5.35505662E-21
  -2.46000004      -5.16819337E-21
  -2.45499992      -4.83729931E-21
  -2.45000005      -4.36384504E-21
  -2.44499993      -3.75321490E-21
  -2.44000006      -3.01467873E-21
  -2.43499994      -2.16123493E-21
  -2.43000007      -1.20934280E-21
  -2.42499995      -1.78577737E-22
  -2.42000008       9.08830468E-22
  -2.41499996       2.02852636E-21
  -2.41000009       3.15463058E-21
  -2.40499997       4.26039576E-21
  -2.40000010       5.31888968E-21
  -2.39499998       6.30370030E-21
  -2.39000010       7.18962932E-21
  -2.38499999       7.95338359E-21
  -2.38000011       8.57419234E-21
  -2.37500000       9.03439153E-21
  -2.36999989       9.31990778E-21
  -2.36500001       9.42068568E-21
  -2.35999990       9.33097455E-21
  -2.35500002       9.04951827E-21
  -2.34999990       8.57964091E-21
  -2.34500003       7.92917887E-21
  -2.33999991       7.11032418E-21
  -2.33500004       6.13933693E-21
  -2.32999992       5.03614658E-21
  -2.32500005       3.82386372E-21
  -2.31999993       2.52819293E-21
  -2.31500006       1.17679841E-21
  -2.30999994      -2.01408167E-22
  -2.30500007      -1.57698116E-21
  -2.29999995      -2.92069800E-21
  -2.29500008      -4.20427713E-21
  -2.28999996      -5.40108712E-21
  -2.28500009      -6.48679358E-21
  -2.27999997      -7.43994193E-21
  -2.27500010      -8.24246868E-21
  -2.26999998      -8.88008357E-21
  -2.26500010      -9.34257123E-21
  -2.25999999      -9.62398309E-21
  -2.25500011      -9.72265103E-21
  -2.25000000      -9.64117132E-21
  -2.24499989      -9.38619128E-21
  -2.24000001      -8.96811610E-21
  -2.23499990      -8.40071140E-21
  -2.23000002      -7.70063710E-21
  -2.22499990      -6.88684648E-21
  -2.22000003      -5.98001379E-21
  -2.21499991      -5.00184403E-21
  -2.21000004      -3.97443038E-21
  -2.20499992      -2.91957376E-21
  -2.20000005      -1.85815361E-21
  -2.19499993      -8.09529263E-22
  -2.19000006       2.08983983E-22
  -2.18499994       1.18256222E-21
  -2.18000007       2.09923233E-21
  -2.17499995       2.95011562E-21
  -2.17000008       3.72955826E-21
  -2.16499996       4.43516231E-21
  -2.16000009       5.06763761E-21
  -2.15499997       5.63064186E-21
  -2.15000010       6.13042252E-21
  -2.14499998       6.57538874E-21
  -2.14000010       6.97561087E-21
  -2.13499999       7.34223849E-21
  -2.13000011       7.68686988E-21
  -2.12500000       8.02089979E-21
  -2.11999989       8.35485296E-21
  -2.11500001       8.69772902E-21
  -2.10999990       9.05639663E-21
  -2.10500002       9.43503209E-21
  -2.09999990       9.83464192E-21
  -2.09500003       1.02526856E-20
  -2.08999991       1.06828009E-20
  -2.08500004       1.11146603E-20
  -2.07999992       1.15339528E-20
  -2.07500005       1.19225096E-20
  -2.06999993       1.22585614E-20
  -2.06500006       1.25171668E-20
  -2.05999994       1.26706840E-20
  -2.05500007       1.26894732E-20
  -2.04999995       1.25426309E-20
  -2.04500008       1.21988235E-20
  -2.03999996       1.16272110E-20
  -2.03500009       1.07984107E-20
  -2.02999997       9.68546829E-21
  -2.02500010       8.26484779E-21
  -2.01999998       6.51739684E-21
  -2.01500010       4.42923068E-21
  -2.00999999       1.99260297E-21
  -2.00500011      -7.93388841E-22
  -2.00000000      -3.92216533E-21
  -1.99500000      -7.37916677E-21
  -1.99000001      -1.11415202E-20
  -1.98500001      -1.51778256E-20
  -1.98000002      -1.94481713E-20
  -1.97500002      -2.39042450E-20
  -1.97000003      -2.84896286E-20
  -1.96500003      -3.31403353E-20
  -1.96000004      -3.77853551E-20
  -1.95500004      -4.23475018E-20
  -1.95000005      -4.67442414E-20
  -1.94500005      -5.08887717E-20
  -1.94000006      -5.46910818E-20
  -1.93499994      -5.80591933E-20
  -1.92999995      -6.09003390E-20
  -1.92499995      -6.31222818E-20
  -1.91999996      -6.46345554E-20
  -1.91499996      -6.53497952E-20
  -1.90999997      -6.51849342E-20
  -1.90499997      -6.40623919E-20
  -1.89999998      -6.19112764E-20
  -1.89499998      -5.86683407E-20
  -1.88999999      -5.42790360E-20
  -1.88499999      -4.86983263E-20
  -1.88000000      -4.18914861E-20
  -1.87500000      -3.38346920E-20
  -1.87000000      -2.45157011E-20
  -1.86500001      -1.39340707E-20
  -1.86000001      -2.10179626E-21
  -1.85500002       1.09567261E-20
  -1.85000002       2.52043500E-20
  -1.84500003       4.05912099E-20
  -1.84000003       5.70546987E-20
  -1.83500004       7.45194218E-20
  -1.83000004       9.28974751E-20
  -1.82500005       1.12088324E-19
  -1.82000005       1.31979252E-19
  -1.81500006       1.52445303E-19
  -1.80999994       1.73349604E-19
  -1.80499995       1.94543355E-19
  -1.79999995       2.15866248E-19
  -1.79499996       2.37146426E-19
  -1.78999996       2.58200732E-19
  -1.78499997       2.78834649E-19
  -1.77999997       2.98842726E-19
  -1.77499998       3.18008397E-19
  -1.76999998       3.36104085E-19
  -1.76499999       3.52891353E-19
  -1.75999999       3.68120783E-19
  -1.75500000       3.81532327E-19
  -1.75000000       3.92855137E-19
  -1.74500000       4.01807635E-19
  -1.74000001       4.08097646E-19
  -1.73500001       4.11422654E-19
  -1.73000002       4.11469674E-19
  -1.72500002       4.07915615E-19
  -1.72000003       4.00427614E-19