  -6.00000000      -5.92303204E-15
  -5.99499989      -1.95746909E-14
  -5.98999977      -3.84148652E-14
  -5.98500013      -6.55418509E-14
  -5.98000002      -1.03883949E-13
  -5.97499990      -1.56088453E-13
  -5.96999979      -2.24419672E-13
  -5.96500015      -3.10669540E-13
  -5.96000004      -4.16083807E-13
  -5.95499992      -5.41306149E-13
  -5.94999981      -6.86342584E-13
  -5.94500017      -8.50546738E-13
  -5.94000006      -1.03262700E-12
  -5.93499994      -1.23067561E-12
  -5.92999983      -1.44221722E-12
  -5.92500019      -1.66427787E-12
  -5.92000008      -1.89347041E-12
  -5.91499996      -2.12609292E-12
  -5.90999985      -2.35823904E-12
  -5.90500021      -2.58591499E-12
  -5.90000010      -2.80516018E-12
  -5.89499998      -3.01216734E-12
  -5.88999987      -3.20339697E-12
  -5.88500023      -3.37568558E-12
  -5.88000011      -3.52634089E-12
  -5.87500000      -3.65322269E-12
  -5.86999989      -3.75480680E-12
  -5.86499977      -3.83022910E-12
  -5.86000013      -3.87930963E-12
  -5.85500002      -3.90255623E-12
  -5.84999990      -3.90114416E-12
  -5.84499979      -3.87687885E-12
  -5.84000015      -3.83213600E-12
  -5.83500004      -3.76978960E-12
  -5.82999992      -3.69311959E-12
  -5.82499981      -3.60571165E-12
  -5.82000017      -3.51134703E-12
  -5.81500006      -3.41389026E-12
  -5.80999994      -3.31717271E-12
  -5.80499983      -3.22488087E-12
  -5.80000019      -3.14045014E-12
  -5.79500008      -3.06696834E-12
  -5.78999996      -3.00709219E-12
  -5.78499985      -2.96297795E-12
  -5.78000021      -2.93623004E-12
  -5.77500010      -2.92786780E-12
  -5.76999998      -2.93831235E-12
  -5.76499987      -2.96739087E-12
  -5.76000023      -3.01436198E-12
  -5.75500011      -3.07795889E-12
  -5.75000000      -3.15644841E-12
  -5.74499989      -3.24770332E-12
  -5.73999977      -3.34928895E-12
  -5.73500013      -3.45855549E-12
  -5.73000002      -3.57273846E-12
  -5.72499990      -3.68905991E-12
  -5.71999979      -3.80483145E-12
  -5.71500015      -3.91754771E-12
  -5.71000004      -4.02497870E-12
  -5.70499992      -4.12524832E-12
  -5.69999981      -4.21690330E-12
  -5.69500017      -4.29896310E-12
  -5.69000006      -4.37096149E-12
  -5.68499994      -4.43296398E-12
  -5.67999983      -4.48557380E-12
  -5.67500019      -4.52991637E-12
  -5.67000008      -4.56761365E-12
  -5.66499996      -4.60073602E-12
  -5.65999985      -4.63174594E-12
  -5.65500021      -4.66342893E-12
  -5.65000010      -4.69881556E-12
  -5.64499998      -4.74109727E-12
  -5.63999987      -4.79353970E-12
  -5.63500023      -4.85939240E-12
  -5.63000011      -4.94180391E-12
  -5.62500000      -5.04373756E-12
  -5.61999989      -5.16790040E-12
  -5.61499977      -5.31667549E-12
  -5.61000013      -5.49206991E-12
  -5.60500002      -5.69567137E-12
  -5.59999990      -5.92862304E-12
  -5.59499979      -6.19160756E-12
  -5.59000015      -6.48485215E-12
  -5.58500004      -6.80814042E-12
  -5.57999992      -7.16084397E-12
  -5.57499981      -7.54196185E-12
  -5.57000017      -7.95017264E-12
  -5.56500006      -8.38389341E-12
  -5.55999994      -8.84135126E-12
  -5.55499983      -9.32065102E-12
  -5.55000019      -9.81985153E-12
  -5.54500008      -1.03370394E-11
  -5.53999996      -1.08704018E-11
  -5.53499985      -1.14182960E-11
  -5.53000021      -1.19793064E-11
  -5.52500010      -1.25523021E-11
  -5.51999998      -1.31364780E-11
  -5.51499987      -1.37313928E-11
  -5.51000023      -1.43369847E-11
  -5.50500011      -1.49535870E-11
  -5.50000000      -1.55819264E-11
  -5.49499989      -1.62231062E-11
  -5.48999977      -1.68785888E-11
  -5.48500013      -1.75501575E-11
  -5.48000002      -1.82398818E-11
  -5.47499990      -1.89500603E-11
  -5.46999979      -1.96831718E-11
  -5.46500015      -2.04418184E-11
  -5.46000004      -2.12286681E-11
  -5.45499992      -2.20463856E-11
  -5.44999981      -2.28975901E-11
  -5.44500017      -2.37847901E-11
  -5.44000006      -2.47103379E-11
  -5.43499994      -2.56763916E-11
  -5.42999983      -2.66848783E-11
  -5.42500019      -2.77374668E-11
  -5.42000008      -2.88355537E-11
  -5.41499996      -2.99802544E-11
  -5.40999985      -3.11724084E-11
  -5.40500021      -3.24125900E-11
  -5.40000010      -3.37011252E-11
  -5.39499998      -3.50381182E-11
  -5.38999987      -3.64234927E-11
  -5.38500023      -3.78570404E-11
  -5.38000011      -3.93384526E-11
  -5.37500000      -4.08673789E-11
  -5.36999989      -4.24434654E-11
  -5.36499977      -4.40664311E-11
  -5.36000013      -4.57360885E-11
  -5.35500002      -4.74524205E-11
  -5.34999990      -4.92155969E-11
  -5.34499979      -5.10260341E-11
  -5.34000015      -5.28844156E-11
  -5.33500004      -5.47917267E-11
  -5.32999992      -5.67492615E-11
  -5.32499981      -5.87586577E-11
  -5.32000017      -6.08218823E-11
  -5.31500006      -6.29412217E-11
  -5.30999994      -6.51192850E-11
  -5.30499983      -6.73589864E-11
  -5.30000019      -6.96635111E-11
  -5.29500008      -7.20362797E-11
  -5.28999996      -7.44809492E-11
  -5.28499985      -7.70013289E-11
  -5.28000021      -7.96013741E-11
  -5.27500010      -8.22851370E-11
  -5.26999998      -8.50567117E-11
  -5.26499987      -8.79202128E-11
  -5.26000023      -9.08797482E-11
  -5.25500011      -9.39393771E-11
  -5.25000000      -9.71030617E-11
  -5.24499989      -1.00374681E-10
  -5.23999977      -1.03757988E-10
  -5.23500013      -1.07256634E-10
  -5.23000002      -1.10874109E-10
  -5.22499990      -1.14613805E-10
  -5.21999979      -1.18478991E-10
  -5.21500015      -1.22472837E-10
  -5.21000004      -1.26598440E-10
  -5.20499992      -1.30858838E-10
  -5.19999981      -1.35257069E-10
  -5.19500017      -1.39796216E-10
  -5.19000006      -1.44479373E-10
  -5.18499994      -1.49309745E-10
  -5.17999983      -1.54290705E-10
  -5.17500019      -1.59425764E-10
  -5.17000008      -1.64718669E-10
  -5.16499996      -1.70173431E-10
  -5.15999985      -1.75794324E-10
  -5.15500021      -1.81585955E-10
  -5.15000010      -1.87553223E-10
  -5.14499998      -1.93701444E-10
  -5.13999987      -2.00036238E-10
  -5.13500023      -2.06563655E-10
  -5.13000011      -2.13290038E-10
  -5.12500000      -2.20222202E-10
  -5.11999989      -2.27367250E-10
  -5.11499977      -2.34732622E-10
  -5.11000013      -2.42326104E-10
  -5.10500002      -2.50155840E-10
  -5.09999990      -2.58230104E-10
  -5.09499979      -2.66557498E-10
  -5.09000015      -2.75146905E-10
  -5.08500004      -2.84007290E-10
  -5.07999992      -2.93147867E-10
  -5.07499981      -3.02577990E-10
  -5.07000017      -3.12307097E-10
  -5.06500006      -3.22344679E-10
  -5.05999994      -3.32700451E-10
  -5.05499983      -3.43384071E-10
  -5.05000019      -3.54405394E-10
  -5.04500008      -3.65774327E-10
  -5.03999996      -3.77500836E-10
  -5.03499985      -3.89594995E-10
  -5.03000021      -4.02067102E-10
  -5.02500010      -4.14927537E-10
  -5.01999998      -4.28186792E-10
  -5.01499987      -4.41855719E-10
  -5.01000023      -4.55945337E-10
  -5.00500011      -4.70467054E-10
  -5.00000000      -4.85432416E-10
  -4.99499989      -5.00853581E-10
  -4.98999977      -5.16742926E-10
  -4.98500013      -5.33113498E-10
  -4.98000002      -5.49978618E-10
  -4.97499990      -5.67352276E-10
  -4.96999979      -5.85248960E-10
  -4.96500015      -6.03683659E-10
  -4.96000004      -6.22672247E-10
  -4.95499992      -6.42230769E-10
  -4.94999981      -6.62376320E-10
  -4.94500017      -6.83126389E-10
  -4.94000006      -7.04499292E-10
  -4.93499994      -7.26513738E-10
  -4.92999983      -7.49189155E-10
  -4.92500019      -7.72545639E-10
  -4.92000008      -7.96603783E-10
  -4.91499996      -8.21384905E-10
  -4.90999985      -8.46910708E-10
  -4.90500021      -8.73203565E-10
  -4.90000010      -9.00286401E-10
  -4.89499998      -9.28182531E-10
  -4.88999987      -9.56915880E-10
  -4.88500023      -9.86510762E-10
  -4.88000011      -1.01699205E-09
  -4.87500000      -1.04838505E-09
  -4.86999989      -1.08071574E-09
  -4.86499977      -1.11401044E-09
  -4.86000013      -1.14829601E-09
  -4.85500002      -1.18360000E-09
  -4.84999990      -1.21995025E-09
  -4.84499979      -1.25737531E-09
  -4.84000015      -1.29590461E-09
  -4.83500004      -1.33556799E-09
  -4.82999992      -1.37639622E-09
  -4.82499981      -1.41842071E-09
  -4.82000017      -1.46167378E-09
  -4.81500006      -1.50618851E-09
  -4.80999994      -1.55199897E-09
  -4.80499983      -1.59914038E-09
  -4.80000019      -1.64764868E-09
  -4.79500008      -1.69756109E-09
  -4.78999996      -1.74891590E-09
  -4.78499985      -1.80175264E-09
  -4.78000021      -1.85611193E-09
  -4.77500010      -1.91203564E-09
  -4.76999998      -1.96956695E-09
  -4.76499987      -2.02875006E-09
  -4.76000023      -2.08963047E-09
  -4.75500011      -2.15225548E-09
  -4.75000000      -2.21667307E-09
  -4.74499989      -2.28293273E-09
  -4.73999977      -2.35108510E-09
  -4.73500013      -2.42118281E-09
  -4.73000002      -2.49327936E-09
  -4.72499990      -2.56742916E-09
  -4.71999979      -2.64368860E-09
  -4.71500015      -2.72211476E-09
  -4.71000004      -2.80276646E-09
  -4.70499992      -2.88570390E-09
  -4.69999981      -2.97098879E-09
  -4.69500017      -3.05868353E-09
  -4.69000006      -3.14885273E-09
  -4.68499994      -3.24156191E-09
  -4.67999983      -3.33687811E-09
  -4.67500019      -3.43487039E-09
  -4.67000008      -3.53560825E-09
  -4.66499996      -3.63916408E-09
  -4.65999985      -3.74561138E-09
  -4.65500021      -3.85502474E-09
  -4.65000010      -3.96748234E-09
  -4.64499998      -4.08306233E-09
  -4.63999987      -4.20184554E-09
  -4.63500023      -4.32391412E-09
  -4.63000011      -4.44935377E-09
  -4.62500000      -4.57825200E-09
  -4.61999989      -4.71069672E-09
  -4.61499977      -4.84678031E-09
  -4.61000013      -4.98659647E-09
  -4.60500002      -5.13024201E-09
  -4.59999990      -5.27781507E-09
  -4.59499979      -5.42941736E-09
  -4.59000015      -5.58515234E-09
  -4.58500004      -5.74512748E-09
  -4.57999992      -5.90945159E-09
  -4.57499981      -6.07823614E-09
  -4.57000017      -6.25159657E-09
  -4.56500006      -6.42965015E-09
  -4.55999994      -6.61251631E-09
  -4.55499983      -6.80031942E-09
  -4.55000019      -6.99318514E-09
  -4.54500008      -7.19124227E-09
  -4.53999996      -7.39462225E-09
  -4.53499985      -7.60346097E-09
  -4.53000021      -7.81789566E-09
  -4.52500010      -8.03806799E-09
  -4.51999998      -8.26412183E-09
  -4.51499987      -8.49620552E-09
  -4.51000023      -8.73446915E-09
  -4.50500011      -8.97906727E-09
  -4.50000000      -9.23015619E-09
  -4.49499989      -9.48789847E-09
  -4.48999977      -9.75245662E-09
  -4.48500013      -1.00240003E-08
  -4.48000002      -1.03027000E-08
  -4.47499990      -1.05887326E-08
  -4.46999979      -1.08822773E-08
  -4.46500015      -1.11835181E-08
  -4.46000004      -1.14926442E-08
  -4.45499992      -1.18098455E-08
  -4.44999981      -1.21353194E-08
  -4.44500017      -1.24692665E-08
  -4.44000006      -1.28118938E-08
  -4.43499994      -1.31634099E-08
  -4.42999983      -1.35240317E-08
  -4.42500019      -1.38939784E-08
  -4.42000008      -1.42734748E-08
  -4.41499996      -1.46627510E-08
  -4.40999985      -1.50620441E-08
  -4.40500021      -1.54715920E-08
  -4.40000010      -1.58916418E-08
  -4.39499998      -1.63224456E-08
  -4.38999987      -1.67642611E-08
  -4.38500023      -1.72173511E-08
  -4.38000011      -1.76819821E-08
  -4.37500000      -1.81584312E-08
  -4.36999989      -1.86469791E-08
  -4.36499977      -1.91479117E-08
  -4.36000013      -1.96615222E-08
  -4.35500002      -2.01881054E-08
  -4.34999990      -2.07279705E-08
  -4.34499979      -2.12814300E-08
  -4.34000015      -2.18487983E-08
  -4.33500004      -2.24304060E-08
  -4.32999992      -2.30265815E-08
  -4.32499981      -2.36376625E-08
  -4.32000017      -2.42639970E-08
  -4.31500006      -2.49059386E-08
  -4.30999994      -2.55638426E-08
  -4.30499983      -2.62380802E-08
  -4.30000019      -2.69290261E-08
  -4.29500008      -2.76370606E-08
  -4.28999996      -2.83625745E-08
  -4.28499985      -2.91059674E-08
  -4.28000021      -2.98676461E-08
  -4.27500010      -3.06480281E-08
  -4.26999998      -3.14475344E-08
  -4.26499987      -3.22666018E-08
  -4.26000023      -3.31056711E-08
  -4.25500011      -3.39651898E-08
  -4.25000000      -3.48456197E-08
  -4.24499989      -3.57474299E-08
  -4.23999977      -3.66710999E-08
  -4.23500013      -3.76171236E-08
  -4.23000002      -3.85859913E-08
  -4.22499990      -3.95782145E-08
  -4.21999979      -4.05943190E-08
  -4.21500015      -4.16348271E-08
  -4.21000004      -4.27002824E-08
  -4.20499992      -4.37912391E-08
  -4.19999981      -4.49082513E-08
  -4.19500017      -4.60518947E-08
  -4.19000006      -4.72227555E-08
  -4.18499994      -4.84214304E-08
  -4.17999983      -4.96485271E-08
  -4.17500019      -5.09046600E-08
  -4.17000008      -5.21904617E-08
  -4.16499996      -5.35065752E-08
  -4.15999985      -5.48536647E-08
  -4.15500021      -5.62323841E-08
  -4.15000010      -5.76434225E-08
  -4.14499998      -5.90874727E-08
  -4.13999987      -6.05652417E-08
  -4.13500023      -6.20774472E-08
  -4.13000011      -6.36248245E-08
  -4.12500000      -6.52081127E-08
  -4.11999989      -6.68280791E-08
  -4.11499977      -6.84854982E-08
  -4.11000013      -7.01811729E-08
  -4.10500002      -7.19158919E-08
  -4.09999990      -7.36904795E-08
  -4.09499979      -7.55057670E-08
  -4.09000015      -7.73625999E-08
  -4.08500004      -7.92618522E-08
  -4.07999992      -8.12044050E-08
  -4.07499981      -8.31911606E-08
  -4.07000017      -8.52230215E-08
  -4.06500006      -8.73009185E-08
  -4.05999994      -8.94258037E-08
  -4.05499983      -9.15986362E-08
  -4.05000019      -9.38204039E-08
  -4.04500008      -9.60921014E-08
  -4.03999996      -9.84147377E-08
  -4.03499985      -1.00789372E-07
  -4.03000021      -1.03217047E-07
  -4.02500010      -1.05698838E-07
  -4.01999998      -1.08235824E-07
  -4.01499987      -1.10829134E-07
  -4.01000023      -1.13479885E-07
  -4.00500011      -1.16189234E-07
  -4.00000000      -1.18958347E-07
  -3.99499989      -1.21788418E-07
  -3.99000001      -1.24680653E-07
  -3.98499990      -1.27636284E-07
  -3.98000002      -1.30656574E-07
  -3.97499990      -1.33742773E-07
  -3.97000003      -1.36896205E-07
  -3.96499991      -1.40118161E-07
  -3.96000004      -1.43409991E-07
  -3.95499992      -1.46773047E-07
  -3.95000005      -1.50208720E-07
  -3.94499993      -1.53718403E-07
  -3.94000006      -1.57303532E-07
  -3.93499994      -1.60965556E-07
  -3.93000007      -1.64705938E-07
  -3.92499995      -1.68526185E-07
  -3.92000008      -1.72427832E-07
  -3.91499996      -1.76412442E-07
  -3.91000009      -1.80481564E-07
  -3.90499997      -1.84636775E-07
  -3.90000010      -1.88879724E-07
  -3.89499998      -1.93212074E-07
  -3.89000010      -1.97635501E-07
  -3.88499999      -2.02151682E-07
  -3.88000011      -2.06762351E-07
  -3.87500000      -2.11469271E-07
  -3.86999989      -2.16274245E-07
  -3.86500001      -2.21179050E-07
  -3.85999990      -2.26185534E-07
  -3.85500002      -2.31295573E-07
  -3.84999990      -2.36511070E-07
  -3.84500003      -2.41833931E-07
  -3.83999991      -2.47266144E-07
  -3.83500004      -2.52809656E-07
  -3.82999992      -2.58466486E-07
  -3.82500005      -2.64238679E-07
  -3.81999993      -2.70128339E-07
  -3.81500006      -2.76137513E-07
  -3.80999994      -2.82268388E-07
  -3.80500007      -2.88523097E-07
  -3.79999995      -2.94903828E-07
  -3.79500008      -3.01412854E-07
  -3.78999996      -3.08052421E-07
  -3.78500009      -3.14824831E-07
  -3.77999997      -3.21732358E-07
  -3.77500010      -3.28777418E-07
  -3.76999998      -3.35962341E-07
  -3.76500010      -3.43289628E-07
  -3.75999999      -3.50761695E-07
  -3.75500011      -3.58380987E-07
  -3.75000000      -3.66150118E-07
  -3.74499989      -3.74071590E-07
  -3.74000001      -3.82148016E-07
  -3.73499990      -3.90382041E-07
  -3.73000002      -3.98776308E-07
  -3.72499990      -4.07333573E-07
  -3.72000003      -4.16056480E-07
  -3.71499991      -4.24947871E-07
  -3.71000004      -4.34010531E-07
  -3.70499992      -4.43247330E-07
  -3.70000005      -4.52661084E-07
  -3.69499993      -4.62254775E-07
  -3.69000006      -4.72031360E-07
  -3.68499994      -4.81993766E-07
  -3.68000007      -4.92145148E-07
  -3.67499995      -5.02488433E-07
  -3.67000008      -5.13026862E-07
  -3.66499996      -5.23763561E-07
  -3.66000009      -5.34701655E-07
  -3.65499997      -5.45844443E-07
  -3.65000010      -5.57195108E-07
  -3.64499998      -5.68757002E-07
  -3.64000010      -5.80533424E-07
  -3.63499999      -5.92527783E-07
  -3.63000011      -6.04743548E-07
  -3.62500000      -6.17184185E-07
  -3.61999989      -6.29853162E-07
  -3.61500001      -6.42754003E-07
  -3.60999990      -6.55890346E-07
  -3.60500002      -6.69265830E-07
  -3.59999990      -6.82884036E-07
  -3.59500003      -6.96748657E-07
  -3.58999991      -7.10863560E-07
  -3.58500004      -7.25232439E-07
  -3.57999992      -7.39859217E-07
  -3.57500005      -7.54747703E-07
  -3.56999993      -7.69901817E-07
  -3.56500006      -7.85325483E-07
  -3.55999994      -8.01022622E-07
  -3.55500007      -8.16997442E-07
  -3.54999995      -8.33253807E-07
  -3.54500008      -8.49795981E-07
  -3.53999996      -8.66628056E-07
  -3.53500009      -8.83754353E-07
  -3.52999997      -9.01179021E-07
  -3.52500010      -9.18906323E-07
  -3.51999998      -9.36940637E-07
  -3.51500010      -9.55286282E-07
  -3.50999999      -9.73947749E-07
  -3.50500011      -9.92929358E-07
  -3.50000000      -1.01223566E-06
  -3.49499989      -1.03187142E-06
  -3.49000001      -1.05184085E-06
  -3.48499990      -1.07214873E-06
  -3.48000002      -1.09279961E-06
  -3.47499990      -1.11379836E-06
  -3.47000003      -1.13514955E-06
  -3.46499991      -1.15685805E-06
  -3.46000004      -1.17892887E-06
  -3.45499992      -1.20136656E-06
  -3.45000005      -1.22417623E-06
  -3.44499993      -1.24736255E-06
  -3.44000006      -1.27093074E-06
  -3.43499994      -1.29488581E-06
  -3.43000007      -1.31923287E-06
  -3.42499995      -1.34397692E-06
  -3.42000008      -1.36912320E-06
  -3.41499996      -1.39467681E-06
  -3.41000009      -1.42064289E-06
  -3.40499997      -1.44702665E-06
  -3.40000010      -1.47383355E-06
  -3.39499998      -1.50106871E-06
  -3.39000010      -1.52873747E-06
  -3.38499999      -1.55684529E-06
  -3.38000011      -1.58539774E-06
  -3.37500000      -1.61440016E-06
  -3.36999989      -1.64385790E-06
  -3.36500001      -1.67377652E-06
  -3.35999990      -1.70416183E-06
  -3.35500002      -1.73501928E-06
  -3.34999990      -1.76635456E-06
  -3.34500003      -1.79817334E-06
  -3.33999991      -1.83048132E-06
  -3.33500004      -1.86328430E-06
  -3.32999992      -1.89658783E-06
  -3.32500005      -1.93039773E-06
  -3.31999993      -1.96472001E-06
  -3.31500006      -1.99956025E-06
  -3.30999994      -2.03492482E-06
  -3.30500007      -2.07081894E-06
  -3.29999995      -2.10724897E-06
  -3.29500008      -2.14422062E-06
  -3.28999996      -2.18174023E-06
  -3.28500009      -2.21981372E-06
  -3.27999997      -2.25844656E-06
  -3.27500010      -2.29764532E-06
  -3.26999998      -2.33741571E-06
  -3.26500010      -2.37776408E-06
  -3.25999999      -2.41869657E-06
  -3.25500011      -2.46021909E-06
  -3.25000000      -2.50233779E-06
  -3.24499989      -2.54505881E-06
  -3.24000001      -2.58838827E-06
  -3.23499990      -2.63233278E-06
  -3.23000002      -2.67689825E-06
  -3.22499990      -2.72209104E-06
  -3.22000003      -2.76791707E-06
  -3.21499991      -2.81438292E-06
  -3.21000004      -2.86149475E-06
  -3.20499992      -2.90925914E-06
  -3.20000005      -2.95768200E-06
  -3.19499993      -3.00676970E-06
  -3.19000006      -3.05652861E-06
  -3.18499994      -3.10696464E-06
  -3.18000007      -3.15808416E-06
  -3.17499995      -3.20989352E-06
  -3.17000008      -3.26239910E-06
  -3.16499996      -3.31560682E-06
  -3.16000009      -3.36952348E-06
  -3.15499997      -3.42415456E-06
  -3.15000010      -3.47950731E-06
  -3.14499998      -3.53558721E-06
  -3.14000010      -3.59240107E-06
  -3.13499999      -3.64995481E-06
  -3.13000011      -3.70825478E-06
  -3.12500000      -3.76730713E-06
  -3.11999989      -3.82711823E-06
  -3.11500001      -3.88769422E-06
  -3.10999990      -3.94904146E-06
  -3.10500002      -4.01116586E-06
  -3.09999990      -4.07407288E-06
  -3.09500003      -4.13776979E-06
  -3.08999991      -4.20226206E-06
  -3.08500004      -4.26755605E-06
  -3.07999992      -4.33365767E-06
  -3.07500005      -4.40057329E-06
  -3.06999993      -4.46830836E-06
  -3.06500006      -4.53686926E-06
  -3.05999994      -4.60626143E-06
  -3.05500007      -4.67649124E-06
  -3.04999995      -4.74756462E-06
  -3.04500008      -4.81948746E-06
  -3.03999996      -4.89226477E-06
  -3.03500009      -4.96590337E-06
  -3.02999997      -5.04040827E-06
  -3.02500010      -5.11578492E-06
  -3.01999998      -5.19203968E-06
  -3.01500010      -5.26917847E-06
  -3.00999999      -5.34720584E-06
  -3.00500011      -5.42612770E-06
  -3.00000000      -5.50594905E-06
  -2.99499989      -5.58667625E-06
  -2.99000001      -5.66831386E-06
  -2.98499990      -5.75086688E-06
  -2.98000002      -5.83434121E-06
  -2.97499990      -5.91874277E-06
  -2.97000003      -6.00407520E-06
  -2.96499991      -6.09034441E-06
  -2.96000004      -6.17755495E-06
  -2.95499992      -6.26571273E-06
  -2.95000005      -6.35482183E-06
  -2.94499993      -6.44488773E-06
  -2.94000006      -6.53591405E-06
  -2.93499994      -6.62790671E-06
  -2.93000007      -6.72087026E-06
  -2.92499995      -6.81480924E-06
  -2.92000008      -6.90972684E-06
  -2.91499996      -7.00562850E-06
  -2.91000009      -7.10251788E-06
  -2.90499997      -7.20039998E-06
  -2.90000010      -7.29927797E-06
  -2.89499998      -7.39915595E-06
  -2.89000010      -7.50003801E-06
  -2.88499999      -7.60192825E-06
  -2.88000011      -7.70483166E-06
  -2.87500000      -7.80874961E-06
  -2.86999989      -7.91368711E-06
  -2.86500001      -8.01964779E-06
  -2.85999990      -8.12663438E-06
  -2.85500002      -8.23465143E-06
  -2.84999990      -8.34370167E-06
  -2.84500003      -8.45378781E-06
  -2.83999991      -8.56491351E-06
  -2.83500004      -8.67708241E-06
  -2.82999992      -8.79029631E-06
  -2.82500005      -8.90455885E-06
  -2.81999993      -9.01987278E-06
  -2.81500006      -9.13624081E-06
  -2.80999994      -9.25366476E-06
  -2.80500007      -9.37214827E-06
  -2.79999995      -9.49169407E-06
  -2.79500008      -9.61230216E-06
  -2.78999996      -9.73397709E-06
  -2.78500009      -9.85672068E-06
  -2.77999997      -9.98053565E-06
  -2.77500010      -1.01054229E-05
  -2.76999998      -1.02313834E-05
  -2.76500010      -1.03584198E-05
  -2.75999999      -1.04865339E-05
  -2.75500011      -1.06157277E-05
  -2.75000000      -1.07460010E-05
  -2.74499989      -1.08773575E-05
  -2.74000001      -1.10097963E-05
  -2.73499990      -1.11433201E-05
  -2.73000002      -1.12779298E-05
  -2.72499990      -1.14136255E-05
  -2.72000003      -1.15504099E-05
  -2.71499991      -1.16882820E-05
  -2.71000004      -1.18272437E-05
  -2.70499992      -1.19672941E-05
  -2.70000005      -1.21084349E-05
  -2.69499993      -1.22506653E-05
  -2.69000006      -1.23939872E-05
  -2.68499994      -1.25384013E-05
  -2.68000007      -1.26839068E-05
  -2.67499995      -1.28305046E-05
  -2.67000008      -1.29781947E-05
  -2.66499996      -1.31269771E-05
  -2.66000009      -1.32768519E-05
  -2.65499997      -1.34278189E-05
  -2.65000010      -1.35798800E-05
  -2.64499998      -1.37330335E-05
  -2.64000010      -1.38872792E-05
  -2.63499999      -1.40426182E-05
  -2.63000011      -1.41990495E-05
  -2.62500000      -1.43565730E-05
  -2.61999989      -1.45151889E-05
  -2.61500001      -1.46748962E-05
  -2.60999990      -1.48356949E-05
  -2.60500002      -1.49975840E-05
  -2.59999990      -1.51605655E-05
  -2.59500003      -1.53246383E-05
  -2.58999991      -1.54897989E-05
  -2.58500004      -1.56560545E-05
  -2.57999992      -1.58233997E-05
  -2.57500005      -1.59918327E-05
  -2.56999993      -1.61613552E-05
  -2.56500006      -1.63319673E-05
  -2.55999994      -1.65036672E-05
  -2.55500007      -1.66764548E-05
  -2.54999995      -1.68503320E-05
  -2.54500008      -1.70252988E-05
  -2.53999996      -1.72013570E-05
  -2.53500009      -1.73785029E-05
  -2.52999997      -1.75567402E-05
  -2.52500010      -1.77360689E-05
  -2.51999998      -1.79164908E-05
  -2.51500010      -1.80980005E-05
  -2.50999999      -1.82806034E-05
  -2.50500011      -1.84642977E-05
  -2.50000000      -1.86490870E-05
  -2.49499989      -1.88349713E-05
  -2.49000001      -1.90219507E-05
  -2.48499990      -1.92100288E-05
  -2.48000002      -1.93992091E-05
  -2.47499990      -1.95894900E-05
  -2.47000003      -1.97808768E-05
  -2.46499991      -1.99733677E-05
  -2.46000004      -2.01669682E-05
  -2.45499992      -2.03616801E-05
  -2.45000005      -2.05575088E-05
  -2.44499993      -2.07544526E-05
  -2.44000006      -2.09525206E-05
  -2.43499994      -2.11517108E-05
  -2.43000007      -2.13520289E-05
  -2.42499995      -2.15534783E-05
  -2.42000008      -2.17560664E-05
  -2.41499996      -2.19597950E-05
  -2.41000009      -2.21646715E-05
  -2.40499997      -2.23706975E-05
  -2.40000010      -2.25778858E-05
  -2.39499998      -2.27862420E-05
  -2.39000010      -2.29957695E-05
  -2.38499999      -2.32064776E-05
  -2.38000011      -2.34183753E-05
  -2.37500000      -2.36314718E-05
  -2.36999989      -2.38457778E-05
  -2.36500001      -2.40612990E-05
  -2.35999990      -2.42780479E-05
  -2.35500002      -2.44960356E-05
  -2.34999990      -2.47152730E-05
  -2.34500003      -2.49357745E-05
  -2.33999991      -2.51575493E-05
  -2.33500004      -2.53806120E-05
  -2.32999992      -2.56049771E-05
  -2.32500005      -2.58306609E-05
  -2.31999993      -2.60576762E-05
  -2.31500006      -2.62860376E-05
  -2.30999994      -2.65157632E-05
  -2.30500007      -2.67468713E-05
  -2.29999995      -2.69793782E-05
  -2.29500008      -2.72133020E-05
  -2.28999996      -2.74486647E-05
  -2.28500009      -2.76854862E-05
  -2.27999997      -2.79237884E-05
  -2.27500010      -2.81635912E-05
  -2.26999998      -2.84049183E-05
  -2.26500010      -2.86477916E-05
  -2.25999999      -2.88922365E-05
  -2.25500011      -2.91382821E-05
  -2.25000000      -2.93859539E-05
  -2.24499989      -2.96352791E-05
  -2.24000001      -2.98862906E-05
  -2.23499990      -3.01390155E-05
  -2.23000002      -3.03934830E-05
  -2.22499990      -3.06497277E-05
  -2.22000003      -3.09077841E-05
  -2.21499991      -3.11676849E-05
  -2.21000004      -3.14294666E-05
  -2.20499992      -3.16931655E-05
  -2.20000005      -3.19588216E-05
  -2.19499993      -3.22264750E-05
  -2.19000006      -3.24961657E-05
  -2.18499994      -3.27679336E-05
  -2.18000007      -3.30418297E-05
  -2.17499995      -3.33178941E-05
  -2.17000008      -3.35961777E-05
  -2.16499996      -3.38767240E-05
  -2.16000009      -3.41595842E-05
  -2.15499997      -3.44448126E-05
  -2.15000010      -3.47324640E-05
  -2.14499998      -3.50225891E-05
  -2.14000010      -3.53152464E-05
  -2.13499999      -3.56104902E-05
  -2.13000011      -3.59083897E-05
  -2.12500000      -3.62090032E-05
  -2.11999989      -3.65123924E-05
  -2.11500001      -3.68186229E-05
  -2.10999990      -3.71277638E-05
  -2.10500002      -3.74398842E-05
  -2.09999990      -3.77550568E-05
  -2.09500003      -3.80733509E-05
  -2.08999991      -3.83948463E-05
  -2.08500004      -3.87196160E-05
  -2.07999992      -3.90477362E-05
  -2.07500005      -3.93792943E-05
  -2.06999993      -3.97143704E-05
  -2.06500006      -4.00530516E-05
  -2.05999994      -4.03954182E-05
  -2.05500007      -4.07415682E-05
  -2.04999995      -4.10915927E-05
  -2.04500008      -4.14455826E-05
  -2.03999996      -4.18036361E-05
  -2.03500009      -4.21658515E-05
  -2.02999997      -4.25323306E-05
  -2.02500010      -4.29031716E-05
  -2.01999998      -4.32784764E-05
  -2.01500010      -4.36583541E-05
  -2.00999999      -4.40429176E-05
  -2.00500011      -4.44322759E-05
  -2.00000000      -4.48265491E-05
  -1.99500000      -4.52258464E-05
  -1.99000001      -4.56302951E-05
  -1.98500001      -4.60400151E-05
  -1.98000002      -4.64551267E-05
  -1.97500002      -4.68757680E-05
  -1.97000003      -4.73020664E-05
  -1.96500003      -4.77341564E-05
  -1.96000004      -4.81721800E-05
  -1.95500004      -4.86162717E-05
  -1.95000005      -4.90665734E-05
  -1.94500005      -4.95232380E-05
  -1.94000006      -4.99864145E-05
  -1.93499994      -5.04562558E-05
  -1.92999995      -5.09329184E-05
  -1.92499995      -5.14165622E-05
  -1.91999996      -5.19073401E-05
  -1.91499996      -5.24054267E-05
  -1.90999997      -5.29109857E-05
  -1.90499997      -5.34241881E-05
  -1.89999998      -5.39452085E-05
  -1.89499998      -5.44742288E-05
  -1.88999999      -5.50114273E-05
  -1.88499999      -5.55569823E-05
  -1.88000000      -5.61110792E-05
  -1.87500000      -5.66739109E-05
  -1.87000000      -5.72456629E-05
  -1.86500001      -5.78265317E-05
  -1.86000001      -5.84167174E-05
  -1.85500002      -5.90164127E-05
  -1.85000002      -5.96258324E-05
  -1.84500003      -6.02451837E-05
  -1.84000003      -6.08746814E-05
  -1.83500004      -6.15145400E-05
  -1.83000004      -6.21649742E-05
  -1.82500005      -6.28262278E-05
  -1.82000005      -6.34985117E-05
  -1.81500006      -6.41820661E-05
  -1.80999994      -6.48771165E-05
  -1.80499995      -6.55839176E-05
  -1.79999995      -6.63026949E-05
  -1.79499996      -6.70337176E-05
  -1.78999996      -6.77772114E-05
  -1.78499997      -6.85334453E-05
  -1.77999997      -6.93026814E-05
  -1.77499998      -7.00851888E-05
  -1.76999998      -7.08812222E-05
  -1.76499999      -7.16910581E-05
  -1.75999999      -7.25149584E-05
  -1.75500000      -7.33532070E-05
  -1.75000000      -7.42060802E-05
  -1.74500000      -7.50738618E-05
  -1.74000001      -7.59568502E-05
  -1.73500001      -7.68553145E-05
  -1.73000002      -7.77695532E-05
  -1.72500002      -7.86998644E-05
  -1.72000003      -7.96465538E-05