  -6.00000000       0.00000000    
  -5.99499989       0.00000000    
  -5.98999977       0.00000000    
  -5.98500013       0.00000000    
  -5.98000002       0.00000000    
  -5.97499990       0.00000000    
  -5.96999979       0.00000000    
  -5.96500015       0.00000000    
  -5.96000004       0.00000000    
  -5.95499992      -0.00000000    
  -5.94999981      -0.00000000    
  -5.94500017      -6.17702508E-38
  -5.94000006      -3.23628221E-37
  -5.93499994      -1.41272983E-36
  -5.92999983      -5.37619093E-36
  -5.92500019      -1.82067243E-35
  -5.92000008      -5.59436129E-35
  -5.91499996      -1.58265334E-34
  -5.90999985      -4.16748976E-34
  -5.90500021      -1.03040125E-33
  -5.90000010      -2.40907667E-33
  -5.89499998      -5.35709326E-33
  -5.88999987      -1.13851851E-32
  -5.88500023      -2.32191755E-32
  -5.88000011      -4.55978050E-32
  -5.87500000      -8.64783217E-32
  -5.86999989      -1.58792842E-31
  -5.86499977      -2.82915770E-31
  -5.86000013      -4.90002140E-31
  -5.85500002      -8.26329553E-31
  -5.84999990      -1.35870201E-30
  -5.84499979      -2.18083542E-30
  -5.84000015      -3.42042487E-30
  -5.83500004      -5.24626025E-30
  -5.82999992      -7.87429623E-30
  -5.82499981      -1.15709781E-29
  -5.82000017      -1.66513797E-29
  -5.81500006      -2.34688181E-29
  -5.80999994      -3.23915898E-29
  -5.80499983      -4.37614195E-29
  -5.80000019      -5.78273646E-29
  -5.79500008      -7.46477386E-29
  -5.78999996      -9.39527187E-29
  -5.78499985      -1.14959818E-28
  -5.78000021      -1.36135827E-28
  -5.77500010      -1.54900740E-28
  -5.76999998      -1.67272697E-28
  -5.76499987      -1.67458537E-28
  -5.76000023      -1.47400483E-28
  -5.75500011      -9.63015227E-29
  -5.75000000      -1.60147940E-31
  -5.74499989       1.58638621E-28
  -5.73999977       4.01614773E-28
  -5.73500013       7.54290655E-28
  -5.73000002       1.24599896E-27
  -5.72499990       1.90929299E-27
  -5.71999979       2.77883746E-27
  -5.71500015       3.88965203E-27
  -5.71000004       5.27457323E-27
  -5.70499992       6.96082081E-27
  -5.69999981       8.96556674E-27
  -5.69500017       1.12904346E-26
  -5.69000006       1.39149409E-26
  -5.68499994       1.67889245E-26
  -5.67999983       1.98241069E-26
  -5.67500019       2.28850783E-26
  -5.67000008       2.57800668E-26
  -5.66499996       2.82520796E-26
  -5.65999985       2.99710013E-26
  -5.65500021       3.05276166E-26
  -5.65000010       2.94304590E-26
  -5.64499998       2.61065874E-26
  -5.63999987       1.99075644E-26
  -5.63500023       1.01218188E-26
  -5.63000011      -4.00538963E-27
  -5.62500000      -2.32432103E-26
  -5.61999989      -4.83368572E-26
  -5.61499977      -7.99589105E-26
  -5.61000013      -1.18650239E-25
  -5.60500002      -1.64750888E-25
  -5.59999990      -2.18321742E-25
  -5.59499979      -2.79059348E-25
  -5.59000015      -3.46206005E-25
  -5.58500004      -4.18459353E-25
  -5.57999992      -4.93885549E-25
  -5.57499981      -5.69842451E-25
  -5.57000017      -6.42918384E-25
  -5.56500006      -7.08894371E-25
  -5.55999994      -7.62737776E-25
  -5.55499983      -7.98634004E-25
  -5.55000019      -8.10065634E-25
  -5.54500008      -7.89945540E-25
  -5.53999996      -7.30808187E-25
  -5.53499985      -6.25067102E-25
  -5.53000021      -4.65335440E-25
  -5.52500010      -2.44813146E-25
  -5.51999998       4.22677405E-26
  -5.51499987       4.00145380E-25
  -5.51000023       8.30994952E-25
  -5.50500011       1.33437291E-24
  -5.50000000       1.90666774E-24
  -5.49499989       2.54057605E-24
  -5.48999977       3.22464506E-24
  -5.48500013       3.94290864E-24
  -5.48000002       4.67465562E-24
  -5.47499990       5.39437326E-24
  -5.46999979       6.07189000E-24
  -5.46500015       6.67276929E-24
  -5.46000004       7.15896241E-24
  -5.45499992       7.48976256E-24
  -5.44999981       7.62305086E-24
  -5.44500017       7.51685441E-24
  -5.44000006       7.13117479E-24
  -5.43499994       6.43007781E-24
  -5.42999983       5.38397410E-24
  -5.42500019       3.97205034E-24
  -5.42000008       2.18471438E-24
  -5.41499996       2.60038506E-26
  -5.40999985      -2.48420937E-24
  -5.40500021      -5.30832471E-24
  -5.40000010      -8.38958700E-24
  -5.39499998      -1.16512720E-23
  -5.38999987      -1.49966292E-23
  -5.38500023      -1.83096983E-23
  -5.38000011      -2.14571586E-23
  -5.37500000      -2.42912440E-23
  -5.36999989      -2.66538019E-23
  -5.36499977      -2.83815430E-23
  -5.36000013      -2.93123610E-23
  -5.35500002      -2.92926616E-23
  -5.34999990      -2.81856089E-23
  -5.34499979      -2.58798663E-23
  -5.34000015      -2.22988353E-23
  -5.33500004      -1.74096963E-23
  -5.32999992      -1.12321376E-23
  -5.32499981      -3.84609292E-24
  -5.32000017       4.60181536E-24
  -5.31500006       1.38938111E-23
  -5.30999994       2.37388394E-23
  -5.30499983       3.37733252E-23
  -5.30000019       4.35652411E-23
  -5.29500008       5.26218218E-23
  -5.28999996       6.04011231E-23
  -5.28499985       6.63275511E-23
  -5.28000021       6.98114449E-23
  -5.27500010       7.02722280E-23
  -5.26999998       6.71649301E-23
  -5.26499987       6.00093622E-23
  -5.26000023       4.84212574E-23
  -5.25500011       3.21440372E-23
  -5.25000000       1.10804618E-23
  -5.24499989      -1.46776864E-23
  -5.23999977      -4.48229914E-23
  -5.23500013      -7.88105366E-23
  -5.23000002      -1.15842507E-22
  -5.22499990      -1.54860704E-22
  -5.21999979      -1.94548233E-22
  -5.21500015      -2.33341976E-22
  -5.21000004      -2.69456558E-22
  -5.20499992      -3.00920749E-22
  -5.19999981      -3.25625853E-22
  -5.19500017      -3.41387521E-22
  -5.19000006      -3.46017743E-22
  -5.18499994      -3.37408608E-22
  -5.17999983      -3.13623479E-22
  -5.17500019      -2.72995048E-22
  -5.17000008      -2.14226071E-22
  -5.16499996      -1.36490153E-22
  -5.15999985      -3.95284316E-23
  -5.15500021       7.62623328E-23
  -5.15000010       2.09753912E-22
  -5.14499998       3.59028092E-22
  -5.13999987       5.21339113E-22
  -5.13500023       6.93102077E-22
  -5.13000011       8.69909358E-22
  -5.12500000       1.04657896E-21
  -5.11999989       1.21723666E-21
  -5.11499977       1.37543253E-21
  -5.11000013       1.51429194E-21
  -5.10500002       1.62669833E-21
  -5.09999990       1.70550688E-21
  -5.09499979       1.74378357E-21
  -5.09000015       1.73506364E-21
  -5.08500004       1.67362236E-21
  -5.07999992       1.55475058E-21
  -5.07499981       1.37502621E-21
  -5.07000017       1.13256929E-21
  -5.06500006       8.27272196E-22
  -5.05999994       4.60993955E-22
  -5.05499983       3.77071631E-23
  -5.05000019      -4.36412191E-22
  -5.04500008      -9.52958110E-22
  -5.03999996      -1.50134553E-21
  -5.03499985      -2.06893179E-21
  -5.03000021      -2.64122708E-21
  -5.02500010      -3.20218579E-21
  -5.01999998      -3.73456860E-21
  -5.01499987      -4.22039504E-21
  -5.01000023      -4.64144411E-21
  -5.00500011      -4.97982520E-21
  -5.00000000      -5.21857707E-21
  -4.99499989      -5.34229954E-21
  -4.98999977      -5.33777913E-21
  -4.98500013      -5.19460054E-21
  -4.98000002      -4.90572508E-21
  -4.97499990      -4.46799346E-21
  -4.96999979      -3.88254628E-21
  -4.96500015      -3.15514494E-21
  -4.96000004      -2.29635052E-21
  -4.95499992      -1.32156835E-21
  -4.94999981      -2.50931706E-22
  -4.94500017       8.90985399E-22
  -4.94000006       2.07562012E-21
  -4.93499994       3.27104938E-21
  -4.92999983       4.44277051E-21
  -4.92500019       5.55464423E-21
  -4.92000008       6.56994745E-21
  -4.91499996       7.45254512E-21
  -4.90999985       8.16811774E-21
  -4.90500021       8.68543601E-21
  -4.90000010       8.97761899E-21
  -4.89499998       9.02333606E-21
  -4.88999987       8.80794760E-21
  -4.88500023       8.32445246E-21
  -4.88000011       7.57429900E-21
  -4.87500000       6.56795139E-21
  -4.86999989       5.32519168E-21
  -4.86499977       3.87514407E-21
  -4.86000013       2.25597720E-21
  -4.85500002       5.14286672E-22
  -4.84999990      -1.29585578E-21
  -4.84499979      -3.11417688E-21
  -4.84000015      -4.87576361E-21
  -4.83500004      -6.51292651E-21
  -4.82999992      -7.95725939E-21
  -4.82499981      -9.14190723E-21
  -4.82000017      -1.00039272E-20
  -4.81500006      -1.04867131E-20
  -4.80999994      -1.05423814E-20
  -4.80499983      -1.01340344E-20
  -4.80000019      -9.23786342E-21
  -4.79500008      -7.84493085E-21
  -4.78999996      -5.96263289E-21
  -4.78499985      -3.61572076E-21
  -4.78000021      -8.46828222E-22
  -4.77500010       2.28353265E-21
  -4.76999998       5.69756432E-21
  -4.76499987       9.30136811E-21
  -4.76000023       1.29867348E-20
  -4.75500011       1.66335245E-20
  -4.75000000       2.01125799E-20
  -4.74499989       2.32891716E-20
  -4.73999977       2.60267953E-20
  -4.73500013       2.81913686E-20
  -4.73000002       2.96555850E-20
  -4.72499990       3.03033902E-20
  -4.71999979       3.00343787E-20
  -4.71500015       2.87680589E-20
  -4.71000004       2.64477188E-20
  -4.70499992       2.30439303E-20
  -4.69999981       1.85572914E-20
  -4.69500017       1.30205854E-20
  -4.69000006       6.49999899E-21
  -4.68499994      -9.04520586E-22
  -4.67999983      -9.05996223E-21
  -4.67500019      -1.78019527E-20
  -4.67000008      -2.69374808E-20
  -4.66499996      -3.62487508E-20
  -4.65999985      -4.54978062E-20
  -4.65500021      -5.44322712E-20
  -4.65000010      -6.27916616E-20
  -4.64499998      -7.03143587E-20
  -4.63999987      -7.67451128E-20
  -4.63500023      -8.18426327E-20
  -4.63000011      -8.53873149E-20
  -4.62500000      -8.71886170E-20
  -4.61999989      -8.70922053E-20
  -4.61499977      -8.49862099E-20
  -4.61000013      -8.08066860E-20
  -4.60500002      -7.45419302E-20
  -4.59999990      -6.62355505E-20
  -4.59499979      -5.59879589E-20
  -4.59000015      -4.39564553E-20
  -4.58500004      -3.03534863E-20
  -4.57999992      -1.54433473E-20
  -4.57499981       4.62871722E-22
  -4.57000017       1.70139210E-20
  -4.56500006       3.38264364E-20
  -4.55999994       5.04945199E-20
  -4.55499983       6.66001498E-20
  -4.55000019       8.17246820E-20
  -4.54500008       9.54607075E-20
  -4.53999996       1.07424305E-19
  -4.53499985       1.17266901E-19
  -4.53000021       1.24687047E-19
  -4.52500010       1.29440906E-19
  -4.51999998       1.31351667E-19
  -4.51499987       1.30317666E-19
  -4.51000023       1.26318196E-19
  -4.50500011       1.19417480E-19
  -4.50000000       1.09766234E-19
  -4.49499989       9.76006108E-20
  -4.48999977       8.32386745E-20
  -4.48500013       6.70742600E-20
  -4.48000002       4.95681390E-20
  -4.47499990       3.12368861E-20
  -4.46999979       1.26395266E-20
  -4.46500015      -5.63770843E-21
  -4.46000004      -2.29982528E-20
  -4.45499992      -3.88531128E-20
  -4.44999981      -5.26393863E-20
  -4.44500017      -6.38390532E-20
  -4.44000006      -7.19969669E-20
  -4.43499994      -7.67383661E-20
  -4.42999983      -7.77843360E-20
  -4.42500019      -7.49654273E-20
  -4.42000008      -6.82324808E-20
  -4.41499996      -5.76646087E-20
  -4.40999985      -4.34734464E-20
  -4.40500021      -2.60038830E-20
  -4.40000010      -5.73054613E-21
  -4.39499998       1.67495140E-20
  -4.38999987       4.07283991E-20
  -4.38500023       6.54027541E-20
  -4.38000011       8.98928320E-20
  -4.37500000       1.13265066E-19
  -4.36999989       1.34557005E-19
  -4.36499977       1.52804932E-19
  -4.36000013       1.67072764E-19
  -4.35500002       1.76481646E-19
  -4.34999990       1.80239760E-19
  -4.34499979       1.77670757E-19
  -4.34000015       1.68240963E-19
  -4.33500004       1.51583187E-19
  -4.32999992       1.27517724E-19
  -4.32499981       9.60686465E-20
  -4.32000017       5.74751456E-20
  -4.31500006       1.21975447E-20
  -4.30999994      -3.90828752E-20
  -4.30499983      -9.54701167E-20
  -4.30000019      -1.55866263E-19
  -4.29500008      -2.18990613E-19
  -4.28999996      -2.83404796E-19
  -4.28499985      -3.47543424E-19
  -4.28000021      -4.09750327E-19
  -4.27500010      -4.68318230E-19
  -4.26999998      -5.21532827E-19
  -4.26499987      -5.67717681E-19
  -4.26000023      -6.05282227E-19
  -4.25500011      -6.32767112E-19
  -4.25000000      -6.48890258E-19
  -4.24499989      -6.52589048E-19
  -4.23999977      -6.43057705E-19
  -4.23500013      -6.19780377E-19
  -4.23000002      -5.82558180E-19
  -4.22499990      -5.31526047E-19
  -4.21999979      -4.67164727E-19
  -4.21500015      -3.90300493E-19
  -4.21000004      -3.02098199E-19
  -4.20499992      -2.04042735E-19
  -4.19999981      -9.79124838E-20
  -4.19500017       1.42572495E-20
  -4.19000006       1.30218378E-19
  -4.18499994       2.47562155E-19
  -4.17999983       3.63776792E-19
  -4.17500019       4.76310346E-19
  -4.17000008       5.82636814E-19
  -4.16499996       6.80323484E-19
  -4.15999985       7.67097935E-19
  -4.15500021       8.40912069E-19
  -4.15000010       9.00002802E-19
  -4.14499998       9.42945677E-19
  -4.13999987       9.68701910E-19
  -4.13500023       9.76654217E-19
  -4.13000011       9.66633234E-19
  -4.12500000       9.38930335E-19
  -4.11999989       8.94300219E-19
  -4.11499977       8.33947777E-19
  -4.11000013       7.59503228E-19
  -4.10500002       6.72983290E-19
  -4.09999990       5.76741653E-19
  -4.09499979       4.73406838E-19
  -4.09000015       3.65810726E-19
  -4.08500004       2.56909968E-19
  -4.07999992       1.49701028E-19
  -4.07499981       4.71315332E-20
  -4.07000017      -4.79885827E-20
  -4.06500006      -1.33074917E-19
  -4.05999994      -2.05851275E-19
  -4.05499983      -2.64426326E-19
  -4.05000019      -3.07360127E-19
  -4.04500008      -3.33718057E-19
  -4.03999996      -3.43114156E-19
  -4.03499985      -3.35734051E-19
  -4.03000021      -3.12344976E-19
  -4.02500010      -2.74286577E-19
  -4.01999998      -2.23444283E-19
  -4.01499987      -1.62204884E-19
  -4.01000023      -9.33949726E-20
  -4.00500011      -2.02039915E-20
  -4.00000000       5.39067434E-20
  -3.99499989       1.25306360E-19
  -3.99000001       1.90305644E-19
  -3.98499990       2.45273837E-19
  -3.98000002       2.86758729E-19
  -3.97499990       3.11603926E-19
  -3.97000003       3.17063705E-19
  -3.96499991       3.00906438E-19
  -3.96000004       2.61510204E-19
  -3.95499992       1.97939642E-19
  -3.95000005       1.10006724E-19
  -3.94499993      -1.68859138E-21
  -3.94000006      -1.35741450E-19
  -3.93499994      -2.89946709E-19
  -3.93000007      -4.61329846E-19
  -3.92499995      -6.46200887E-19
  -3.92000008      -8.40232023E-19
  -3.91499996      -1.03855752E-18
  -3.91000009      -1.23589241E-18
  -3.90499997      -1.42666921E-18
  -3.90000010      -1.60518813E-18
  -3.89499998      -1.76577418E-18
  -3.89000010      -1.90294347E-18
  -3.88499999      -2.01156614E-18
  -3.88000011      -2.08702921E-18
  -3.87500000      -2.12538351E-18
  -3.86999989      -2.12348554E-18
  -3.86500001      -2.07911289E-18
  -3.85999990      -1.99106096E-18
  -3.85500002      -1.85921561E-18
  -3.84999990      -1.68459354E-18
  -3.84500003      -1.46935401E-18
  -3.83999991      -1.21677606E-18
  -3.83500004      -9.31208914E-19
  -3.82999992      -6.17984051E-19
  -3.82500005      -2.83301062E-19
  -3.81999993       6.59148565E-20
  -3.81500006       4.22180241E-19
  -3.80999994       7.77640352E-19
  -3.80500007       1.12427204E-18
  -3.79999995       1.45409635E-18
  -3.79500008       1.75939476E-18
  -3.78999996       2.03292250E-18
  -3.78500009       2.26811704E-18
  -3.77999997       2.45928965E-18
  -3.77500010       2.60179322E-18
  -3.76999998       2.69217511E-18
  -3.76500010       2.72828547E-18
  -3.75999999       2.70936330E-18
  -3.75500011       2.63607924E-18
  -3.75000000       2.51053907E-18
  -3.74499989       2.33624818E-18
  -3.74000001       2.11803649E-18
  -3.73499990       1.86194117E-18
  -3.73000002       1.57505539E-18
  -3.72499990       1.26534573E-18
  -3.72000003       9.41438140E-19
  -3.71499991       6.12384400E-19
  -3.71000004       2.87411710E-19
  -3.70499992      -2.43393000E-20
  -3.70000005      -3.14073008E-19
  -3.69499993      -5.73596660E-19
  -3.69000006      -7.95562771E-19
  -3.68499994      -9.73689912E-19
  -3.68000007      -1.10295705E-18
  -3.67499995      -1.17976687E-18
  -3.67000008      -1.20206352E-18
  -3.66499996      -1.16941594E-18
  -3.66000009      -1.08304691E-18
  -3.65499997      -9.45818372E-19
  -3.65000010      -7.62172385E-19
  -3.64499998      -5.38012332E-19
  -3.64000010      -2.80553116E-19
  -3.63499999       1.87789023E-21
  -3.63000011       3.00075225E-19
  -3.62500000       6.04217335E-19
  -3.61999989       9.04153698E-19
  -3.61500001       1.18970441E-18
  -3.60999990       1.45097013E-18
  -3.60500002       1.67863474E-18
  -3.59999990       1.86426017E-18
  -3.59500003       2.00055782E-18
  -3.58999991       2.08163682E-18
  -3.58500004       2.10320762E-18
  -3.57999992       2.06275187E-18
  -3.57500005       1.95963430E-18
  -3.56999993       1.79517528E-18
  -3.56500006       1.57264374E-18
  -3.55999994       1.29722351E-18
  -3.55500007       9.75896830E-19
  -3.54999995       6.17289012E-19
  -3.54500008       2.31452425E-19
  -3.53999996      -1.70387587E-19
  -3.53500009      -5.76135846E-19
  -3.52999997      -9.73152865E-19
  -3.52500010      -1.34861015E-18
  -3.51999998      -1.68985792E-18
  -3.51500010      -1.98478824E-18
  -3.50999999      -2.22220996E-18
  -3.50500011      -2.39218193E-18
  -3.50000000      -2.48633742E-18
  -3.49499989      -2.49816982E-18
  -3.49000001      -2.42325332E-18
  -3.48499990      -2.25944632E-18
  -3.48000002      -2.00700631E-18
  -3.47499990      -1.66864963E-18
  -3.47000003      -1.24955682E-18
  -3.46499991      -7.57296362E-19
  -3.46000004      -2.01698790E-19
  -3.45499992       4.05349028E-19
  -3.45000005       1.05015418E-18
  -3.44499993       1.71751512E-18
  -3.44000006       2.39107723E-18
  -3.43499994       3.05371321E-18
  -3.43000007       3.68792603E-18
  -3.42499995       4.27626486E-18
  -3.42000008       4.80174541E-18
  -3.41499996       5.24825419E-18
  -3.41000009       5.60093257E-18
  -3.40499997       5.84652746E-18
  -3.40000010       5.97369407E-18
  -3.39499998       5.97325566E-18
  -3.39000010       5.83838056E-18
  -3.38499999       5.56472191E-18
  -3.38000011       5.15046283E-18
  -3.37500000       4.59629608E-18
  -3.36999989       3.90533226E-18
  -3.36500001       3.08293523E-18
  -3.35999990       2.13648345E-18
  -3.35500002       1.07508540E-18
  -3.34999990      -9.07759895E-20
  -3.34500003      -1.34963295E-18
  -3.33999991      -2.68945182E-18
  -3.33500004      -4.09809057E-18
  -3.32999992      -5.56373674E-18
  -3.32500005      -7.07537126E-18
  -3.31999993      -8.62318583E-18
  -3.31500006      -1.01989872E-17
  -3.30999994      -1.17965468E-17
  -3.30500007      -1.34119073E-17
  -3.29999995      -1.50436244E-17
  -3.29500008      -1.66928902E-17
  -3.28999996      -1.83636859E-17
  -3.28500009      -2.00627016E-17
  -3.27999997      -2.17993127E-17
  -3.27500010      -2.35853909E-17
  -3.26999998      -2.54350594E-17
  -3.26500010      -2.73643539E-17
  -3.25999999      -2.93908521E-17
  -3.25500011      -3.15332301E-17
  -3.25000000      -3.38107197E-17
  -3.24499989      -3.62426571E-17
  -3.24000001      -3.88478790E-17
  -3.23499990      -4.16441366E-17
  -3.23000002      -4.46476592E-17
  -3.22499990      -4.78725287E-17
  -3.22000003      -5.13302694E-17
  -3.21499991      -5.50294343E-17
  -3.21000004      -5.89751719E-17
  -3.20499992      -6.31690239E-17
  -3.20000005      -6.76086809E-17
  -3.19499993      -7.22879490E-17
  -3.19000006      -7.71966704E-17
  -3.18499994      -8.23208359E-17
  -3.18000007      -8.76427968E-17
  -3.17499995      -9.31416024E-17
  -3.17000008      -9.87931981E-17
  -3.16499996      -1.04571022E-16
  -3.16000009      -1.10446472E-16
  -3.15499997      -1.16389461E-16
  -3.15000010      -1.22369050E-16
  -3.14499998      -1.28353999E-16
  -3.14000010      -1.34313498E-16
  -3.13499999      -1.40217702E-16
  -3.13000011      -1.46038367E-16
  -3.12500000      -1.51749367E-16
  -3.11999989      -1.57327172E-16
  -3.11500001      -1.62751438E-16
  -3.10999990      -1.68005041E-16
  -3.10500002      -1.73074613E-16
  -3.09999990      -1.77950452E-16
  -3.09500003      -1.82626789E-16
  -3.08999991      -1.87101531E-16
  -3.08500004      -1.91376308E-16
  -3.07999992      -1.95455950E-16
  -3.07500005      -1.99348450E-16
  -3.06999993      -2.03064330E-16
  -3.06500006      -2.06616204E-16
  -3.05999994      -2.10018272E-16
  -3.05500007      -2.13285874E-16
  -3.04999995      -2.16434613E-16
  -3.04500008      -2.19479974E-16
  -3.03999996      -2.22436861E-16
  -3.03500009      -2.25318652E-16
  -3.02999997      -2.28137181E-16
  -3.02500010      -2.30902108E-16
  -3.01999998      -2.33620581E-16
  -3.01500010      -2.36297020E-16
  -3.00999999      -2.38933092E-16
  -3.00500011      -2.41527474E-16
  -3.00000000      -2.44076011E-16
  -2.99499989      -2.46571979E-16
  -2.99000001      -2.49006352E-16
  -2.98499990      -2.51368197E-16
  -2.98000002      -2.53644890E-16
  -2.97499990      -2.55823299E-16
  -2.97000003      -2.57889689E-16
  -2.96499991      -2.59830904E-16
  -2.96000004      -2.61634819E-16
  -2.95499992      -2.63291113E-16
  -2.95000005      -2.64791949E-16
  -2.94499993      -2.66132590E-16
  -2.94000006      -2.67312322E-16
  -2.93499994      -2.68334638E-16
  -2.93000007      -2.69207849E-16
  -2.92499995      -2.69945430E-16
  -2.92000008      -2.70566437E-16
  -2.91499996      -2.71095383E-16
  -2.91000009      -2.71562707E-16
  -2.90499997      -2.72004196E-16
  -2.90000010      -2.72460932E-16
  -2.89499998      -2.72979290E-16
  -2.89000010      -2.73610065E-16
  -2.88499999      -2.74408049E-16
  -2.88000011      -2.75431159E-16
  -2.87500000      -2.76740566E-16
  -2.86999989      -2.78398739E-16
  -2.86500001      -2.80469788E-16
  -2.85999990      -2.83017663E-16
  -2.85500002      -2.86106104E-16
  -2.84999990      -2.89797447E-16
  -2.84500003      -2.94151805E-16
  -2.83999991      -2.99226935E-16
  -2.83500004      -3.05077154E-16
  -2.82999992      -3.11753150E-16
  -2.82500005      -3.19301404E-16
  -2.81999993      -3.27763978E-16
  -2.81500006      -3.37178935E-16
  -2.80999994      -3.47579546E-16
  -2.80500007      -3.58994824E-16
  -2.79999995      -3.71450100E-16
  -2.79500008      -3.84967184E-16
  -2.78999996      -3.99564658E-16
  -2.78500009      -4.15259411E-16
  -2.77999997      -4.32065365E-16
  -2.77500010      -4.49997212E-16
  -2.76999998      -4.69068423E-16
  -2.76500010      -4.89293929E-16
  -2.75999999      -5.10690087E-16
  -2.75500011      -5.33275638E-16
  -2.75000000      -5.57072870E-16
  -2.74499989      -5.82107776E-16
  -2.74000001      -6.08411272E-16
  -2.73499990      -6.36018776E-16
  -2.73000002      -6.64972162E-16
  -2.72499990      -6.95317859E-16
  -2.72000003      -7.27109599E-16
  -2.71499991      -7.60406041E-16
  -2.71000004      -7.95272246E-16
  -2.70499992      -8.31778678E-16
  -2.70000005      -8.70000987E-16
  -2.69499993      -9.10019800E-16
  -2.69000006      -9.51918390E-16
  -2.68499994      -9.95785803E-16
  -2.68000007      -1.04171151E-15
  -2.67499995      -1.08978740E-15
  -2.67000008      -1.14010688E-15
  -2.66499996      -1.19276321E-15
  -2.66000009      -1.24784809E-15
  -2.65499997      -1.30545247E-15
  -2.65000010      -1.36566572E-15
  -2.64499998      -1.42857252E-15
  -2.64000010      -1.49425643E-15
  -2.63499999      -1.56279548E-15
  -2.63000011      -1.63426463E-15
  -2.62500000      -1.70873523E-15
  -2.61999989      -1.78627496E-15
  -2.61500001      -1.86694532E-15
  -2.60999990      -1.95080687E-15
  -2.60500002      -2.03791659E-15
  -2.59999990      -2.12832804E-15
  -2.59500003      -2.22209501E-15
  -2.58999991      -2.31926854E-15
  -2.58500004      -2.41990177E-15
  -2.57999992      -2.52404574E-15
  -2.57500005      -2.63175678E-15
  -2.56999993      -2.74309227E-15
  -2.56500006      -2.85811215E-15
  -2.55999994      -2.97688289E-15
  -2.55500007      -3.09947609E-15
  -2.54999995      -3.22596839E-15
  -2.54500008      -3.35644407E-15
  -2.53999996      -3.49099251E-15
  -2.53500009      -3.62971279E-15
  -2.52999997      -3.77271143E-15
  -2.52500010      -3.92009897E-15
  -2.51999998      -4.07199570E-15
  -2.51500010      -4.22852908E-15
  -2.50999999      -4.38983083E-15
  -2.50500011      -4.55604284E-15
  -2.50000000      -4.72730655E-15
  -2.49499989      -4.90377062E-15
  -2.49000001      -5.08558793E-15
  -2.48499990      -5.27291012E-15
  -2.48000002      -5.46589344E-15
  -2.47499990      -5.66469758E-15
  -2.47000003      -5.86947500E-15
  -2.46499991      -6.08038324E-15
  -2.46000004      -6.29757265E-15
  -2.45499992      -6.52119951E-15
  -2.45000005      -6.75140951E-15
  -2.44499993      -6.98835258E-15
  -2.44000006      -7.23217059E-15
  -2.43499994      -7.48300415E-15
  -2.43000007      -7.74099260E-15
  -2.42499995      -8.00627654E-15
  -2.42000008      -8.27899151E-15
  -2.41499996      -8.55927386E-15
  -2.41000009      -8.84726252E-15
  -2.40499997      -9.14309132E-15
  -2.40000010      -9.44691018E-15
  -2.39499998      -9.75886394E-15
  -2.39000010      -1.00791093E-14
  -2.38499999      -1.04078055E-14
  -2.38000011      -1.07451271E-14
  -2.37500000      -1.10912519E-14
  -2.36999989      -1.14463730E-14
  -2.36500001      -1.18107038E-14
  -2.35999990      -1.21844605E-14
  -2.35500002      -1.25678793E-14
  -2.34999990      -1.29612109E-14
  -2.34500003      -1.33647306E-14
  -2.33999991      -1.37787180E-14
  -2.33500004      -1.42034788E-14
  -2.32999992      -1.46393331E-14
  -2.32500005      -1.50866207E-14
  -2.31999993      -1.55456939E-14
  -2.31500006      -1.60169339E-14
  -2.30999994      -1.65007134E-14
  -2.30500007      -1.69974542E-14
  -2.29999995      -1.75075578E-14
  -2.29500008      -1.80314646E-14
  -2.28999996      -1.85696219E-14
  -2.28500009      -1.91224820E-14
  -2.27999997      -1.96905108E-14
  -2.27500010      -2.02741927E-14
  -2.26999998      -2.08740123E-14
  -2.26500010      -2.14904693E-14
  -2.25999999      -2.21240720E-14
  -2.25500011      -2.27753336E-14
  -2.25000000      -2.34447962E-14
  -2.24499989      -2.41329716E-14
  -2.24000001      -2.48404101E-14
  -2.23499990      -2.55676658E-14
  -2.23000002      -2.63153079E-14
  -2.22499990      -2.70839073E-14
  -2.22000003      -2.78740433E-14
  -2.21499991      -2.86863462E-14
  -2.21000004      -2.95213954E-14
  -2.20499992      -3.03798395E-14
  -2.20000005      -3.12623361E-14
  -2.19499993      -3.21695524E-14
  -2.19000006      -3.31021763E-14
  -2.18499994      -3.40609261E-14
  -2.18000007      -3.50465167E-14
  -2.17499995      -3.60597342E-14
  -2.17000008      -3.71013509E-14
  -2.16499996      -3.81721733E-14
  -2.16000009      -3.92730688E-14
  -2.15499997      -4.04048743E-14
  -2.15000010      -4.15685010E-14
  -2.14499998      -4.27648775E-14
  -2.14000010      -4.39949489E-14
  -2.13499999      -4.52597148E-14
  -2.13000011      -4.65601644E-14
  -2.12500000      -4.78973754E-14
  -2.11999989      -4.92723910E-14
  -2.11500001      -5.06863160E-14
  -2.10999990      -5.21402854E-14
  -2.10500002      -5.36354205E-14
  -2.09999990      -5.51729411E-14
  -2.09500003      -5.67540196E-14
  -2.08999991      -5.83799366E-14
  -2.08500004      -6.00518712E-14
  -2.07999992      -6.17711787E-14
  -2.07500005      -6.35391127E-14
  -2.06999993      -6.53570283E-14
  -2.06500006      -6.72262403E-14
  -2.05999994      -6.91481987E-14
  -2.05500007      -7.11242182E-14
  -2.04999995      -7.31557759E-14
  -2.04500008      -7.52443423E-14
  -2.03999996      -7.73913404E-14
  -2.03500009      -7.95983559E-14
  -2.02999997      -8.18668660E-14
  -2.02500010      -8.41985376E-14
  -2.01999998      -8.65948480E-14
  -2.01500010      -8.90575455E-14
  -2.00999999      -9.15882699E-14
  -2.00500011      -9.41887491E-14
  -2.00000000      -9.68607180E-14
  -1.99500000      -9.96059992E-14
  -1.99000001      -1.02426463E-13
  -1.98500001      -1.05323966E-13
  -1.98000002      -1.08300447E-13
  -1.97500002      -1.11357883E-13
  -1.97000003      -1.14498349E-13
  -1.96500003      -1.17723919E-13
  -1.96000004      -1.21036698E-13
  -1.95500004      -1.24438884E-13
  -1.95000005      -1.27932739E-13
  -1.94500005      -1.31520540E-13
  -1.94000006      -1.35204673E-13
  -1.93499994      -1.38987495E-13
  -1.92999995      -1.42871527E-13
  -1.92499995      -1.46859223E-13
  -1.91999996      -1.50953197E-13
  -1.91499996      -1.55156039E-13
  -1.90999997      -1.59470446E-13
  -1.90499997      -1.63899141E-13
  -1.89999998      -1.68444956E-13
  -1.89499998      -1.73110685E-13
  -1.88999999      -1.77899172E-13
  -1.88499999      -1.82813495E-13
  -1.88000000      -1.87856566E-13
  -1.87500000      -1.93031490E-13
  -1.87000000      -1.98341370E-13
  -1.86500001      -2.03789473E-13
  -1.86000001      -2.09378955E-13
  -1.85500002      -2.15113111E-13
  -1.85000002      -2.20995341E-13
  -1.84500003      -2.27029062E-13
  -1.84000003      -2.33217796E-13
  -1.83500004      -2.39565041E-13
  -1.83000004      -2.46074510E-13
  -1.82500005      -2.52749915E-13
  -1.82000005      -2.59594998E-13
  -1.81500006      -2.66613635E-13
  -1.80999994      -2.73809621E-13
  -1.80499995      -2.81187156E-13
  -1.79999995      -2.88750144E-13
  -1.79499996      -2.96502840E-13
  -1.78999996      -3.04449743E-13
  -1.78499997      -3.12594866E-13
  -1.77999997      -3.20942817E-13
  -1.77499998      -3.29498175E-13
  -1.76999998      -3.38265467E-13
  -1.76499999      -3.47249492E-13
  -1.75999999      -3.56455073E-13
  -1.75500000      -3.65887062E-13
  -1.75000000      -3.75550529E-13
  -1.74500000      -3.85450732E-13
  -1.74000001      -3.95592874E-13
  -1.73500001      -4.05982187E-13
  -1.73000002      -4.16624255E-13
  -1.72500002      -4.27524444E-13
  -1.72000003      -4.38688501E-13