  -6.00000000       0.00000000    
  -5.99499989       0.00000000    
  -5.98999977       0.00000000    
  -5.98500013      -3.28286947E-30
  -5.98000002      -2.04013985E-29
  -5.97499990      -7.40632369E-29
  -5.96999979      -2.18389309E-28
  -5.96500015      -6.13544417E-28
  -5.96000004      -1.74027222E-27
  -5.95499992      -4.89768068E-27
  -5.94999981      -1.31981545E-26
  -5.94500017      -3.33489931E-26
  -5.94000006      -7.85818737E-26
  -5.93499994      -1.73146686E-25
  -5.92999983      -3.58812421E-25
  -5.92500019      -7.03799168E-25
  -5.92000008      -1.31448958E-24
  -5.91499996      -2.35011899E-24
  -5.90999985      -4.04042171E-24
  -5.90500021      -6.70588567E-24
  -5.90000010      -1.07798908E-23
  -5.89499998      -1.68315086E-23
  -5.88999987      -2.55872367E-23
  -5.88500023      -3.79493087E-23
  -5.88000011      -5.50077947E-23
  -5.87500000      -7.80429307E-23
  -5.86999989      -1.08513876E-22
  -5.86499977      -1.48029761E-22
  -5.86000013      -1.98298654E-22
  -5.85500002      -2.61050255E-22
  -5.84999990      -3.37928398E-22
  -5.84499979      -4.30350912E-22
  -5.84000015      -5.39334078E-22
  -5.83500004      -6.65281616E-22
  -5.82999992      -8.07740707E-22
  -5.82499981      -9.65127015E-22
  -5.82000017      -1.13442368E-21
  -5.81500006      -1.31086923E-21
  -5.80999994      -1.48763607E-21
  -5.80499983      -1.65552425E-21
  -5.80000019      -1.80267556E-21
  -5.79500008      -1.91433929E-21
  -5.78999996      -1.97269975E-21
  -5.78499985      -1.95678803E-21
  -5.78000021      -1.84250463E-21
  -5.77500010      -1.60276674E-21
  -5.76999998      -1.20779830E-21
  -5.76499987      -6.25572756E-22
  -5.76000023       1.77568816E-22
  -5.75500011       1.23614509E-21
  -5.75000000       2.58458580E-21
  -5.74499989       4.25614960E-21
  -5.73999977       6.28169883E-21
  -5.73500013       8.68838688E-21
  -5.73000002       1.14982863E-20
  -5.72499990       1.47270154E-20
  -5.71999979       1.83823960E-20
  -5.71500015       2.24632479E-20
  -5.71000004       2.69583315E-20
  -5.70499992       3.18455521E-20
  -5.69999981       3.70914637E-20
  -5.69500017       4.26511772E-20
  -5.69000006       4.84686480E-20
  -5.68499994       5.44774431E-20
  -5.67999983       6.06020369E-20
  -5.67500019       6.67595371E-20
  -5.67000008       7.28620815E-20
  -5.66499996       7.88193845E-20
  -5.65999985       8.45420139E-20
  -5.65500021       8.99448216E-20
  -5.65000010       9.49504986E-20
  -5.64499998       9.94934392E-20
  -5.63999987       1.03523424E-19
  -5.63500023       1.07008918E-19
  -5.63000011       1.09940291E-19
  -5.62500000       1.12332213E-19
  -5.61999989       1.14225371E-19
  -5.61499977       1.15687335E-19
  -5.61000013       1.16812262E-19
  -5.60500002       1.17719498E-19
  -5.59999990       1.18551112E-19
  -5.59499979       1.19467783E-19
  -5.59000015       1.20643814E-19
  -5.58500004       1.22260913E-19
  -5.57999992       1.24500763E-19
  -5.57499981       1.27536904E-19
  -5.57000017       1.31525905E-19
  -5.56500006       1.36598616E-19
  -5.55999994       1.42850886E-19
  -5.55499983       1.50335178E-19
  -5.55000019       1.59052977E-19
  -5.54500008       1.68948474E-19
  -5.53999996       1.79903576E-19
  -5.53499985       1.91735852E-19
  -5.53000021       2.04198026E-19
  -5.52500010       2.16980900E-19
  -5.51999998       2.29718835E-19
  -5.51499987       2.41998642E-19
  -5.51000023       2.53371574E-19
  -5.50500011       2.63368517E-19
  -5.50000000       2.71517228E-19
  -5.49499989       2.77363560E-19
  -5.48999977       2.80493404E-19
  -5.48500013       2.80557020E-19
  -5.48000002       2.77293249E-19
  -5.47499990       2.70555243E-19
  -5.46999979       2.60333255E-19
  -5.46500015       2.46777393E-19
  -5.46000004       2.30216772E-19
  -5.45499992       2.11175359E-19
  -5.44999981       1.90383127E-19
  -5.44500017       1.68782301E-19
  -5.44000006       1.47526241E-19
  -5.43499994       1.27973940E-19
  -5.42999983       1.11675561E-19
  -5.42500019       1.00352305E-19
  -5.42000008       9.58685140E-20
  -5.41499996       1.00195877E-19
  -5.40999985       1.15374738E-19
  -5.40500021       1.43467175E-19
  -5.40000010       1.86504283E-19
  -5.39499998       2.46435483E-19
  -5.38999987       3.25069237E-19
  -5.38500023       4.24019374E-19
  -5.38000011       5.44648286E-19
  -5.37500000       6.88015746E-19
  -5.36999989       8.54831451E-19
  -5.36499977       1.04541340E-18
  -5.36000013       1.25965535E-18
  -5.35500002       1.49700231E-18
  -5.34999990       1.75643779E-18
  -5.34499979       2.03648041E-18
  -5.34000015       2.33519518E-18
  -5.33500004       2.65021513E-18
  -5.32999992       2.97877334E-18
  -5.32499981       3.31775113E-18
  -5.32000017       3.66373307E-18
  -5.31500006       4.01307295E-18
  -5.30999994       4.36196863E-18
  -5.30499983       4.70653899E-18
  -5.30000019       5.04290991E-18
  -5.29500008       5.36729665E-18
  -5.28999996       5.67609351E-18
  -5.28499985       5.96594752E-18
  -5.28000021       6.23383576E-18
  -5.27500010       6.47713522E-18
  -5.26999998       6.69367083E-18
  -5.26499987       6.88176757E-18
  -5.26000023       7.04027233E-18
  -5.25500011       7.16856970E-18
  -5.25000000       7.26658316E-18
  -5.24499989       7.33475277E-18
  -5.23999977       7.37400249E-18
  -5.23500013       7.38568972E-18
  -5.23000002       7.37154328E-18
  -5.22499990       7.33358727E-18
  -5.21999979       7.27405756E-18
  -5.21500015       7.19530831E-18
  -5.21000004       7.09971767E-18
  -5.20499992       6.98958767E-18
  -5.19999981       6.86705451E-18
  -5.19500017       6.73399589E-18
  -5.19000006       6.59195119E-18
  -5.18499994       6.44205738E-18
  -5.17999983       6.28499481E-18
  -5.17500019       6.12094587E-18
  -5.17000008       5.94958755E-18
  -5.16499996       5.77008687E-18
  -5.15999985       5.58112863E-18
  -5.15500021       5.38096043E-18
  -5.15000010       5.16745436E-18
  -5.14499998       4.93819257E-18
  -5.13999987       4.69056902E-18
  -5.13500023       4.42190531E-18
  -5.13000011       4.12956438E-18
  -5.12500000       3.81109943E-18
  -5.11999989       3.46437220E-18
  -5.11499977       3.08769628E-18
  -5.11000013       2.67996427E-18
  -5.10500002       2.24075432E-18
  -5.09999990       1.77045416E-18
  -5.09499979       1.27032112E-18
  -5.09000015       7.42562311E-19
  -5.08500004       1.90376561E-19
  -5.07999992      -3.82062110E-19
  -5.07499981      -9.69579031E-19
  -5.07000017      -1.56607582E-18
  -5.06500006      -2.16459166E-18
  -5.05999994      -2.75740740E-18
  -5.05499983      -3.33618216E-18
  -5.05000019      -3.89207876E-18
  -5.04500008      -4.41595457E-18
  -5.03999996      -4.89854622E-18
  -5.03499985      -5.33064634E-18
  -5.03000021      -5.70332099E-18
  -5.02500010      -6.00810933E-18
  -5.01999998      -6.23719742E-18
  -5.01499987      -6.38361666E-18
  -5.01000023      -6.44142790E-18
  -5.00500011      -6.40581901E-18
  -5.00000000      -6.27325960E-18
  -4.99499989      -6.04159154E-18
  -4.98999977      -5.71005589E-18
  -4.98500013      -5.27934005E-18
  -4.98000002      -4.75156863E-18
  -4.97499990      -4.13024143E-18
  -4.96999979      -3.42015588E-18
  -4.96500015      -2.62730967E-18
  -4.96000004      -1.75873860E-18
  -4.95499992      -8.22358563E-19
  -4.94999981       1.73188084E-19
  -4.94500017       1.21879304E-18
  -4.94000006       2.30501757E-18
  -4.93499994       3.42234874E-18
  -4.92999983       4.56138326E-18
  -4.92500019       5.71303374E-18
  -4.92000008       6.86868240E-18
  -4.91499996       8.02035232E-18
  -4.90999985       9.16084579E-18
  -4.90500021       1.02838179E-17
  -4.90000010       1.13838606E-17
  -4.89499998       1.24565302E-17
  -4.88999987       1.34983427E-17
  -4.88500023       1.45067296E-17
  -4.88000011       1.54799854E-17
  -4.87500000       1.64171148E-17
  -4.86999989       1.73178004E-17
  -4.86499977       1.81821247E-17
  -4.86000013       1.90105047E-17
  -4.85500002       1.98034781E-17
  -4.84999990       2.05615081E-17
  -4.84499979       2.12848246E-17
  -4.84000015       2.19732572E-17
  -4.83500004       2.26260483E-17
  -4.82999992       2.32417734E-17
  -4.82499981       2.38181777E-17
  -4.82000017       2.43521906E-17
  -4.81500006       2.48397788E-17
  -4.80999994       2.52760124E-17
  -4.80499983       2.56551175E-17
  -4.80000019       2.59705199E-17
  -4.79500008       2.62149650E-17
  -4.78999996       2.63806873E-17
  -4.78499985       2.64595556E-17
  -4.78000021       2.64433313E-17
  -4.77500010       2.63238550E-17
  -4.76999998       2.60932900E-17
  -4.76499987       2.57443985E-17
  -4.76000023       2.52707681E-17
  -4.75500011       2.46670486E-17
  -4.75000000       2.39291787E-17
  -4.74499989       2.30546503E-17
  -4.73999977       2.20425435E-17
  -4.73500013       2.08938312E-17
  -4.73000002       1.96113307E-17
  -4.72499990       1.81999438E-17
  -4.71999979       1.66664039E-17
  -4.71500015       1.50196345E-17
  -4.71000004       1.32703386E-17
  -4.70499992       1.14310024E-17
  -4.69999981       9.51583531E-18
  -4.69500017       7.54049575E-18
  -4.69000006       5.52185535E-18
  -4.68499994       3.47784821E-18
  -4.67999983       1.42723925E-18
  -4.67500019      -6.10798074E-19
  -4.67000008      -2.61672424E-18
  -4.66499996      -4.57108899E-18
  -4.65999985      -6.45461605E-18
  -4.65500021      -8.24852595E-18
  -4.65000010      -9.93468400E-18
  -4.64499998      -1.14958129E-17
  -4.63999987      -1.29156337E-17
  -4.63500023      -1.41787426E-17
  -4.63000011      -1.52711520E-17
  -4.62500000      -1.61798447E-17
  -4.61999989      -1.68931258E-17
  -4.61499977      -1.74002388E-17
  -4.61000013      -1.76914958E-17
  -4.60500002      -1.77583700E-17
  -4.59999990      -1.75929388E-17
  -4.59499979      -1.71880323E-17
  -4.59000015      -1.65371321E-17
  -4.58500004      -1.56340229E-17
  -4.57999992      -1.44728152E-17
  -4.57499981      -1.30477402E-17
  -4.57000017      -1.13530556E-17
  -4.56500006      -9.38299176E-18
  -4.55999994      -7.13154261E-18
  -4.55499983      -4.59255019E-18
  -4.55000019      -1.75961727E-18
  -4.54500008       1.37386852E-18
  -4.53999996       4.81471642E-18
  -4.53499985       8.56991871E-18
  -4.53000021       1.26461713E-17
  -4.52500010       1.70504936E-17
  -4.51999998       2.17892443E-17
  -4.51499987       2.68687371E-17
  -4.51000023       3.22945075E-17
  -4.50500011       3.80712325E-17
  -4.50000000       4.42030728E-17
  -4.49499989       5.06926455E-17
  -4.48999977       5.75415686E-17
  -4.48500013       6.47500572E-17
  -4.48000002       7.23166753E-17
  -4.47499990       8.02383127E-17
  -4.46999979       8.85101387E-17
  -4.46500015       9.71255755E-17
  -4.46000004       1.06076067E-16
  -4.45499992       1.15351117E-16
  -4.44999981       1.24938538E-16
  -4.44500017       1.34824325E-16
  -4.44000006       1.44992162E-16
  -4.43499994       1.55424272E-16
  -4.42999983       1.66101493E-16
  -4.42500019       1.77002715E-16
  -4.42000008       1.88105583E-16
  -4.41499996       1.99386235E-16
  -4.40999985       2.10819526E-16
  -4.40500021       2.22379289E-16
  -4.40000010       2.34038247E-16
  -4.39499998       2.45768277E-16
  -4.38999987       2.57540103E-16
  -4.38500023       2.69323972E-16
  -4.38000011       2.81089101E-16
  -4.37500000       2.92804149E-16
  -4.36999989       3.04437856E-16
  -4.36499977       3.15957027E-16
  -4.36000013       3.27328656E-16
  -4.35500002       3.38519470E-16
  -4.34999990       3.49494873E-16
  -4.34499979       3.60220454E-16
  -4.34000015       3.70660612E-16
  -4.33500004       3.80779797E-16
  -4.32999992       3.90541005E-16
  -4.32499981       3.99907415E-16
  -4.32000017       4.08841151E-16
  -4.31500006       4.17303646E-16
  -4.30999994       4.25255697E-16
  -4.30499983       4.32658236E-16
  -4.30000019       4.39470472E-16
  -4.29500008       4.45650980E-16
  -4.28999996       4.51158176E-16
  -4.28499985       4.55949895E-16
  -4.28000021       4.59982777E-16
  -4.27500010       4.63212779E-16
  -4.26999998       4.65595906E-16
  -4.26499987       4.67087001E-16
  -4.26000023       4.67640008E-16
  -4.25500011       4.67208974E-16
  -4.25000000       4.65746519E-16
  -4.24499989       4.63205526E-16
  -4.23999977       4.59537767E-16
  -4.23500013       4.54694062E-16
  -4.23000002       4.48626977E-16
  -4.22499990       4.41285187E-16
  -4.21999979       4.32619325E-16
  -4.21500015       4.22579682E-16
  -4.21000004       4.11115382E-16
  -4.20499992       3.98175524E-16
  -4.19999981       3.83710398E-16
  -4.19500017       3.67668494E-16
  -4.19000006       3.50001240E-16
  -4.18499994       3.30657337E-16
  -4.17999983       3.09588583E-16
  -4.17500019       2.86746196E-16
  -4.17000008       2.62082555E-16
  -4.16499996       2.35552372E-16
  -4.15999985       2.07108899E-16
  -4.15500021       1.76710078E-16
  -4.15000010       1.44312841E-16
  -4.14499998       1.09878437E-16
  -4.13999987       7.33678168E-17
  -4.13500023       3.47453676E-17
  -4.13000011      -6.02330257E-18
  -4.12500000      -4.89705018E-17
  -4.11999989      -9.41234989E-17
  -4.11499977      -1.41510856E-16
  -4.11000013      -1.91157138E-16
  -4.10500002      -2.43084242E-16
  -4.09999990      -2.97315076E-16
  -4.09499979      -3.53867654E-16
  -4.09000015      -4.12759632E-16
  -4.08500004      -4.74008213E-16
  -4.07999992      -5.37625894E-16
  -4.07499981      -6.03627495E-16
  -4.07000017      -6.72029164E-16
  -4.06500006      -7.42840907E-16
  -4.05999994      -8.16076752E-16
  -4.05499983      -8.91751840E-16
  -4.05000019      -9.69878453E-16
  -4.04500008      -1.05047491E-15
  -4.03999996      -1.13355476E-15
  -4.03499985      -1.21913749E-15
  -4.03000021      -1.30724310E-15
  -4.02500010      -1.39789077E-15
  -4.01999998      -1.49110441E-15
  -4.01499987      -1.58690934E-15
  -4.01000023      -1.68533023E-15
  -4.00500011      -1.78639863E-15
  -4.00000000      -1.89014640E-15
  -3.99499989      -1.99660468E-15
  -3.99000001      -2.10580649E-15
  -3.98499990      -2.21779462E-15
  -3.98000002      -2.33260253E-15
  -3.97499990      -2.45027531E-15
  -3.97000003      -2.57085151E-15
  -3.96499991      -2.69437792E-15
  -3.96000004      -2.82089860E-15
  -3.95499992      -2.95046881E-15
  -3.95000005      -3.08313217E-15
  -3.94499993      -3.21894543E-15
  -3.94000006      -3.35796280E-15
  -3.93499994      -3.50024613E-15
  -3.93000007      -3.64585554E-15
  -3.92499995      -3.79485922E-15
  -3.92000008      -3.94732685E-15
  -3.91499996      -4.10333634E-15
  -3.91000009      -4.26297029E-15
  -3.90499997      -4.42631085E-15
  -3.90000010      -4.59345925E-15
  -3.89499998      -4.76451374E-15
  -3.89000010      -4.93959079E-15
  -3.88499999      -5.11880899E-15
  -3.88000011      -5.30229157E-15
  -3.87500000      -5.49018804E-15
  -3.86999989      -5.68263943E-15
  -3.86500001      -5.87981854E-15
  -3.85999990      -6.08189265E-15
  -3.85500002      -6.28905107E-15
  -3.84999990      -6.50149837E-15
  -3.84500003      -6.71944588E-15
  -3.83999991      -6.94311890E-15
  -3.83500004      -7.17275801E-15
  -3.82999992      -7.40861857E-15
  -3.82500005      -7.65096655E-15
  -3.81999993      -7.90009165E-15
  -3.81500006      -8.15627761E-15
  -3.80999994      -8.41985054E-15
  -3.80500007      -8.69112470E-15
  -3.79999995      -8.97044144E-15
  -3.79500008      -9.25815228E-15
  -3.78999996      -9.55461974E-15
  -3.78500009      -9.86022922E-15
  -3.77999997      -1.01753644E-14
  -3.77500010      -1.05004506E-14
  -3.76999998      -1.08358943E-14
  -3.76500010      -1.11821453E-14
  -3.75999999      -1.15396499E-14
  -3.75500011      -1.19088724E-14
  -3.75000000      -1.22903125E-14
  -3.74499989      -1.26844539E-14
  -3.74000001      -1.30918242E-14
  -3.73499990      -1.35129555E-14
  -3.73000002      -1.39484049E-14
  -3.72499990      -1.43987402E-14
  -3.72000003      -1.48645643E-14
  -3.71499991      -1.53465006E-14
  -3.71000004      -1.58451590E-14
  -3.70499992      -1.63612173E-14
  -3.70000005      -1.68953579E-14
  -3.69499993      -1.74482688E-14
  -3.69000006      -1.80207005E-14
  -3.68499994      -1.86133898E-14
  -3.68000007      -1.92271414E-14
  -3.67499995      -1.98627278E-14
  -3.67000008      -2.05210011E-14
  -3.66499996      -2.12028203E-14
  -3.66000009      -2.19090425E-14
  -3.65499997      -2.26405995E-14
  -3.65000010      -2.33984212E-14
  -3.64499998      -2.41834750E-14
  -3.64000010      -2.49967232E-14
  -3.63499999      -2.58391991E-14
  -3.63000011      -2.67119633E-14
  -3.62500000      -2.76160388E-14
  -3.61999989      -2.85525625E-14
  -3.61500001      -2.95226151E-14
  -3.60999990      -3.05273757E-14
  -3.60500002      -3.15679862E-14
  -3.59999990      -3.26456764E-14
  -3.59500003      -3.37616491E-14
  -3.58999991      -3.49171816E-14
  -3.58500004      -3.61135309E-14
  -3.57999992      -3.73520185E-14
  -3.57500005      -3.86339825E-14
  -3.56999993      -3.99608088E-14
  -3.56500006      -4.13339034E-14
  -3.55999994      -4.27546623E-14
  -3.55500007      -4.42245389E-14
  -3.54999995      -4.57450748E-14
  -3.54500008      -4.73178151E-14
  -3.53999996      -4.89442403E-14
  -3.53500009      -5.06260073E-14
  -3.52999997      -5.23647389E-14
  -3.52500010      -5.41621293E-14
  -3.51999998      -5.60198487E-14
  -3.51500010      -5.79397099E-14
  -3.50999999      -5.99234610E-14
  -3.50500011      -6.19729149E-14
  -3.50000000      -6.40899416E-14
  -3.49499989      -6.62765063E-14
  -3.49000001      -6.85344725E-14
  -3.48499990      -7.08659206E-14
  -3.48000002      -7.32728358E-14
  -3.47499990      -7.57572987E-14
  -3.47000003      -7.83214503E-14
  -3.46499991      -8.09674390E-14
  -3.46000004      -8.36974262E-14
  -3.45499992      -8.65137904E-14
  -3.45000005      -8.94187000E-14
  -3.44499993      -9.24145675E-14
  -3.44000006      -9.55037305E-14
  -3.43499994      -9.86886896E-14
  -3.43000007      -1.01971884E-13
  -3.42499995      -1.05355849E-13
  -3.42000008      -1.08843110E-13
  -3.41499996      -1.12436400E-13
  -3.41000009      -1.16138287E-13
  -3.40499997      -1.19951588E-13
  -3.40000010      -1.23879070E-13
  -3.39499998      -1.27923537E-13
  -3.39000010      -1.32087917E-13
  -3.38499999      -1.36375056E-13
  -3.38000011      -1.40788097E-13
  -3.37500000      -1.45330037E-13
  -3.36999989      -1.50004019E-13
  -3.36500001      -1.54813228E-13
  -3.35999990      -1.59760958E-13
  -3.35500002      -1.64850528E-13
  -3.34999990      -1.70085205E-13
  -3.34500003      -1.75468608E-13
  -3.33999991      -1.81004246E-13
  -3.33500004      -1.86695752E-13
  -3.32999992      -1.92546662E-13
  -3.32500005      -1.98560962E-13
  -3.31999993      -2.04742310E-13
  -3.31500006      -2.11094759E-13
  -3.30999994      -2.17622198E-13
  -3.30500007      -2.24328816E-13
  -3.29999995      -2.31218690E-13
  -3.29500008      -2.38296064E-13
  -3.28999996      -2.45565585E-13
  -3.28500009      -2.53031347E-13
  -3.27999997      -2.60697957E-13
  -3.27500010      -2.68570214E-13
  -3.26999998      -2.76652751E-13
  -3.26500010      -2.84950259E-13
  -3.25999999      -2.93467914E-13
  -3.25500011      -3.02210541E-13
  -3.25000000      -3.11183289E-13
  -3.24499989      -3.20391500E-13
  -3.24000001      -3.29840566E-13
  -3.23499990      -3.39535637E-13
  -3.23000002      -3.49482677E-13
  -3.22499990      -3.59687134E-13
  -3.22000003      -3.70154807E-13
  -3.21499991      -3.80891851E-13
  -3.21000004      -3.91904039E-13
  -3.20499992      -4.03197712E-13
  -3.20000005      -4.14779132E-13
  -3.19499993      -4.26654616E-13
  -3.19000006      -4.38830965E-13
  -3.18499994      -4.51314631E-13
  -3.18000007      -4.64112581E-13
  -3.17499995      -4.77231861E-13
  -3.17000008      -4.90679491E-13
  -3.16499996      -5.04462737E-13
  -3.16000009      -5.18589186E-13
  -3.15499997      -5.33066375E-13
  -3.15000010      -5.47901839E-13
  -3.14499998      -5.63103709E-13
  -3.14000010      -5.78679737E-13
  -3.13499999      -5.94638271E-13
  -3.13000011      -6.10988094E-13
  -3.12500000      -6.27737229E-13
  -3.11999989      -6.44894728E-13
  -3.11500001      -6.62469266E-13
  -3.10999990      -6.80470166E-13
  -3.10500002      -6.98906319E-13
  -3.09999990      -7.17787646E-13
  -3.09500003      -7.37123470E-13
  -3.08999991      -7.56923712E-13
  -3.08500004      -7.77198347E-13
  -3.07999992      -7.97957566E-13
  -3.07500005      -8.19211235E-13
  -3.06999993      -8.40970793E-13
  -3.06500006      -8.63246865E-13
  -3.05999994      -8.86050510E-13
  -3.05500007      -9.09392028E-13
  -3.04999995      -9.33283941E-13
  -3.04500008      -9.57737145E-13
  -3.03999996      -9.82763784E-13
  -3.03500009      -1.00837578E-12
  -3.02999997      -1.03458550E-12
  -3.02500010      -1.06140541E-12
  -3.01999998      -1.08884820E-12
  -3.01500010      -1.11692665E-12
  -3.00999999      -1.14565453E-12
  -3.00500011      -1.17504465E-12
  -3.00000000      -1.20511088E-12
  -2.99499989      -1.23586644E-12
  -2.99000001      -1.26732663E-12
  -2.98499990      -1.29950488E-12
  -2.98000002      -1.33241606E-12
  -2.97499990      -1.36607544E-12
  -2.97000003      -1.40049788E-12
  -2.96499991      -1.43569857E-12
  -2.96000004      -1.47169354E-12
  -2.95499992      -1.50849830E-12
  -2.95000005      -1.54612911E-12
  -2.94499993      -1.58460267E-12
  -2.94000006      -1.62393558E-12
  -2.93499994      -1.66414517E-12
  -2.93000007      -1.70524781E-12
  -2.92499995      -1.74726152E-12
  -2.92000008      -1.79020384E-12
  -2.91499996      -1.83409277E-12
  -2.91000009      -1.87894817E-12
  -2.90499997      -1.92478650E-12
  -2.90000010      -1.97162837E-12
  -2.89499998      -2.01949091E-12
  -2.89000010      -2.06839624E-12
  -2.88499999      -2.11836234E-12
  -2.88000011      -2.16940983E-12
  -2.87500000      -2.22155887E-12
  -2.86999989      -2.27483071E-12
  -2.86500001      -2.32924574E-12
  -2.85999990      -2.38482519E-12
  -2.85500002      -2.44159142E-12
  -2.84999990      -2.49956566E-12
  -2.84500003      -2.55876960E-12
  -2.83999991      -2.61922710E-12
  -2.83500004      -2.68095984E-12
  -2.82999992      -2.74399102E-12
  -2.82500005      -2.80834384E-12
  -2.81999993      -2.87404258E-12
  -2.81500006      -2.94111111E-12
  -2.80999994      -3.00957263E-12
  -2.80500007      -3.07945379E-12
  -2.79999995      -3.15077890E-12
  -2.79500008      -3.22357375E-12
  -2.78999996      -3.29786220E-12
  -2.78500009      -3.37367113E-12
  -2.77999997      -3.45102787E-12
  -2.77500010      -3.52995649E-12
  -2.76999998      -3.61048778E-12
  -2.76500010      -3.69264428E-12
  -2.75999999      -3.77645571E-12
  -2.75500011      -3.86195112E-12
  -2.75000000      -3.94915481E-12
  -2.74499989      -4.03810058E-12
  -2.74000001      -4.12881361E-12
  -2.73499990      -4.22132425E-12
  -2.73000002      -4.31566154E-12
  -2.72499990      -4.41185586E-12
  -2.72000003      -4.50993626E-12
  -2.71499991      -4.60993570E-12
  -2.71000004      -4.71187932E-12
  -2.70499992      -4.81580270E-12
  -2.70000005      -4.92173489E-12
  -2.69499993      -5.02971016E-12
  -2.69000006      -5.13975668E-12
  -2.68499994      -5.25190958E-12
  -2.68000007      -5.36620011E-12
  -2.67499995      -5.48266163E-12
  -2.67000008      -5.60132800E-12
  -2.66499996      -5.72223128E-12
  -2.66000009      -5.84540359E-12
  -2.65499997      -5.97088524E-12
  -2.65000010      -6.09870054E-12
  -2.64499998      -6.22888980E-12
  -2.64000010      -6.36148816E-12
  -2.63499999      -6.49653118E-12
  -2.63000011      -6.63405312E-12
  -2.62500000      -6.77409040E-12
  -2.61999989      -6.91667513E-12
  -2.61500001      -7.06184763E-12
  -2.60999990      -7.20964217E-12
  -2.60500002      -7.36009517E-12
  -2.59999990      -7.51324350E-12
  -2.59500003      -7.66912835E-12
  -2.58999991      -7.82778269E-12
  -2.58500004      -7.98924468E-12
  -2.57999992      -8.15355249E-12
  -2.57500005      -8.32074513E-12
  -2.56999993      -8.49085819E-12
  -2.56500006      -8.66393415E-12
  -2.55999994      -8.84000685E-12
  -2.55500007      -9.01911879E-12
  -2.54999995      -9.20130552E-12
  -2.54500008      -9.38660868E-12
  -2.53999996      -9.57506730E-12
  -2.53500009      -9.76671695E-12
  -2.52999997      -9.96160446E-12
  -2.52500010      -1.01597637E-11
  -2.51999998      -1.03612379E-11
  -2.51500010      -1.05660654E-11
  -2.50999999      -1.07742886E-11
  -2.50500011      -1.09859405E-11
  -2.50000000      -1.12010635E-11
  -2.49499989      -1.14197055E-11
  -2.49000001      -1.16418993E-11
  -2.48499990      -1.18676839E-11
  -2.48000002      -1.20971063E-11
  -2.47499990      -1.23302089E-11
  -2.47000003      -1.25670255E-11
  -2.46499991      -1.28075944E-11
  -2.46000004      -1.30519658E-11
  -2.45499992      -1.33001743E-11
  -2.45000005      -1.35522539E-11
  -2.44499993      -1.38082566E-11
  -2.44000006      -1.40682162E-11
  -2.43499994      -1.43321752E-11
  -2.43000007      -1.46001700E-11
  -2.42499995      -1.48722441E-11
  -2.42000008      -1.51484415E-11
  -2.41499996      -1.54287867E-11
  -2.41000009      -1.57133334E-11
  -2.40499997      -1.60021180E-11
  -2.40000010      -1.62951735E-11
  -2.39499998      -1.65925468E-11
  -2.39000010      -1.68942776E-11
  -2.38499999      -1.72003817E-11
  -2.38000011      -1.75109371E-11
  -2.37500000      -1.78259421E-11
  -2.36999989      -1.81454591E-11
  -2.36500001      -1.84695106E-11
  -2.35999990      -1.87981453E-11
  -2.35500002      -1.91313996E-11
  -2.34999990      -1.94692925E-11
  -2.34500003      -1.98118796E-11
  -2.33999991      -2.01591868E-11
  -2.33500004      -2.05112576E-11
  -2.32999992      -2.08681111E-11
  -2.32500005      -2.12297853E-11
  -2.31999993      -2.15963220E-11
  -2.31500006      -2.19677436E-11
  -2.30999994      -2.23440832E-11
  -2.30500007      -2.27253962E-11
  -2.29999995      -2.31116792E-11
  -2.29500008      -2.35029773E-11
  -2.28999996      -2.38993200E-11
  -2.28500009      -2.43007402E-11
  -2.27999997      -2.47072605E-11
  -2.27500010      -2.51189052E-11
  -2.26999998      -2.55357142E-11
  -2.26500010      -2.59576909E-11
  -2.25999999      -2.63848752E-11
  -2.25500011      -2.68172984E-11
  -2.25000000      -2.72549604E-11
  -2.24499989      -2.76979099E-11
  -2.24000001      -2.81461451E-11
  -2.23499990      -2.85996921E-11
  -2.23000002      -2.90585698E-11
  -2.22499990      -2.95228147E-11
  -2.22000003      -2.99924252E-11
  -2.21499991      -3.04674029E-11
  -2.21000004      -3.09477999E-11
  -2.20499992      -3.14335884E-11
  -2.20000005      -3.19248170E-11
  -2.19499993      -3.24214718E-11
  -2.19000006      -3.29235805E-11
  -2.18499994      -3.34311363E-11
  -2.18000007      -3.39441565E-11
  -2.17499995      -3.44626341E-11
  -2.17000008      -3.49865796E-11
  -2.16499996      -3.55160137E-11
  -2.16000009      -3.60509018E-11
  -2.15499997      -3.65913064E-11
  -2.15000010      -3.71371579E-11
  -2.14499998      -3.76884635E-11
  -2.14000010      -3.82452438E-11
  -2.13499999      -3.88074885E-11
  -2.13000011      -3.93751802E-11
  -2.12500000      -3.99483120E-11
  -2.11999989      -4.05268631E-11
  -2.11500001      -4.11108196E-11
  -2.10999990      -4.17002127E-11
  -2.10500002      -4.22949488E-11
  -2.09999990      -4.28950694E-11
  -2.09500003      -4.35004983E-11
  -2.08999991      -4.41112355E-11
  -2.08500004      -4.47273364E-11
  -2.07999992      -4.53486554E-11
  -2.07500005      -4.59751855E-11
  -2.06999993      -4.66069579E-11
  -2.06500006      -4.72438304E-11
  -2.05999994      -4.78859036E-11
  -2.05500007      -4.85330248E-11
  -2.04999995      -4.91852427E-11
  -2.04500008      -4.98424739E-11
  -2.03999996      -5.05046178E-11
  -2.03500009      -5.11717023E-11
  -2.02999997      -5.18436509E-11
  -2.02500010      -5.25204151E-11
  -2.01999998      -5.32019429E-11
  -2.01500010      -5.38881301E-11
  -2.00999999      -5.45789768E-11
  -2.00500011      -5.52744378E-11
  -2.00000000      -5.59743467E-11
  -1.99500000      -5.66787277E-11
  -1.99000001      -5.73874871E-11
  -1.98500001      -5.81005244E-11
  -1.98000002      -5.88177423E-11
  -1.97500002      -5.95391306E-11
  -1.97000003      -6.02645711E-11
  -1.96500003      -6.09939946E-11
  -1.96000004      -6.17272553E-11
  -1.95500004      -6.24643462E-11
  -1.95000005      -6.32051564E-11
  -1.94500005      -6.39495332E-11
  -1.94000006      -6.46974835E-11
  -1.93499994      -6.54487436E-11
  -1.92999995      -6.62033067E-11
  -1.92499995      -6.69610270E-11
  -1.91999996      -6.77218490E-11
  -1.91499996      -6.84856200E-11
  -1.90999997      -6.92521596E-11
  -1.90499997      -7.00215094E-11
  -1.89999998      -7.07933850E-11
  -1.89499998      -7.15676754E-11
  -1.88999999      -7.23443042E-11
  -1.88499999      -7.31231464E-11
  -1.88000000      -7.39039663E-11
  -1.87500000      -7.46867429E-11
  -1.87000000      -7.54712612E-11
  -1.86500001      -7.62574101E-11
  -1.86000001      -7.70449746E-11
  -1.85500002      -7.78338921E-11
  -1.85000002      -7.86238991E-11
  -1.84500003      -7.94148983E-11
  -1.84000003      -8.02066885E-11
  -1.83500004      -8.09991449E-11
  -1.83000004      -8.17920384E-11
  -1.82500005      -8.25852026E-11
  -1.82000005      -8.33785818E-11
  -1.81500006      -8.41718154E-11
  -1.80999994      -8.49649032E-11
  -1.80499995      -8.57575538E-11
  -1.79999995      -8.65495176E-11
  -1.79499996      -8.73405723E-11
  -1.78999996      -8.81306556E-11
  -1.78499997      -8.89195939E-11
  -1.77999997      -8.97070682E-11
  -1.77499998      -9.04927591E-11
  -1.76999998      -9.12767292E-11
  -1.76499999      -9.20585067E-11
  -1.75999999      -9.28381191E-11
  -1.75500000      -9.36150601E-11
  -1.75000000      -9.43894338E-11
  -1.74500000      -9.51608514E-11
  -1.74000001      -9.59291535E-11
  -1.73500001      -9.66938613E-11
  -1.73000002      -9.74549608E-11
  -1.72500002      -9.82122578E-11
  -1.72000003      -9.89652665E-11