  -6.00000000       1.24220426E-12
  -5.99499989       3.77479818E-12
  -5.98999977       6.40351227E-12
  -5.98500013       9.12786947E-12
  -5.98000002       1.19474387E-11
  -5.97499990       1.48618739E-11
  -5.96999979       1.78709356E-11
  -5.96500015       2.09745173E-11
  -5.96000004       2.41726760E-11
  -5.95499992       2.74656513E-11
  -5.94999981       3.08538577E-11
  -5.94500017       3.43379492E-11
  -5.94000006       3.79187619E-11
  -5.93499994       4.15973714E-11
  -5.92999983       4.53750822E-11
  -5.92500019       4.92533792E-11
  -5.92000008       5.32340040E-11
  -5.91499996       5.73188476E-11
  -5.90999985       6.15100540E-11
  -5.90500021       6.58098576E-11
  -5.90000010       7.02207389E-11
  -5.89499998       7.47452517E-11
  -5.88999987       7.93861435E-11
  -5.88500023       8.41461970E-11
  -5.88000011       8.90284305E-11
  -5.87500000       9.40358486E-11
  -5.86999989       9.91715945E-11
  -5.86499977       1.04438909E-10
  -5.86000013       1.09841129E-10
  -5.85500002       1.15381690E-10
  -5.84999990       1.21064131E-10
  -5.84499979       1.26892177E-10
  -5.84000015       1.32869632E-10
  -5.83500004       1.39000506E-10
  -5.82999992       1.45289031E-10
  -5.82499981       1.51739607E-10
  -5.82000017       1.58356925E-10
  -5.81500006       1.65145994E-10
  -5.80999994       1.72112075E-10
  -5.80499983       1.79260856E-10
  -5.80000019       1.86598348E-10
  -5.79500008       1.94130989E-10
  -5.78999996       2.01865732E-10
  -5.78499985       2.09809906E-10
  -5.78000021       2.17971433E-10
  -5.77500010       2.26358626E-10
  -5.76999998       2.34980480E-10
  -5.76499987       2.43846415E-10
  -5.76000023       2.52966453E-10
  -5.75500011       2.62351224E-10
  -5.75000000       2.72011885E-10
  -5.74499989       2.81960205E-10
  -5.73999977       2.92208452E-10
  -5.73500013       3.02769504E-10
  -5.73000002       3.13656962E-10
  -5.72499990       3.24884702E-10
  -5.71999979       3.36467437E-10
  -5.71500015       3.48420265E-10
  -5.71000004       3.60758978E-10
  -5.70499992       3.73499842E-10
  -5.69999981       3.86659788E-10
  -5.69500017       4.00256189E-10
  -5.69000006       4.14307144E-10
  -5.68499994       4.28831359E-10
  -5.67999983       4.43847958E-10
  -5.67500019       4.59377147E-10
  -5.67000008       4.75439355E-10
  -5.66499996       4.92055896E-10
  -5.65999985       5.09248810E-10
  -5.65500021       5.27041022E-10
  -5.65000010       5.45456125E-10
  -5.64499998       5.64518488E-10
  -5.63999987       5.84253701E-10
  -5.63500023       6.04688188E-10
  -5.63000011       6.25848928E-10
  -5.62500000       6.47764620E-10
  -5.61999989       6.70464684E-10
  -5.61499977       6.93979541E-10
  -5.61000013       7.18341109E-10
  -5.60500002       7.43582307E-10
  -5.59999990       7.69737496E-10
  -5.59499979       7.96842092E-10
  -5.59000015       8.24933011E-10
  -5.58500004       8.54048665E-10
  -5.57999992       8.84228579E-10
  -5.57499981       9.15513887E-10
  -5.57000017       9.47947387E-10
  -5.56500006       9.81573267E-10
  -5.55999994       1.01643705E-09
  -5.55499983       1.05258613E-09
  -5.55000019       1.09006926E-09
  -5.54500008       1.12893728E-09
  -5.53999996       1.16924248E-09
  -5.53499985       1.21103849E-09
  -5.53000021       1.25438138E-09
  -5.52500010       1.29932887E-09
  -5.51999998       1.34594003E-09
  -5.51499987       1.39427636E-09
  -5.51000023       1.44440138E-09
  -5.50500011       1.49638069E-09
  -5.50000000       1.55028157E-09
  -5.49499989       1.60617386E-09
  -5.48999977       1.66412928E-09
  -5.48500013       1.72422232E-09
  -5.48000002       1.78652970E-09
  -5.47499990       1.85113069E-09
  -5.46999979       1.91810723E-09
  -5.46500015       1.98754324E-09
  -5.46000004       2.05952699E-09
  -5.45499992       2.13414775E-09
  -5.44999981       2.21149921E-09
  -5.44500017       2.29167774E-09
  -5.44000006       2.37478237E-09
  -5.43499994       2.46091592E-09
  -5.42999983       2.55018562E-09
  -5.42500019       2.64270050E-09
  -5.42000008       2.73857448E-09
  -5.41499996       2.83792412E-09
  -5.40999985       2.94087155E-09
  -5.40500021       3.04754133E-09
  -5.40000010       3.15806381E-09
  -5.39499998       3.27257155E-09
  -5.38999987       3.39120421E-09
  -5.38500023       3.51410301E-09
  -5.38000011       3.64141561E-09
  -5.37500000       3.77329457E-09
  -5.36999989       3.90989774E-09
  -5.36499977       4.05138723E-09
  -5.36000013       4.19793000E-09
  -5.35500002       4.34969838E-09
  -5.34999990       4.50687221E-09
  -5.34499979       4.66963757E-09
  -5.34000015       4.83818186E-09
  -5.33500004       5.01270181E-09
  -5.32999992       5.19340304E-09
  -5.32499981       5.38049205E-09
  -5.32000017       5.57418645E-09
  -5.31500006       5.77470960E-09
  -5.30999994       5.98229022E-09
  -5.30499983       6.19716767E-09
  -5.30000019       6.41958575E-09
  -5.29500008       6.64979849E-09
  -5.28999996       6.88806656E-09
  -5.28499985       7.13466086E-09
  -5.28000021       7.38985939E-09
  -5.27500010       7.65394770E-09
  -5.26999998       7.92722421E-09
  -5.26499987       8.20999535E-09
  -5.26000023       8.50257820E-09
  -5.25500011       8.80529694E-09
  -5.25000000       9.11848996E-09
  -5.24499989       9.44250367E-09
  -5.23999977       9.77769776E-09
  -5.23500013       1.01244426E-08
  -5.23000002       1.04831210E-08
  -5.22499990       1.08541265E-08
  -5.21999979       1.12378666E-08
  -5.21500015       1.16347616E-08
  -5.21000004       1.20452466E-08
  -5.20499992       1.24697674E-08
  -5.19999981       1.29087869E-08
  -5.19500017       1.33627802E-08
  -5.19000006       1.38322394E-08
  -5.18499994       1.43176733E-08
  -5.17999983       1.48196051E-08
  -5.17500019       1.53385749E-08
  -5.17000008       1.58751376E-08
  -5.16499996       1.64298708E-08
  -5.15999985       1.70033623E-08
  -5.15500021       1.75962267E-08
  -5.15000010       1.82090965E-08
  -5.14499998       1.88426181E-08
  -5.13999987       1.94974632E-08
  -5.13500023       2.01743244E-08
  -5.13000011       2.08739177E-08
  -5.12500000       2.15969767E-08
  -5.11999989       2.23442580E-08
  -5.11499977       2.31165469E-08
  -5.11000013       2.39146463E-08
  -5.10500002       2.47393928E-08
  -5.09999990       2.55916444E-08
  -5.09499979       2.64722804E-08
  -5.09000015       2.73822121E-08
  -5.08500004       2.83223862E-08
  -5.07999992       2.92937727E-08
  -5.07499981       3.02973646E-08
  -5.07000017       3.13341921E-08
  -5.06500006       3.24053282E-08
  -5.05999994       3.35118600E-08
  -5.05499983       3.46549172E-08
  -5.05000019       3.58356580E-08
  -5.04500008       3.70552904E-08
  -5.03999996       3.83150507E-08
  -5.03499985       3.96162001E-08
  -5.03000021       4.09600780E-08
  -5.02500010       4.23480095E-08
  -5.01999998       4.37814016E-08
  -5.01499987       4.52616860E-08
  -5.01000023       4.67903618E-08
  -5.00500011       4.83689391E-08
  -5.00000000       4.99989916E-08
  -4.99499989       5.16821537E-08
  -4.98999977       5.34200773E-08
  -4.98500013       5.52144819E-08
  -4.98000002       5.70671546E-08
  -4.97499990       5.89799036E-08
  -4.96999979       6.09546262E-08
  -4.96500015       6.29932515E-08
  -4.96000004       6.50977654E-08
  -4.95499992       6.72702427E-08
  -4.94999981       6.95127795E-08
  -4.94500017       7.18275714E-08
  -4.94000006       7.42168567E-08
  -4.93499994       7.66829373E-08
  -4.92999983       7.92282151E-08
  -4.92500019       8.18551058E-08
  -4.92000008       8.45661745E-08
  -4.91499996       8.73640147E-08
  -4.90999985       9.02512696E-08
  -4.90500021       9.32307458E-08
  -4.90000010       9.63052358E-08
  -4.89499998       9.94776670E-08
  -4.88999987       1.02751081E-07
  -4.88500023       1.06128532E-07
  -4.88000011       1.09613232E-07
  -4.87500000       1.13208444E-07
  -4.86999989       1.16917569E-07
  -4.86499977       1.20744033E-07
  -4.86000013       1.24691496E-07
  -4.85500002       1.28763560E-07
  -4.84999990       1.32964075E-07
  -4.84499979       1.37296908E-07
  -4.84000015       1.41766080E-07
  -4.83500004       1.46375726E-07
  -4.82999992       1.51130052E-07
  -4.82499981       1.56033508E-07
  -4.82000017       1.61090540E-07
  -4.81500006       1.66305782E-07
  -4.80999994       1.71684007E-07
  -4.80499983       1.77230135E-07
  -4.80000019       1.82949137E-07
  -4.79500008       1.88846300E-07
  -4.78999996       1.94926884E-07
  -4.78499985       2.01196386E-07
  -4.78000021       2.07660477E-07
  -4.77500010       2.14324913E-07
  -4.76999998       2.21195762E-07
  -4.76499987       2.28279049E-07
  -4.76000023       2.35581155E-07
  -4.75500011       2.43108531E-07
  -4.75000000       2.50867885E-07
  -4.74499989       2.58866123E-07
  -4.73999977       2.67110210E-07
  -4.73500013       2.75607476E-07
  -4.73000002       2.84365399E-07
  -4.72499990       2.93391594E-07
  -4.71999979       3.02694076E-07
  -4.71500015       3.12280832E-07
  -4.71000004       3.22160247E-07
  -4.70499992       3.32340846E-07
  -4.69999981       3.42831527E-07
  -4.69500017       3.53641326E-07
  -4.69000006       3.64779510E-07
  -4.68499994       3.76255656E-07
  -4.67999983       3.88079656E-07
  -4.67500019       4.00261655E-07
  -4.67000008       4.12811914E-07
  -4.66499996       4.25741206E-07
  -4.65999985       4.39060443E-07
  -4.65500021       4.52780995E-07
  -4.65000010       4.66914287E-07
  -4.64499998       4.81472455E-07
  -4.63999987       4.96467578E-07
  -4.63500023       5.11912219E-07
  -4.63000011       5.27819282E-07
  -4.62500000       5.44202067E-07
  -4.61999989       5.61074387E-07
  -4.61499977       5.78449885E-07
  -4.61000013       5.96343170E-07
  -4.60500002       6.14768965E-07
  -4.59999990       6.33742388E-07
  -4.59499979       6.53279187E-07
  -4.59000015       6.73395277E-07
  -4.58500004       6.94106859E-07
  -4.57999992       7.15431270E-07
  -4.57499981       7.37385506E-07
  -4.57000017       7.59987472E-07
  -4.56500006       7.83255473E-07
  -4.55999994       8.07208323E-07
  -4.55499983       8.31865066E-07
  -4.55000019       8.57245766E-07
  -4.54500008       8.83370603E-07
  -4.53999996       9.10260383E-07
  -4.53499985       9.37936818E-07
  -4.53000021       9.66421567E-07
  -4.52500010       9.95737196E-07
  -4.51999998       1.02590695E-06
  -4.51499987       1.05695472E-06
  -4.51000023       1.08890492E-06
  -4.50500011       1.12178236E-06
  -4.50000000       1.15561284E-06
  -4.49499989       1.19042284E-06
  -4.48999977       1.22623931E-06
  -4.48500013       1.26308998E-06
  -4.48000002       1.30100375E-06
  -4.47499990       1.34000982E-06
  -4.46999979       1.38013741E-06
  -4.46500015       1.42141835E-06
  -4.46000004       1.46388345E-06
  -4.45499992       1.50756568E-06
  -4.44999981       1.55249813E-06
  -4.44500017       1.59871490E-06
  -4.44000006       1.64625112E-06
  -4.43499994       1.69514237E-06
  -4.42999983       1.74542549E-06
  -4.42500019       1.79713868E-06
  -4.42000008       1.85032036E-06
  -4.41499996       1.90501055E-06
  -4.40999985       1.96124984E-06
  -4.40500021       2.01908006E-06
  -4.40000010       2.07854418E-06
  -4.39499998       2.13968519E-06
  -4.38999987       2.20254969E-06
  -4.38500023       2.26718339E-06
  -4.38000011       2.33363289E-06
  -4.37500000       2.40194777E-06
  -4.36999989       2.47217736E-06
  -4.36499977       2.54437259E-06
  -4.36000013       2.61858600E-06
  -4.35500002       2.69487191E-06
  -4.34999990       2.77328445E-06
  -4.34499979       2.85388046E-06
  -4.34000015       2.93671746E-06
  -4.33500004       3.02185481E-06
  -4.32999992       3.10935320E-06
  -4.32499981       3.19927540E-06
  -4.32000017       3.29168438E-06
  -4.31500006       3.38664586E-06
  -4.30999994       3.48422714E-06
  -4.30499983       3.58449665E-06
  -4.30000019       3.68752399E-06
  -4.29500008       3.79338235E-06
  -4.28999996       3.90214473E-06
  -4.28499985       4.01388706E-06
  -4.28000021       4.12868758E-06
  -4.27500010       4.24662448E-06
  -4.26999998       4.36778009E-06
  -4.26499987       4.49223717E-06
  -4.26000023       4.62008120E-06
  -4.25500011       4.75139905E-06
  -4.25000000       4.88628166E-06
  -4.24499989       5.02481998E-06
  -4.23999977       5.16710725E-06
  -4.23500013       5.31324167E-06
  -4.23000002       5.46331921E-06
  -4.22499990       5.61744264E-06
  -4.21999979       5.77571382E-06
  -4.21500015       5.93823961E-06
  -4.21000004       6.10512825E-06
  -4.20499992       6.27648978E-06
  -4.19999981       6.45243927E-06
  -4.19500017       6.63309083E-06
  -4.19000006       6.81856545E-06
  -4.18499994       7.00898408E-06
  -4.17999983       7.20447133E-06
  -4.17500019       7.40515497E-06
  -4.17000008       7.61116553E-06
  -4.16499996       7.82263669E-06
  -4.15999985       8.03970579E-06
  -4.15500021       8.26251380E-06
  -4.15000010       8.49120079E-06
  -4.14499998       8.72591681E-06
  -4.13999987       8.96680922E-06
  -4.13500023       9.21403443E-06
  -4.13000011       9.46774799E-06
  -4.12500000       9.72811085E-06
  -4.11999989       9.99528947E-06
  -4.11499977       1.02694476E-05
  -4.11000013       1.05507634E-05
  -4.10500002       1.08394097E-05
  -4.09999990       1.11355657E-05
  -4.09499979       1.14394197E-05
  -4.09000015       1.17511572E-05
  -4.08500004       1.20709701E-05
  -4.07999992       1.23990576E-05
  -4.07499981       1.27356216E-05
  -4.07000017       1.30808694E-05
  -4.06500006       1.34350084E-05
  -4.05999994       1.37982588E-05
  -4.05499983       1.41708379E-05
  -4.05000019       1.45529721E-05
  -4.04500008       1.49448933E-05
  -4.03999996       1.53468409E-05
  -4.03499985       1.57590475E-05
  -4.03000021       1.61817698E-05
  -4.02500010       1.66152495E-05
  -4.01999998       1.70597505E-05
  -4.01499987       1.75155346E-05
  -4.01000023       1.79828730E-05
  -4.00500011       1.84620421E-05
  -4.00000000       1.89533184E-05
  -3.99499989       1.94569930E-05
  -3.99000001       1.99733586E-05
  -3.98499990       2.05027154E-05
  -3.98000002       2.10453709E-05
  -3.97499990       2.16016379E-05
  -3.97000003       2.21718419E-05
  -3.96499991       2.27563032E-05
  -3.96000004       2.33553619E-05
  -3.95499992       2.39693527E-05
  -3.95000005       2.45986321E-05
  -3.94499993       2.52435548E-05
  -3.94000006       2.59044882E-05
  -3.93499994       2.65818035E-05
  -3.93000007       2.72758753E-05
  -3.92499995       2.79870983E-05
  -3.92000008       2.87158655E-05
  -3.91499996       2.94625861E-05
  -3.91000009       3.02276676E-05
  -3.90499997       3.10115465E-05
  -3.90000010       3.18146376E-05
  -3.89499998       3.26373956E-05
  -3.89000010       3.34802644E-05
  -3.88499999       3.43437023E-05
  -3.88000011       3.52281822E-05
  -3.87500000       3.61341808E-05
  -3.86999989       3.70621892E-05
  -3.86500001       3.80127021E-05
  -3.85999990       3.89862471E-05
  -3.85500002       3.99833261E-05
  -3.84999990       4.10044668E-05
  -3.84500003       4.20502256E-05
  -3.83999991       4.31211556E-05
  -3.83500004       4.42178134E-05
  -3.82999992       4.53407847E-05
  -3.82500005       4.64906479E-05
  -3.81999993       4.76680143E-05
  -3.81500006       4.88734950E-05
  -3.80999994       5.01076975E-05
  -3.80500007       5.13712839E-05
  -3.79999995       5.26648946E-05
  -3.79500008       5.39891917E-05
  -3.78999996       5.53448626E-05
  -3.78500009       5.67325878E-05
  -3.77999997       5.81530840E-05
  -3.77500010       5.96070531E-05
  -3.76999998       6.10952411E-05
  -3.76500010       6.26183974E-05
  -3.75999999       6.41773004E-05
  -3.75500011       6.57726923E-05
  -3.75000000       6.74054027E-05
  -3.74499989       6.90762172E-05
  -3.74000001       7.07859726E-05
  -3.73499990       7.25355130E-05
  -3.73000002       7.43256824E-05
  -3.72499990       7.61573683E-05
  -3.72000003       7.80314731E-05
  -3.71499991       7.99488844E-05
  -3.71000004       8.19105553E-05
  -3.70499992       8.39174172E-05
  -3.70000005       8.59704160E-05
  -3.69499993       8.80705993E-05
  -3.69000006       9.02188985E-05
  -3.68499994       9.24163687E-05
  -3.68000007       9.46640357E-05
  -3.67499995       9.69629837E-05
  -3.67000008       9.93142821E-05
  -3.66499996       1.01719030E-04
  -3.66000009       1.04178340E-04
  -3.65499997       1.06693369E-04
  -3.65000010       1.09265282E-04
  -3.64499998       1.11895271E-04
  -3.64000010       1.14584538E-04
  -3.63499999       1.17334319E-04
  -3.63000011       1.20145873E-04
  -3.62500000       1.23020494E-04
  -3.61999989       1.25959428E-04
  -3.61500001       1.28964079E-04
  -3.60999990       1.32035741E-04
  -3.60500002       1.35175826E-04
  -3.59999990       1.38385687E-04
  -3.59500003       1.41666809E-04
  -3.58999991       1.45020647E-04
  -3.58500004       1.48448671E-04
  -3.57999992       1.51952350E-04
  -3.57500005       1.55533256E-04
  -3.56999993       1.59192961E-04
  -3.56500006       1.62933022E-04
  -3.55999994       1.66755111E-04
  -3.55500007       1.70660860E-04
  -3.54999995       1.74651897E-04
  -3.54500008       1.78729984E-04
  -3.53999996       1.82896882E-04
  -3.53500009       1.87154306E-04
  -3.52999997       1.91504092E-04
  -3.52500010       1.95948072E-04
  -3.51999998       2.00488066E-04
  -3.51500010       2.05126038E-04
  -3.50999999       2.09863909E-04
  -3.50500011       2.14703658E-04
  -3.50000000       2.19647234E-04
  -3.49499989       2.24696720E-04
  -3.49000001       2.29854166E-04
  -3.48499990       2.35121741E-04
  -3.48000002       2.40501497E-04
  -3.47499990       2.45995703E-04
  -3.47000003       2.51606514E-04
  -3.46499991       2.57336214E-04
  -3.46000004       2.63187074E-04
  -3.45499992       2.69161450E-04
  -3.45000005       2.75261729E-04
  -3.44499993       2.81490356E-04
  -3.44000006       2.87849660E-04
  -3.43499994       2.94342259E-04
  -3.43000007       3.00970685E-04
  -3.42499995       3.07737442E-04
  -3.42000008       3.14645178E-04
  -3.41499996       3.21696600E-04
  -3.41000009       3.28894443E-04
  -3.40499997       3.36241414E-04
  -3.40000010       3.43740219E-04
  -3.39499998       3.51393974E-04
  -3.39000010       3.59205354E-04
  -3.38499999       3.67177301E-04
  -3.38000011       3.75312899E-04
  -3.37500000       3.83615232E-04
  -3.36999989       3.92087182E-04
  -3.36500001       4.00732097E-04
  -3.35999990       4.09553031E-04
  -3.35500002       4.18553333E-04
  -3.34999990       4.27736260E-04
  -3.34500003       4.37105045E-04
  -3.33999991       4.46663325E-04
  -3.33500004       4.56414244E-04
  -3.32999992       4.66361613E-04
  -3.32500005       4.76508780E-04
  -3.31999993       4.86859411E-04
  -3.31500006       4.97417175E-04
  -3.30999994       5.08185825E-04
  -3.30500007       5.19169145E-04
  -3.29999995       5.30371035E-04
  -3.29500008       5.41795278E-04
  -3.28999996       5.53445891E-04
  -3.28500009       5.65327005E-04
  -3.27999997       5.77442523E-04
  -3.27500010       5.89796749E-04
  -3.26999998       6.02393760E-04
  -3.26500010       6.15237979E-04
  -3.25999999       6.28333655E-04
  -3.25500011       6.41685096E-04
  -3.25000000       6.55296957E-04
  -3.24499989       6.69173663E-04
  -3.24000001       6.83319871E-04
  -3.23499990       6.97740295E-04
  -3.23000002       7.12439534E-04
  -3.22499990       7.27422477E-04
  -3.22000003       7.42694072E-04
  -3.21499991       7.58259033E-04
  -3.21000004       7.74122716E-04
  -3.20499992       7.90289894E-04
  -3.20000005       8.06765922E-04
  -3.19499993       8.23556096E-04
  -3.19000006       8.40665714E-04
  -3.18499994       8.58099898E-04
  -3.18000007       8.75864469E-04
  -3.17499995       8.93964781E-04
  -3.17000008       9.12406365E-04
  -3.16499996       9.31194925E-04
  -3.16000009       9.50336631E-04
  -3.15499997       9.69837129E-04
  -3.15000010       9.89702181E-04
  -3.14499998       1.00993773E-03
  -3.14000010       1.03055034E-03
  -3.13499999       1.05154596E-03
  -3.13000011       1.07293064E-03
  -3.12500000       1.09471101E-03
  -3.11999989       1.11689349E-03
  -3.11500001       1.13948446E-03
  -3.10999990       1.16249081E-03
  -3.10500002       1.18591869E-03
  -3.09999990       1.20977557E-03
  -3.09500003       1.23406807E-03
  -3.08999991       1.25880318E-03
  -3.08500004       1.28398777E-03
  -3.07999992       1.30962930E-03
  -3.07500005       1.33573462E-03
  -3.06999993       1.36231119E-03
  -3.06500006       1.38936692E-03
  -3.05999994       1.41690893E-03
  -3.05500007       1.44494476E-03
  -3.04999995       1.47348212E-03
  -3.04500008       1.50252890E-03
  -3.03999996       1.53209316E-03
  -3.03500009       1.56218314E-03
  -3.02999997       1.59280631E-03
  -3.02500010       1.62397127E-03
  -3.01999998       1.65568618E-03
  -3.01500010       1.68795965E-03
  -3.00999999       1.72079983E-03
  -3.00500011       1.75421603E-03
  -3.00000000       1.78821641E-03
  -2.99499989       1.82280981E-03
  -2.99000001       1.85800507E-03
  -2.98499990       1.89381151E-03
  -2.98000002       1.93023880E-03
  -2.97499990       1.96729461E-03
  -2.97000003       2.00498966E-03
  -2.96499991       2.04333337E-03
  -2.96000004       2.08233506E-03
  -2.95499992       2.12200405E-03
  -2.95000005       2.16235057E-03
  -2.94499993       2.20338418E-03
  -2.94000006       2.24511488E-03
  -2.93499994       2.28755339E-03
  -2.93000007       2.33070925E-03
  -2.92499995       2.37459340E-03
  -2.92000008       2.41921586E-03
  -2.91499996       2.46458710E-03
  -2.91000009       2.51071854E-03
  -2.90499997       2.55762017E-03
  -2.90000010       2.60530389E-03
  -2.89499998       2.65377969E-03
  -2.89000010       2.70305946E-03
  -2.88499999       2.75315414E-03
  -2.88000011       2.80407467E-03
  -2.87500000       2.85583362E-03
  -2.86999989       2.90844170E-03
  -2.86500001       2.96191103E-03
  -2.85999990       3.01625417E-03
  -2.85500002       3.07148183E-03
  -2.84999990       3.12760682E-03
  -2.84500003       3.18464125E-03
  -2.83999991       3.24259722E-03
  -2.83500004       3.30148777E-03
  -2.82999992       3.36132525E-03
  -2.82500005       3.42212198E-03
  -2.81999993       3.48389172E-03
  -2.81500006       3.54664633E-03
  -2.80999994       3.61039955E-03
  -2.80500007       3.67516419E-03
  -2.79999995       3.74095398E-03
  -2.79500008       3.80778243E-03
  -2.78999996       3.87566257E-03
  -2.78500009       3.94460745E-03
  -2.77999997       4.01463406E-03
  -2.77500010       4.08575218E-03
  -2.76999998       4.15797858E-03
  -2.76500010       4.23132582E-03
  -2.75999999       4.30581067E-03
  -2.75500011       4.38144477E-03
  -2.75000000       4.45824396E-03
  -2.74499989       4.53622267E-03
  -2.74000001       4.61539626E-03
  -2.73499990       4.69577825E-03
  -2.73000002       4.77738492E-03
  -2.72499990       4.86023212E-03
  -2.72000003       4.94433334E-03
  -2.71499991       5.02970582E-03
  -2.71000004       5.11636306E-03
  -2.70499992       5.20432182E-03
  -2.70000005       5.29359840E-03
  -2.69499993       5.38420817E-03
  -2.69000006       5.47616556E-03
  -2.68499994       5.56948921E-03
  -2.68000007       5.66419447E-03
  -2.67499995       5.76029671E-03
  -2.67000008       5.85781410E-03
  -2.66499996       5.95676200E-03
  -2.66000009       6.05715765E-03
  -2.65499997       6.15901779E-03
  -2.65000010       6.26235968E-03
  -2.64499998       6.36719959E-03
  -2.64000010       6.47355383E-03
  -2.63499999       6.58144243E-03
  -2.63000011       6.69088168E-03
  -2.62500000       6.80188788E-03
  -2.61999989       6.91448012E-03
  -2.61500001       7.02867564E-03
  -2.60999990       7.14449072E-03
  -2.60500002       7.26194680E-03
  -2.59999990       7.38105644E-03
  -2.59500003       7.50184525E-03
  -2.58999991       7.62432488E-03
  -2.58500004       7.74851814E-03
  -2.57999992       7.87444040E-03
  -2.57500005       8.00211169E-03
  -2.56999993       8.13154969E-03
  -2.56500006       8.26277584E-03
  -2.55999994       8.39580502E-03
  -2.55500007       8.53065867E-03
  -2.54999995       8.66735447E-03
  -2.54500008       8.80591385E-03
  -2.53999996       8.94635264E-03
  -2.53500009       9.08869412E-03
  -2.52999997       9.23295505E-03
  -2.52500010       9.37915500E-03
  -2.51999998       9.52731259E-03
  -2.51500010       9.67745017E-03
  -2.50999999       9.82958730E-03
  -2.50500011       9.98374075E-03
  -2.50000000       1.01399319E-02
  -2.49499989       1.02981823E-02
  -2.49000001       1.04585113E-02
  -2.48499990       1.06209358E-02
  -2.48000002       1.07854782E-02
  -2.47499990       1.09521607E-02
  -2.47000003       1.11210002E-02
  -2.46499991       1.12920208E-02
  -2.46000004       1.14652393E-02
  -2.45499992       1.16406763E-02
  -2.45000005       1.18183549E-02
  -2.44499993       1.19982939E-02
  -2.44000006       1.21805146E-02
  -2.43499994       1.23650348E-02
  -2.43000007       1.25518786E-02
  -2.42499995       1.27410674E-02
  -2.42000008       1.29326172E-02
  -2.41499996       1.31265521E-02
  -2.41000009       1.33228926E-02
  -2.40499997       1.35216583E-02
  -2.40000010       1.37228724E-02
  -2.39499998       1.39265545E-02
  -2.39000010       1.41327241E-02
  -2.38499999       1.43414019E-02
  -2.38000011       1.45526119E-02
  -2.37500000       1.47663699E-02
  -2.36999989       1.49827013E-02
  -2.36500001       1.52016263E-02
  -2.35999990       1.54231619E-02
  -2.35500002       1.56473368E-02
  -2.34999990       1.58741642E-02
  -2.34500003       1.61036644E-02
  -2.33999991       1.63358673E-02
  -2.33500004       1.65707860E-02
  -2.32999992       1.68084465E-02
  -2.32500005       1.70488618E-02
  -2.31999993       1.72920581E-02
  -2.31500006       1.75380521E-02
  -2.30999994       1.77868716E-02
  -2.30500007       1.80385299E-02
  -2.29999995       1.82930510E-02
  -2.29500008       1.85504574E-02
  -2.28999996       1.88107640E-02
  -2.28500009       1.90739911E-02
  -2.27999997       1.93401668E-02
  -2.27500010       1.96093041E-02
  -2.26999998       1.98814254E-02
  -2.26500010       2.01565512E-02
  -2.25999999       2.04346944E-02
  -2.25500011       2.07158867E-02
  -2.25000000       2.10001450E-02
  -2.24499989       2.12874785E-02
  -2.24000001       2.15779170E-02
  -2.23499990       2.18714736E-02
  -2.23000002       2.21681725E-02
  -2.22499990       2.24680323E-02
  -2.22000003       2.27710679E-02
  -2.21499991       2.30773017E-02
  -2.21000004       2.33867522E-02
  -2.20499992       2.36994382E-02
  -2.20000005       2.40153708E-02
  -2.19499993       2.43345816E-02
  -2.19000006       2.46570781E-02
  -2.18499994       2.49828808E-02
  -2.18000007       2.53120083E-02
  -2.17499995       2.56444793E-02
  -2.17000008       2.59803049E-02
  -2.16499996       2.63195094E-02
  -2.16000009       2.66621057E-02
  -2.15499997       2.70081200E-02
  -2.15000010       2.73575559E-02
  -2.14499998       2.77104359E-02
  -2.14000010       2.80667767E-02
  -2.13499999       2.84265932E-02
  -2.13000011       2.87898928E-02
  -2.12500000       2.91567016E-02
  -2.11999989       2.95270290E-02
  -2.11500001       2.99009010E-02
  -2.10999990       3.02783195E-02
  -2.10500002       3.06592993E-02
  -2.09999990       3.10438611E-02
  -2.09500003       3.14320102E-02
  -2.08999991       3.18237655E-02
  -2.08500004       3.22191417E-02
  -2.07999992       3.26181501E-02
  -2.07500005       3.30208018E-02
  -2.06999993       3.34271118E-02
  -2.06500006       3.38370875E-02
  -2.05999994       3.42507511E-02
  -2.05500007       3.46680991E-02
  -2.04999995       3.50891501E-02
  -2.04500008       3.55139188E-02
  -2.03999996       3.59424055E-02
  -2.03500009       3.63746248E-02
  -2.02999997       3.68105844E-02
  -2.02500010       3.72502990E-02
  -2.01999998       3.76937725E-02
  -2.01500010       3.81410159E-02
  -2.00999999       3.85920294E-02
  -2.00500011       3.90468352E-02
  -2.00000000       3.95054296E-02
  -1.99500000       3.99678163E-02
  -1.99000001       4.04340066E-02
  -1.98500001       4.09040116E-02
  -1.98000002       4.13778238E-02
  -1.97500002       4.18554619E-02
  -1.97000003       4.23369221E-02
  -1.96500003       4.28222083E-02
  -1.96000004       4.33113277E-02
  -1.95500004       4.38042767E-02
  -1.95000005       4.43010740E-02
  -1.94500005       4.48016971E-02
  -1.94000006       4.53061685E-02
  -1.93499994       4.58144695E-02
  -1.92999995       4.63266298E-02
  -1.92499995       4.68426272E-02
  -1.91999996       4.73624617E-02
  -1.91499996       4.78861369E-02
  -1.90999997       4.84136529E-02
  -1.90499997       4.89450023E-02
  -1.89999998       4.94801924E-02
  -1.89499998       5.00192046E-02
  -1.88999999       5.05620502E-02
  -1.88499999       5.11087067E-02
  -1.88000000       5.16591817E-02
  -1.87500000       5.22134714E-02
  -1.87000000       5.27715608E-02
  -1.86500001       5.33334538E-02
  -1.86000001       5.38991354E-02
  -1.85500002       5.44685945E-02
  -1.85000002       5.50418347E-02
  -1.84500003       5.56188263E-02
  -1.84000003       5.61995730E-02
  -1.83500004       5.67840710E-02
  -1.83000004       5.73722981E-02
  -1.82500005       5.79642430E-02
  -1.82000005       5.85598946E-02
  -1.81500006       5.91592304E-02
  -1.80999994       5.97622544E-02
  -1.80499995       6.03689589E-02
  -1.79999995       6.09793030E-02
  -1.79499996       6.15932755E-02
  -1.78999996       6.22108653E-02
  -1.78499997       6.28320575E-02
  -1.77999997       6.34568185E-02
  -1.77499998       6.40851483E-02
  -1.76999998       6.47170320E-02
  -1.76499999       6.53524324E-02
  -1.75999999       6.59913197E-02
  -1.75500000       6.66337013E-02
  -1.75000000       6.72795251E-02
  -1.74500000       6.79287836E-02
  -1.74000001       6.85814470E-02
  -1.73500001       6.92375004E-02
  -1.73000002       6.98968843E-02
  -1.72500002       7.05596209E-02
  -1.72000003       7.12256581E-02