  -6.00000000      -3.83556630E-13
  -5.99499989      -1.15575344E-12
  -5.98999977      -1.92816401E-12
  -5.98500013      -2.68110642E-12
  -5.98000002      -3.39564965E-12
  -5.97499990      -4.05419144E-12
  -5.96999979      -4.64099635E-12
  -5.96500015      -5.14267188E-12
  -5.96000004      -5.54856378E-12
  -5.95499992      -5.85107136E-12
  -5.94999981      -6.04585739E-12
  -5.94500017      -6.13195302E-12
  -5.94000006      -6.11176040E-12
  -5.93499994      -5.99094255E-12
  -5.92999983      -5.77821254E-12
  -5.92500019      -5.48502519E-12
  -5.92000008      -5.12518587E-12
  -5.91499996      -4.71438470E-12
  -5.90999985      -4.26967576E-12
  -5.90500021      -3.80891716E-12
  -5.90000010      -3.35018862E-12
  -5.89499998      -2.91120947E-12
  -5.88999987      -2.50877249E-12
  -5.88500023      -2.15821263E-12
  -5.88000011      -1.87292955E-12
  -5.87500000      -1.66397690E-12
  -5.86999989      -1.53973123E-12
  -5.86499977      -1.50565205E-12
  -5.86000013      -1.56413803E-12
  -5.85500002      -1.71448630E-12
  -5.84999990      -1.95295017E-12
  -5.84499979      -2.27289888E-12
  -5.84000015      -2.66506630E-12
  -5.83500004      -3.11788551E-12
  -5.82999992      -3.61789396E-12
  -5.82499981      -4.15019668E-12
  -5.82000017      -4.69897342E-12
  -5.81500006      -5.24800602E-12
  -5.80999994      -5.78121925E-12
  -5.80499983      -6.28321006E-12
  -5.80000019      -6.73974895E-12
  -5.79500008      -7.13823878E-12
  -5.78999996      -7.46811727E-12
  -5.78499985      -7.72119174E-12
  -5.78000021      -7.89188940E-12
  -5.77500010      -7.97742428E-12
  -5.76999998      -7.97787791E-12
  -5.76499987      -7.89617590E-12
  -5.76000023      -7.73798820E-12
  -5.75500011      -7.51152959E-12
  -5.75000000      -7.22729081E-12
  -5.74499989      -6.89770073E-12
  -5.73999977      -6.53672385E-12
  -5.73500013      -6.15942150E-12
  -5.73000002      -5.78148336E-12
  -5.72499990      -5.41874098E-12
  -5.71999979      -5.08669062E-12
  -5.71500015      -4.80002626E-12
  -5.71000004      -4.57220936E-12
  -5.70499992      -4.41508418E-12
  -5.69999981      -4.33854515E-12
  -5.69500017      -4.35027665E-12
  -5.69000006      -4.45556135E-12
  -5.68499994      -4.65717265E-12
  -5.67999983      -4.95534386E-12
  -5.67500019      -5.34781767E-12
  -5.67000008      -5.82997279E-12
  -5.66499996      -6.39502644E-12
  -5.65999985      -7.03429632E-12
  -5.65500021      -7.73752069E-12
  -5.65000010      -8.49322609E-12
  -5.64499998      -9.28911722E-12
  -5.63999987      -1.01124890E-11
  -5.63500023      -1.09506553E-11
  -5.63000011      -1.17913517E-11
  -5.62500000      -1.26231326E-11
  -5.61999989      -1.34357300E-11
  -5.61499977      -1.42203688E-11
  -5.61000013      -1.49700287E-11
  -5.60500002      -1.56796607E-11
  -5.59999990      -1.63463149E-11
  -5.59499979      -1.69692246E-11
  -5.59000015      -1.75498106E-11
  -5.58500004      -1.80916167E-11
  -5.57999992      -1.86001839E-11
  -5.57499981      -1.90828759E-11
  -5.57000017      -1.95486353E-11
  -5.56500006      -2.00077125E-11
  -5.55999994      -2.04713434E-11
  -5.55499983      -2.09514229E-11
  -5.55000019      -2.14601583E-11
  -5.54500008      -2.20097135E-11
  -5.53999996      -2.26118620E-11
  -5.53499985      -2.32776836E-11
  -5.53000021      -2.40172552E-11
  -5.52500010      -2.48394014E-11
  -5.51999998      -2.57514843E-11
  -5.51499987      -2.67592389E-11
  -5.51000023      -2.78666673E-11
  -5.50500011      -2.90759777E-11
  -5.50000000      -3.03875952E-11
  -5.49499989      -3.18002152E-11
  -5.48999977      -3.33109061E-11
  -5.48500013      -3.49152963E-11
  -5.48000002      -3.66077238E-11
  -5.47499990      -3.83814994E-11
  -5.46999979      -4.02291776E-11
  -5.46500015      -4.21428066E-11
  -5.46000004      -4.41142296E-11
  -5.45499992      -4.61353941E-11
  -5.44999981      -4.81985979E-11
  -5.44500017      -5.02967910E-11
  -5.44000006      -5.24237979E-11
  -5.43499994      -5.45745532E-11
  -5.42999983      -5.67452647E-11
  -5.42500019      -5.89335594E-11
  -5.42000008      -6.11385872E-11
  -5.41499996      -6.33610733E-11
  -5.40999985      -6.56033006E-11
  -5.40500021      -6.78691131E-11
  -5.40000010      -7.01638192E-11
  -5.39499998      -7.24940663E-11
  -5.38999987      -7.48676815E-11
  -5.38500023      -7.72935188E-11
  -5.38000011      -7.97812511E-11
  -5.37500000      -8.23411200E-11
  -5.36999989      -8.49837214E-11
  -5.36499977      -8.77197759E-11
  -5.36000013      -9.05598652E-11
  -5.35500002      -9.35142727E-11
  -5.34999990      -9.65927338E-11
  -5.34499979      -9.98042621E-11
  -5.34000015      -1.03157011E-10
  -5.33500004      -1.06658134E-10
  -5.32999992      -1.10313716E-10
  -5.32499981      -1.14128700E-10
  -5.32000017      -1.18106872E-10
  -5.31500006      -1.22250918E-10
  -5.30999994      -1.26562455E-10
  -5.30499983      -1.31042135E-10
  -5.30000019      -1.35689751E-10
  -5.29500008      -1.40504372E-10
  -5.28999996      -1.45484541E-10
  -5.28499985      -1.50628468E-10
  -5.28000021      -1.55934182E-10
  -5.27500010      -1.61399810E-10
  -5.26999998      -1.67023700E-10
  -5.26499987      -1.72804659E-10
  -5.26000023      -1.78742118E-10
  -5.25500011      -1.84836341E-10
  -5.25000000      -1.91088534E-10
  -5.24499989      -1.97500988E-10
  -5.23999977      -2.04077144E-10
  -5.23500013      -2.10821693E-10
  -5.23000002      -2.17740603E-10
  -5.22499990      -2.24841104E-10
  -5.21999979      -2.32131703E-10
  -5.21500015      -2.39622100E-10
  -5.21000004      -2.47323106E-10
  -5.20499992      -2.55246546E-10
  -5.19999981      -2.63405020E-10
  -5.19500017      -2.71811934E-10
  -5.19000006      -2.80481305E-10
  -5.18499994      -2.89427454E-10
  -5.17999983      -2.98664954E-10
  -5.17500019      -3.08208459E-10
  -5.17000008      -3.18072541E-10
  -5.16499996      -3.28271549E-10
  -5.15999985      -3.38819389E-10
  -5.15500021      -3.49729523E-10
  -5.15000010      -3.61014885E-10
  -5.14499998      -3.72687659E-10
  -5.13999987      -3.84759447E-10
  -5.13500023      -3.97241184E-10
  -5.13000011      -4.10143225E-10
  -5.12500000      -4.23475172E-10
  -5.11999989      -4.37246128E-10
  -5.11499977      -4.51464921E-10
  -5.11000013      -4.66139960E-10
  -5.10500002      -4.81279572E-10
  -5.09999990      -4.96892028E-10
  -5.09499979      -5.12985876E-10
  -5.09000015      -5.29569832E-10
  -5.08500004      -5.46653334E-10
  -5.07999992      -5.64246372E-10
  -5.07499981      -5.82359716E-10
  -5.07000017      -6.01005135E-10
  -5.06500006      -6.20195728E-10
  -5.05999994      -6.39945541E-10
  -5.05499983      -6.60270005E-10
  -5.05000019      -6.81185996E-10
  -5.04500008      -7.02711722E-10
  -5.03999996      -7.24866778E-10
  -5.03499985      -7.47672146E-10
  -5.03000021      -7.71150199E-10
  -5.02500010      -7.95324695E-10
  -5.01999998      -8.20220447E-10
  -5.01499987      -8.45863379E-10
  -5.01000023      -8.72280415E-10
  -5.00500011      -8.99499586E-10
  -5.00000000      -9.27549204E-10
  -4.99499989      -9.56458468E-10
  -4.98999977      -9.86256854E-10
  -4.98500013      -1.01697439E-09
  -4.98000002      -1.04864128E-09
  -4.97499990      -1.08128784E-09
  -4.96999979      -1.11494391E-09
  -4.96500015      -1.14964005E-09
  -4.96000004      -1.18540622E-09
  -4.95499992      -1.22227284E-09
  -4.94999981      -1.26027000E-09
  -4.94500017      -1.29942757E-09
  -4.94000006      -1.33977562E-09
  -4.93499994      -1.38134448E-09
  -4.92999983      -1.42416456E-09
  -4.92500019      -1.46826684E-09
  -4.92000008      -1.51368273E-09
  -4.91499996      -1.56044455E-09
  -4.90999985      -1.60858538E-09
  -4.90500021      -1.65813918E-09
  -4.90000010      -1.70914083E-09
  -4.89499998      -1.76162729E-09
  -4.88999987      -1.81563675E-09
  -4.88500023      -1.87120897E-09
  -4.88000011      -1.92838523E-09
  -4.87500000      -1.98720929E-09
  -4.86999989      -2.04772665E-09
  -4.86499977      -2.10998463E-09
  -4.86000013      -2.17403251E-09
  -4.85500002      -2.23992203E-09
  -4.84999990      -2.30770714E-09
  -4.84499979      -2.37744358E-09
  -4.84000015      -2.44918841E-09
  -4.83500004      -2.52300181E-09
  -4.82999992      -2.59894506E-09
  -4.82499981      -2.67708122E-09
  -4.82000017      -2.75747447E-09
  -4.81500006      -2.84019142E-09
  -4.80999994      -2.92530022E-09
  -4.80499983      -3.01286884E-09
  -4.80000019      -3.10296788E-09
  -4.79500008      -3.19566884E-09
  -4.78999996      -3.29104322E-09
  -4.78499985      -3.38916517E-09
  -4.78000021      -3.49010953E-09
  -4.77500010      -3.59395136E-09
  -4.76999998      -3.70076703E-09
  -4.76499987      -3.81063492E-09
  -4.76000023      -3.92363386E-09
  -4.75500011      -4.03984401E-09
  -4.75000000      -4.15934798E-09
  -4.74499989      -4.28222968E-09
  -4.73999977      -4.40857439E-09
  -4.73500013      -4.53846916E-09
  -4.73000002      -4.67200367E-09
  -4.72499990      -4.80927032E-09
  -4.71999979      -4.95036367E-09
  -4.71500015      -5.09538101E-09
  -4.71000004      -5.24442312E-09
  -4.70499992      -5.39759260E-09
  -4.69999981      -5.55499513E-09
  -4.69500017      -5.71674219E-09
  -4.69000006      -5.88294613E-09
  -4.68499994      -6.05372419E-09
  -4.67999983      -6.22919760E-09
  -4.67500019      -6.40948983E-09
  -4.67000008      -6.59472921E-09
  -4.66499996      -6.78504630E-09
  -4.65999985      -6.98057612E-09
  -4.65500021      -7.18145809E-09
  -4.65000010      -7.38783479E-09
  -4.64499998      -7.59985141E-09
  -4.63999987      -7.81765941E-09
  -4.63500023      -8.04141198E-09
  -4.63000011      -8.27126367E-09
  -4.62500000      -8.50737347E-09
  -4.61999989      -8.74990569E-09
  -4.61499977      -8.99902641E-09
  -4.61000013      -9.25490529E-09
  -4.60500002      -9.51771284E-09
  -4.59999990      -9.78762671E-09
  -4.59499979      -1.00648263E-08
  -4.59000015      -1.03494964E-08
  -4.58500004      -1.06418208E-08
  -4.57999992      -1.09419913E-08
  -4.57499981      -1.12502025E-08
  -4.57000017      -1.15666525E-08
  -4.56500006      -1.18915411E-08
  -4.55999994      -1.22250770E-08
  -4.55499983      -1.25674724E-08
  -4.55000019      -1.29189441E-08
  -4.54500008      -1.32797133E-08
  -4.53999996      -1.36500065E-08
  -4.53499985      -1.40300545E-08
  -4.53000021      -1.44200998E-08
  -4.52500010      -1.48203885E-08
  -4.51999998      -1.52311639E-08
  -4.51499987      -1.56526863E-08
  -4.51000023      -1.60852167E-08
  -4.50500011      -1.65290288E-08
  -4.50000000      -1.69843979E-08
  -4.49499989      -1.74516099E-08
  -4.48999977      -1.79309527E-08
  -4.48500013      -1.84227282E-08
  -4.48000002      -1.89272384E-08
  -4.47499990      -1.94447907E-08
  -4.46999979      -1.99757046E-08
  -4.46500015      -2.05203072E-08
  -4.46000004      -2.10789359E-08
  -4.45499992      -2.16519283E-08
  -4.44999981      -2.22396306E-08
  -4.44500017      -2.28423964E-08
  -4.44000006      -2.34605935E-08
  -4.43499994      -2.40945912E-08
  -4.42999983      -2.47447662E-08
  -4.42500019      -2.54115005E-08
  -4.42000008      -2.60951865E-08
  -4.41499996      -2.67962257E-08
  -4.40999985      -2.75150303E-08
  -4.40500021      -2.82520123E-08
  -4.40000010      -2.90075999E-08
  -4.39499998      -2.97822300E-08
  -4.38999987      -3.05763415E-08
  -4.38500023      -3.13903890E-08
  -4.38000011      -3.22248326E-08
  -4.37500000      -3.30801377E-08
  -4.36999989      -3.39567983E-08
  -4.36499977      -3.48552973E-08
  -4.36000013      -3.57761323E-08
  -4.35500002      -3.67198147E-08
  -4.34999990      -3.76868670E-08
  -4.34499979      -3.86778360E-08
  -4.34000015      -3.96932620E-08
  -4.33500004      -4.07337026E-08
  -4.32999992      -4.17997299E-08
  -4.32499981      -4.28919193E-08
  -4.32000017      -4.40108678E-08
  -4.31500006      -4.51571900E-08
  -4.30999994      -4.63315040E-08
  -4.30499983      -4.75344422E-08
  -4.30000019      -4.87666618E-08
  -4.29500008      -5.00288166E-08
  -4.28999996      -5.13215745E-08
  -4.28499985      -5.26456425E-08
  -4.28000021      -5.40017169E-08
  -4.27500010      -5.53905117E-08
  -4.26999998      -5.68127589E-08
  -4.26499987      -5.82691975E-08
  -4.26000023      -5.97605947E-08
  -4.25500011      -6.12877145E-08
  -4.25000000      -6.28513490E-08
  -4.24499989      -6.44523155E-08
  -4.23999977      -6.60914168E-08
  -4.23500013      -6.77694985E-08
  -4.23000002      -6.94874274E-08
  -4.22499990      -7.12460491E-08
  -4.21999979      -7.30462446E-08
  -4.21500015      -7.48889306E-08
  -4.21000004      -7.67750095E-08
  -4.20499992      -7.87054120E-08
  -4.19999981      -8.06810831E-08
  -4.19500017      -8.27030178E-08
  -4.19000006      -8.47721893E-08
  -4.18499994      -8.68895924E-08
  -4.17999983      -8.90562717E-08
  -4.17500019      -9.12732787E-08
  -4.17000008      -9.35416864E-08
  -4.16499996      -9.58625535E-08
  -4.15999985      -9.82369954E-08
  -4.15500021      -1.00666171E-07
  -4.15000010      -1.03151194E-07
  -4.14499998      -1.05693253E-07
  -4.13999987      -1.08293513E-07
  -4.13500023      -1.10953202E-07
  -4.13000011      -1.13673565E-07
  -4.12500000      -1.16455880E-07
  -4.11999989      -1.19301433E-07
  -4.11499977      -1.22211517E-07
  -4.11000013      -1.25187498E-07
  -4.10500002      -1.28230695E-07
  -4.09999990      -1.31342503E-07
  -4.09499979      -1.34524313E-07
  -4.09000015      -1.37777604E-07
  -4.08500004      -1.41103797E-07
  -4.07999992      -1.44504384E-07
  -4.07499981      -1.47980899E-07
  -4.07000017      -1.51534849E-07
  -4.06500006      -1.55167811E-07
  -4.05999994      -1.58881349E-07
  -4.05499983      -1.62677097E-07
  -4.05000019      -1.66556717E-07
  -4.04500008      -1.70521844E-07
  -4.03999996      -1.74574211E-07
  -4.03499985      -1.78715538E-07
  -4.03000021      -1.82947574E-07
  -4.02500010      -1.87272093E-07
  -4.01999998      -1.91690916E-07
  -4.01499987      -1.96205932E-07
  -4.01000023      -2.00819002E-07
  -4.00500011      -2.05532032E-07
  -4.00000000      -2.10346954E-07
  -3.99499989      -2.15265743E-07
  -3.99000001      -2.20290389E-07
  -3.98499990      -2.25422937E-07
  -3.98000002      -2.30665478E-07
  -3.97499990      -2.36020071E-07
  -3.97000003      -2.41488948E-07
  -3.96499991      -2.47074297E-07
  -3.96000004      -2.52778250E-07
  -3.95499992      -2.58603080E-07
  -3.95000005      -2.64551176E-07
  -3.94499993      -2.70624724E-07
  -3.94000006      -2.76826114E-07
  -3.93499994      -2.83157817E-07
  -3.93000007      -2.89622278E-07
  -3.92499995      -2.96221913E-07
  -3.92000008      -3.02959279E-07
  -3.91499996      -3.09836878E-07
  -3.91000009      -3.16857324E-07
  -3.90499997      -3.24023262E-07
  -3.90000010      -3.31337361E-07
  -3.89499998      -3.38802295E-07
  -3.89000010      -3.46420933E-07
  -3.88499999      -3.54196089E-07
  -3.88000011      -3.62130550E-07
  -3.87500000      -3.70227156E-07
  -3.86999989      -3.78488835E-07
  -3.86500001      -3.86918657E-07
  -3.85999990      -3.95519521E-07
  -3.85500002      -4.04294553E-07
  -3.84999990      -4.13246823E-07
  -3.84500003      -4.22379429E-07
  -3.83999991      -4.31695554E-07
  -3.83500004      -4.41198381E-07
  -3.82999992      -4.50891207E-07
  -3.82500005      -4.60777443E-07
  -3.81999993      -4.70860527E-07
  -3.81500006      -4.81143729E-07
  -3.80999994      -4.91630715E-07
  -3.80500007      -5.02324838E-07
  -3.79999995      -5.13229566E-07
  -3.79500008      -5.24348650E-07
  -3.78999996      -5.35685729E-07
  -3.78500009      -5.47244667E-07
  -3.77999997      -5.59029161E-07
  -3.77500010      -5.71043017E-07
  -3.76999998      -5.83290330E-07
  -3.76500010      -5.95774736E-07
  -3.75999999      -6.08500102E-07
  -3.75500011      -6.21470633E-07
  -3.75000000      -6.34690593E-07
  -3.74499989      -6.48163905E-07
  -3.74000001      -6.61894887E-07
  -3.73499990      -6.75887577E-07
  -3.73000002      -6.90146294E-07
  -3.72499990      -7.04675358E-07
  -3.72000003      -7.19479317E-07
  -3.71499991      -7.34562718E-07
  -3.71000004      -7.49929995E-07
  -3.70499992      -7.65585582E-07
  -3.70000005      -7.81534141E-07
  -3.69499993      -7.97780388E-07
  -3.69000006      -8.14329212E-07
  -3.68499994      -8.31185332E-07
  -3.68000007      -8.48353750E-07
  -3.67499995      -8.65839411E-07
  -3.67000008      -8.83647033E-07
  -3.66499996      -9.01781618E-07
  -3.66000009      -9.20248169E-07
  -3.65499997      -9.39051972E-07
  -3.65000010      -9.58198257E-07
  -3.64499998      -9.77692366E-07
  -3.64000010      -9.97539928E-07
  -3.63499999      -1.01774617E-06
  -3.63000011      -1.03831610E-06
  -3.62500000      -1.05925528E-06
  -3.61999989      -1.08056929E-06
  -3.61500001      -1.10226381E-06
  -3.60999990      -1.12434452E-06
  -3.60500002      -1.14681734E-06
  -3.59999990      -1.16968761E-06
  -3.59500003      -1.19296158E-06
  -3.58999991      -1.21664527E-06
  -3.58500004      -1.24074427E-06
  -3.57999992      -1.26526504E-06
  -3.57500005      -1.29021328E-06
  -3.56999993      -1.31559557E-06
  -3.56500006      -1.34141817E-06
  -3.55999994      -1.36768745E-06
  -3.55500007      -1.39440942E-06
  -3.54999995      -1.42159013E-06
  -3.54500008      -1.44923649E-06
  -3.53999996      -1.47735523E-06
  -3.53500009      -1.50595281E-06
  -3.52999997      -1.53503549E-06
  -3.52500010      -1.56460999E-06
  -3.51999998      -1.59468357E-06
  -3.51500010      -1.62526339E-06
  -3.50999999      -1.65635538E-06
  -3.50500011      -1.68796680E-06
  -3.50000000      -1.72010459E-06
  -3.49499989      -1.75277614E-06
  -3.49000001      -1.78598862E-06
  -3.48499990      -1.81974895E-06
  -3.48000002      -1.85406475E-06
  -3.47499990      -1.88894285E-06
  -3.47000003      -1.92439052E-06
  -3.46499991      -1.96041537E-06
  -3.46000004      -1.99702504E-06
  -3.45499992      -2.03422633E-06
  -3.45000005      -2.07202720E-06
  -3.44499993      -2.11043516E-06
  -3.44000006      -2.14945794E-06
  -3.43499994      -2.18910372E-06
  -3.43000007      -2.22938024E-06
  -3.42499995      -2.27029545E-06
  -3.42000008      -2.31185663E-06
  -3.41499996      -2.35407151E-06
  -3.41000009      -2.39694805E-06
  -3.40499997      -2.44049534E-06
  -3.40000010      -2.48472111E-06
  -3.39499998      -2.52963332E-06
  -3.39000010      -2.57523948E-06
  -3.38499999      -2.62154913E-06
  -3.38000011      -2.66857069E-06
  -3.37500000      -2.71631234E-06
  -3.36999989      -2.76478295E-06
  -3.36500001      -2.81399002E-06
  -3.35999990      -2.86394265E-06
  -3.35500002      -2.91464812E-06
  -3.34999990      -2.96611483E-06
  -3.34500003      -3.01835234E-06
  -3.33999991      -3.07136816E-06
  -3.33500004      -3.12517136E-06
  -3.32999992      -3.17977151E-06
  -3.32500005      -3.23517679E-06
  -3.31999993      -3.29139607E-06
  -3.31500006      -3.34843912E-06
  -3.30999994      -3.40631277E-06
  -3.30500007      -3.46502748E-06
  -3.29999995      -3.52459165E-06
  -3.29500008      -3.58501256E-06
  -3.28999996      -3.64630159E-06
  -3.28500009      -3.70846601E-06
  -3.27999997      -3.77151446E-06
  -3.27500010      -3.83545830E-06
  -3.26999998      -3.90030709E-06
  -3.26500010      -3.96606902E-06
  -3.25999999      -4.03275362E-06
  -3.25500011      -4.10036910E-06
  -3.25000000      -4.16892453E-06
  -3.24499989      -4.23842766E-06
  -3.24000001      -4.30888667E-06
  -3.23499990      -4.38031338E-06
  -3.23000002      -4.45271689E-06
  -3.22499990      -4.52610630E-06
  -3.22000003      -4.60048841E-06
  -3.21499991      -4.67587552E-06
  -3.21000004      -4.75227534E-06
  -3.20499992      -4.82969335E-06
  -3.20000005      -4.90814182E-06
  -3.19499993      -4.98763302E-06
  -3.19000006      -5.06817332E-06
  -3.18499994      -5.14977182E-06
  -3.18000007      -5.23243898E-06
  -3.17499995      -5.31618434E-06
  -3.17000008      -5.40101428E-06
  -3.16499996      -5.48693743E-06
  -3.16000009      -5.57396697E-06
  -3.15499997      -5.66211156E-06
  -3.15000010      -5.75137983E-06
  -3.14499998      -5.84177951E-06
  -3.14000010      -5.93331833E-06
  -3.13499999      -6.02600812E-06
  -3.13000011      -6.11985661E-06
  -3.12500000      -6.21487015E-06
  -3.11999989      -6.31105740E-06
  -3.11500001      -6.40842927E-06
  -3.10999990      -6.50699667E-06
  -3.10500002      -6.60676687E-06
  -3.09999990      -6.70774671E-06
  -3.09500003      -6.80994526E-06
  -3.08999991      -6.91337209E-06
  -3.08500004      -7.01803719E-06
  -3.07999992      -7.12394740E-06
  -3.07500005      -7.23110634E-06
  -3.06999993      -7.33952629E-06
  -3.06500006      -7.44921681E-06
  -3.05999994      -7.56018790E-06
  -3.05500007      -7.67244637E-06
  -3.04999995      -7.78599860E-06
  -3.04500008      -7.90085505E-06
  -3.03999996      -8.01702117E-06
  -3.03500009      -8.13450879E-06
  -3.02999997      -8.25332063E-06
  -3.02500010      -8.37346306E-06
  -3.01999998      -8.49494882E-06
  -3.01500010      -8.61778153E-06
  -3.00999999      -8.74196849E-06
  -3.00500011      -8.86752150E-06
  -3.00000000      -8.99445240E-06
  -2.99499989      -9.12276300E-06
  -2.99000001      -9.25245513E-06
  -2.98499990      -9.38353696E-06
  -2.98000002      -9.51602306E-06
  -2.97499990      -9.64992159E-06
  -2.97000003      -9.78523349E-06
  -2.96499991      -9.92196601E-06
  -2.96000004      -1.00601228E-05
  -2.95499992      -1.01997130E-05
  -2.95000005      -1.03407356E-05
  -2.94499993      -1.04832006E-05
  -2.94000006      -1.06271145E-05
  -2.93499994      -1.07724845E-05
  -2.93000007      -1.09193152E-05
  -2.92499995      -1.10676110E-05
  -2.92000008      -1.12173802E-05
  -2.91499996      -1.13686301E-05
  -2.91000009      -1.15213597E-05
  -2.90499997      -1.16755773E-05
  -2.90000010      -1.18312873E-05
  -2.89499998      -1.19884908E-05
  -2.89000010      -1.21472003E-05
  -2.88499999      -1.23074224E-05
  -2.88000011      -1.24691596E-05
  -2.87500000      -1.26324121E-05
  -2.86999989      -1.27971871E-05
  -2.86500001      -1.29634936E-05
  -2.85999990      -1.31313363E-05
  -2.85500002      -1.33007097E-05
  -2.84999990      -1.34716120E-05
  -2.84500003      -1.36440540E-05
  -2.83999991      -1.38180385E-05
  -2.83500004      -1.39935664E-05
  -2.82999992      -1.41706405E-05
  -2.82500005      -1.43492662E-05
  -2.81999993      -1.45294462E-05
  -2.81500006      -1.47111732E-05
  -2.80999994      -1.48944600E-05
  -2.80500007      -1.50793148E-05
  -2.79999995      -1.52657303E-05
  -2.79500008      -1.54537065E-05
  -2.78999996      -1.56432525E-05
  -2.78500009      -1.58343701E-05
  -2.77999997      -1.60270592E-05
  -2.77500010      -1.62213055E-05
  -2.76999998      -1.64171142E-05
  -2.76500010      -1.66145091E-05
  -2.75999999      -1.68134738E-05
  -2.75500011      -1.70139974E-05
  -2.75000000      -1.72160908E-05
  -2.74499989      -1.74197594E-05
  -2.74000001      -1.76250032E-05
  -2.73499990      -1.78318132E-05
  -2.73000002      -1.80401912E-05
  -2.72499990      -1.82501553E-05
  -2.72000003      -1.84617038E-05
  -2.71499991      -1.86748057E-05
  -2.71000004      -1.88894683E-05
  -2.70499992      -1.91057170E-05
  -2.70000005      -1.93235483E-05
  -2.69499993      -1.95429348E-05
  -2.69000006      -1.97638747E-05
  -2.68499994      -1.99863825E-05
  -2.68000007      -2.02104493E-05
  -2.67499995      -2.04360895E-05
  -2.67000008      -2.06632903E-05
  -2.66499996      -2.08920465E-05
  -2.66000009      -2.11223760E-05
  -2.65499997      -2.13542644E-05
  -2.65000010      -2.15876989E-05
  -2.64499998      -2.18226614E-05
  -2.64000010      -2.20591555E-05
  -2.63499999      -2.22972030E-05
  -2.63000011      -2.25368040E-05
  -2.62500000      -2.27779601E-05
  -2.61999989      -2.30206515E-05
  -2.61500001      -2.32648708E-05
  -2.60999990      -2.35106036E-05
  -2.60500002      -2.37578697E-05
  -2.59999990      -2.40066620E-05
  -2.59500003      -2.42569822E-05
  -2.58999991      -2.45088395E-05
  -2.58500004      -2.47622029E-05
  -2.57999992      -2.50170942E-05
  -2.57500005      -2.52734953E-05
  -2.56999993      -2.55314098E-05
  -2.56500006      -2.57908359E-05
  -2.55999994      -2.60517463E-05
  -2.55500007      -2.63141537E-05
  -2.54999995      -2.65780709E-05
  -2.54500008      -2.68435288E-05
  -2.53999996      -2.71104946E-05
  -2.53500009      -2.73789246E-05
  -2.52999997      -2.76488263E-05
  -2.52500010      -2.79202250E-05
  -2.51999998      -2.81931225E-05
  -2.51500010      -2.84675298E-05
  -2.50999999      -2.87434104E-05
  -2.50500011      -2.90207408E-05
  -2.50000000      -2.92995774E-05
  -2.49499989      -2.95799273E-05
  -2.49000001      -2.98617215E-05
  -2.48499990      -3.01449745E-05
  -2.48000002      -3.04297428E-05
  -2.47499990      -3.07160044E-05
  -2.47000003      -3.10037249E-05
  -2.46499991      -3.12929224E-05
  -2.46000004      -3.15836223E-05
  -2.45499992      -3.18758030E-05
  -2.45000005      -3.21694242E-05
  -2.44499993      -3.24645007E-05
  -2.44000006      -3.27610469E-05
  -2.43499994      -3.30590628E-05
  -2.43000007      -3.33586031E-05
  -2.42499995      -3.36596531E-05
  -2.42000008      -3.39621947E-05
  -2.41499996      -3.42662279E-05
  -2.41000009      -3.45717781E-05
  -2.40499997      -3.48788672E-05
  -2.40000010      -3.51875351E-05
  -2.39499998      -3.54977346E-05
  -2.39000010      -3.58094476E-05
  -2.38499999      -3.61227285E-05
  -2.38000011      -3.64375810E-05
  -2.37500000      -3.67540051E-05
  -2.36999989      -3.70720190E-05
  -2.36500001      -3.73916337E-05
  -2.35999990      -3.77128454E-05
  -2.35500002      -3.80356869E-05
  -2.34999990      -3.83601437E-05
  -2.34500003      -3.86861902E-05
  -2.33999991      -3.90139176E-05
  -2.33500004      -3.93433365E-05
  -2.32999992      -3.96743962E-05
  -2.32500005      -4.00071476E-05
  -2.31999993      -4.03416198E-05
  -2.31500006      -4.06777908E-05
  -2.30999994      -4.10157008E-05
  -2.30500007      -4.13554226E-05
  -2.29999995      -4.16969233E-05
  -2.29500008      -4.20402175E-05
  -2.28999996      -4.23853853E-05
  -2.28500009      -4.27323976E-05
  -2.27999997      -4.30812506E-05
  -2.27500010      -4.34320755E-05
  -2.26999998      -4.37849340E-05
  -2.26500010      -4.41397679E-05
  -2.25999999      -4.44965881E-05
  -2.25500011      -4.48554492E-05
  -2.25000000      -4.52163731E-05
  -2.24499989      -4.55794398E-05
  -2.24000001      -4.59447219E-05
  -2.23499990      -4.63121687E-05
  -2.23000002      -4.66818456E-05
  -2.22499990      -4.70537925E-05
  -2.22000003      -4.74281369E-05
  -2.21499991      -4.78048896E-05
  -2.21000004      -4.81840143E-05
  -2.20499992      -4.85656528E-05
  -2.20000005      -4.89497579E-05
  -2.19499993      -4.93364132E-05
  -2.19000006      -4.97257279E-05
  -2.18499994      -5.01177274E-05
  -2.18000007      -5.05124590E-05
  -2.17499995      -5.09099118E-05
  -2.17000008      -5.13102241E-05
  -2.16499996      -5.17135231E-05
  -2.16000009      -5.21197435E-05
  -2.15499997      -5.25290161E-05
  -2.15000010      -5.29414901E-05
  -2.14499998      -5.33571292E-05
  -2.14000010      -5.37760097E-05
  -2.13499999      -5.41983027E-05
  -2.13000011      -5.46240663E-05
  -2.12500000      -5.50533914E-05
  -2.11999989      -5.54862709E-05
  -2.11500001      -5.59227665E-05
  -2.10999990      -5.63631111E-05
  -2.10500002      -5.68073192E-05
  -2.09999990      -5.72555109E-05
  -2.09500003      -5.77077699E-05
  -2.08999991      -5.81641070E-05
  -2.08500004      -5.86247843E-05
  -2.07999992      -5.90898380E-05
  -2.07500005      -5.95592246E-05
  -2.06999993      -6.00331077E-05
  -2.06500006      -6.05116984E-05
  -2.05999994      -6.09950876E-05
  -2.05500007      -6.14834207E-05
  -2.04999995      -6.19768325E-05
  -2.04500008      -6.24753229E-05
  -2.03999996      -6.29789502E-05
  -2.03500009      -6.34880562E-05
  -2.02999997      -6.40027283E-05
  -2.02500010      -6.45229084E-05
  -2.01999998      -6.50488437E-05
  -2.01500010      -6.55807526E-05
  -2.00999999      -6.61188387E-05
  -2.00500011      -6.66631968E-05
  -2.00000000      -6.72139649E-05
  -1.99500000      -6.77712233E-05
  -1.99000001      -6.83352991E-05
  -1.98500001      -6.89062654E-05
  -1.98000002      -6.94841874E-05
  -1.97500002      -7.00693199E-05
  -1.97000003      -7.06618303E-05
  -1.96500003      -7.12620313E-05
  -1.96000004      -7.18701049E-05
  -1.95500004      -7.24861893E-05
  -1.95000005      -7.31102627E-05
  -1.94500005      -7.37425798E-05
  -1.94000006      -7.43834389E-05
  -1.93499994      -7.50330801E-05
  -1.92999995      -7.56917871E-05
  -1.92499995      -7.63594871E-05
  -1.91999996      -7.70363549E-05
  -1.91499996      -7.77227979E-05
  -1.90999997      -7.84190488E-05
  -1.90499997      -7.91250786E-05
  -1.89999998      -7.98410183E-05
  -1.89499998      -8.05672535E-05
  -1.88999999      -8.13040460E-05
  -1.88499999      -8.20515270E-05
  -1.88000000      -8.28100237E-05
  -1.87500000      -8.35800311E-05
  -1.87000000      -8.43617090E-05
  -1.86500001      -8.51553268E-05
  -1.86000001      -8.59611173E-05
  -1.85500002      -8.67793424E-05
  -1.85000002      -8.76101694E-05
  -1.84500003      -8.84538531E-05
  -1.84000003      -8.93108809E-05
  -1.83500004      -9.01813401E-05
  -1.83000004      -9.10655144E-05
  -1.82500005      -9.19638478E-05
  -1.82000005      -9.28767768E-05
  -1.81500006      -9.38043304E-05
  -1.80999994      -9.47466106E-05
  -1.80499995      -9.57040320E-05
  -1.79999995      -9.66770021E-05
  -1.79499996      -9.76659940E-05
  -1.78999996      -9.86713567E-05
  -1.78499997      -9.96932577E-05
  -1.77999997      -1.00731893E-04
  -1.77499998      -1.01787940E-04
  -1.76999998      -1.02861355E-04
  -1.76499999      -1.03952247E-04
  -1.75999999      -1.05061205E-04
  -1.75500000      -1.06188541E-04
  -1.75000000      -1.07334701E-04
  -1.74500000      -1.08500040E-04
  -1.74000001      -1.09684901E-04
  -1.73500001      -1.10889552E-04
  -1.73000002      -1.12114212E-04
  -1.72500002      -1.13359434E-04
  -1.72000003      -1.14625742E-04