  -6.00000000       0.00000000    
  -5.99499989       0.00000000    
  -5.98999977       0.00000000    
  -5.98500013       0.00000000    
  -5.98000002       0.00000000    
  -5.97499990       0.00000000    
  -5.96999979      -0.00000000    
  -5.96500015       8.70172805E-37
  -5.96000004       1.50296265E-35
  -5.95499992       1.29169863E-34
  -5.94999981       7.75009303E-34
  -5.94500017       3.66773339E-33
  -5.94000006       1.45676502E-32
  -5.93499994       5.03826400E-32
  -5.92999983       1.55661583E-31
  -5.92500019       4.37658646E-31
  -5.92000008       1.13542965E-30
  -5.91499996       2.74742539E-30
  -5.90999985       6.25362092E-30
  -5.90500021       1.34819038E-29
  -5.90000010       2.76827994E-29
  -5.89499998       5.43887190E-29
  -5.88999987       1.02639222E-28
  -5.88500023       1.86646024E-28
  -5.88000011       3.27942175E-28
  -5.87500000       5.57999201E-28
  -5.86999989       9.21194248E-28
  -5.86499977       1.47785281E-27
  -5.86000013       2.30688139E-27
  -5.85500002       3.50721896E-27
  -5.84999990       5.19700216E-27
  -5.84499979       7.50894663E-27
  -5.84000015       1.05800430E-26
  -5.83500004       1.45332769E-26
  -5.82999992       1.94487694E-26
  -5.82499981       2.53216354E-26
  -5.82000017       3.20038928E-26
  -5.81500006       3.91283329E-26
  -5.80999994       4.60131688E-26
  -5.80499983       5.15478724E-26
  -5.80000019       5.40628442E-26
  -5.79500008       5.11886788E-26
  -5.78999996       3.97144165E-26
  -5.78499985       1.54588804E-26
  -5.78000021      -2.68258591E-26
  -5.77500010      -9.34944078E-26
  -5.76999998      -1.91961524E-25
  -5.76499987      -3.30534716E-25
  -5.76000023      -5.18087949E-25
  -5.75500011      -7.63537385E-25
  -5.75000000      -1.07508035E-24
  -5.74499989      -1.45916529E-24
  -5.73999977      -1.91917098E-24
  -5.73500013      -2.45378399E-24
  -5.73000002      -3.05509282E-24
  -5.72499990      -3.70643456E-24
  -5.71999979      -4.38007366E-24
  -5.71500015      -5.03482426E-24
  -5.71000004      -5.61377599E-24
  -5.70499992      -6.04232349E-24
  -5.69999981      -6.22675325E-24
  -5.69500017      -6.05367559E-24
  -5.69000006      -5.39062538E-24
  -5.68499994      -4.08817658E-24
  -5.67999983      -1.98391793E-24
  -5.67500019       1.09138689E-24
  -5.67000008       5.30517439E-24
  -5.66499996       1.08118057E-23
  -5.65999985       1.77385582E-23
  -5.65500021       2.61689743E-23
  -5.65000010       3.61238341E-23
  -5.64499998       4.75402828E-23
  -5.63999987       6.02498449E-23
  -5.63500023       7.39563914E-23
  -5.63000011       8.82154246E-23
  -5.62500000       1.02416152E-22
  -5.61999989       1.15768392E-22
  -5.61499977       1.27296174E-22
  -5.61000013       1.35840295E-22
  -5.60500002       1.40071897E-22
  -5.59999990       1.38519254E-22
  -5.59499979       1.29609367E-22
  -5.59000015       1.11725916E-22
  -5.58500004       8.32841163E-23
  -5.57999992       4.28224938E-23
  -5.57499981      -1.08894478E-23
  -5.57000017      -7.87299087E-23
  -5.56500006      -1.61093235E-22
  -5.55999994      -2.57752942E-22
  -5.55499983      -3.67725555E-22
  -5.55000019      -4.89142582E-22
  -5.54500008      -6.19139589E-22
  -5.53999996      -7.53771817E-22
  -5.53499985      -8.87966271E-22
  -5.53000021      -1.01552182E-21
  -5.52500010      -1.12916596E-21
  -5.51999998      -1.22067837E-21
  -5.51499987      -1.28108840E-21
  -5.51000023      -1.30095134E-21
  -5.50500011      -1.27070603E-21
  -5.50000000      -1.18111183E-21
  -5.49499989      -1.02375687E-21
  -5.48999977      -7.91629618E-22
  -5.48500013      -4.79733150E-22
  -5.48000002      -8.57233247E-23
  -5.47499990       3.89459973E-22
  -5.46999979       9.40998423E-22
  -5.46500015       1.55967570E-21
  -5.46000004       2.23147318E-21
  -5.45499992       2.93731977E-21
  -5.44999981       3.65304082E-21
  -5.44500017       4.34954063E-21
  -5.44000006       4.99325557E-21
  -5.43499994       5.54690194E-21
  -5.42999983       5.97053796E-21
  -5.42500019       6.22294114E-21
  -5.42000008       6.26329366E-21
  -5.41499996       6.05314778E-21
  -5.40999985       5.55862019E-21
  -5.40500021       4.75276089E-21
  -5.40000010       3.61800480E-21
  -5.39499998       2.14860831E-21
  -5.38999987       3.52953585E-22
  -5.38500023      -1.74441547E-21
  -5.38000011      -4.10115663E-21
  -5.37500000      -6.65604370E-21
  -5.36999989      -9.32856652E-21
  -5.36499977      -1.20193544E-20
  -5.36000013      -1.46115235E-20
  -5.35500002      -1.69730579E-20
  -5.34999990      -1.89602511E-20
  -5.34499979      -2.04222508E-20
  -5.34000015      -2.12066507E-20
  -5.33500004      -2.11660526E-20
  -5.32999992      -2.01654468E-20
  -5.32499981      -1.80902154E-20
  -5.32000017      -1.48544868E-20
  -5.31500006      -1.04095292E-20
  -5.30999994      -4.75180810E-21
  -5.30499983       2.06968021E-21
  -5.30000019       9.94726046E-21
  -5.29500008       1.87100322E-20
  -5.28999996       2.81213717E-20
  -5.28499985       3.78789008E-20
  -5.28000021       4.76172562E-20
  -5.27500010       5.69139682E-20
  -5.26999998       6.52986457E-20
  -5.26499987       7.22654839E-20
  -5.26000023       7.72891780E-20
  -5.25500011       7.98438025E-20
  -5.25000000       7.94245576E-20
  -5.24499989       7.55716602E-20
  -5.23999977       6.78957278E-20
  -5.23500013       5.61038352E-20
  -5.23000002       4.00252213E-20
  -5.22499990       1.96355601E-20
  -5.21999979      -4.92139789E-21
  -5.21500015      -3.33160498E-20
  -5.21000004      -6.50202671E-20
  -5.20499992      -9.93009452E-20
  -5.19999981      -1.35220869E-19
  -5.19500017      -1.71647797E-19
  -5.19000006      -2.07272423E-19
  -5.18499994      -2.40635500E-19
  -5.17999983      -2.70164426E-19
  -5.17500019      -2.94218605E-19
  -5.17000008      -3.11143315E-19
  -5.16499996      -3.19330646E-19
  -5.15999985      -3.17286088E-19
  -5.15500021      -3.03698690E-19
  -5.15000010      -2.77512814E-19
  -5.14499998      -2.37998577E-19
  -5.13999987      -1.84818257E-19
  -5.13500023      -1.18085461E-19
  -5.13000011      -3.84143323E-20
  -5.12500000       5.30445530E-20
  -5.11999989       1.54584146E-19
  -5.11499977       2.63939504E-19
  -5.11000013       3.78306762E-19
  -5.10500002       4.94384294E-19
  -5.09999990       6.08436370E-19
  -5.09499979       7.16379821E-19
  -5.09000015       8.13892731E-19
  -5.08500004       8.96542809E-19
  -5.07999992       9.59933485E-19
  -5.07499981       9.99863458E-19
  -5.07000017       1.01249585E-18
  -5.06500006       9.94530521E-19
  -5.05999994       9.43374570E-19
  -5.05499983       8.57304307E-19
  -5.05000019       7.35611512E-19
  -5.04500008       5.78727506E-19
  -5.03999996       3.88318672E-19
  -5.03499985       1.67346160E-19
  -5.03000021      -7.99139965E-20
  -5.02500010      -3.47896630E-19
  -5.01999998      -6.29820540E-19
  -5.01499987      -9.17812207E-19
  -5.01000023      -1.20307847E-18
  -5.00500011      -1.47612779E-18
  -5.00000000      -1.72703618E-18
  -4.99499989      -1.94575090E-18
  -4.98999977      -2.12242572E-18
  -4.98500013      -2.24777812E-18
  -4.98000002      -2.31345688E-18
  -4.97499990      -2.31240925E-18
  -4.96999979      -2.23923251E-18
  -4.96500015      -2.09049861E-18
  -4.96000004      -1.86503544E-18
  -4.95499992      -1.56415408E-18
  -4.94999981      -1.19180772E-18
  -4.94500017      -7.54671097E-19
  -4.94000006      -2.62132140E-19
  -4.93499994       2.73810328E-19
  -4.92999983       8.38748630E-19
  -4.92500019       1.41616723E-18
  -4.92000008       1.98783992E-18
  -4.91499996       2.53431658E-18
  -4.90999985       3.03549187E-18
  -4.90500021       3.47123697E-18
  -4.90000010       3.82208439E-18
  -4.89499998       4.06993789E-18
  -4.88999987       4.19879443E-18
  -4.88500023       4.19544435E-18
  -4.88000011       4.05013022E-18
  -4.87500000       3.75713665E-18
  -4.86999989       3.31528923E-18
  -4.86499977       2.72833055E-18
  -4.86000013       2.00516253E-18
  -4.85500002       1.15992870E-18
  -4.84999990       2.11926620E-19
  -4.84499979      -8.14659114E-19
  -4.84000015      -1.89120764E-18
  -4.83500004      -2.98529338E-18
  -4.82999992      -4.06148865E-18
  -4.82499981      -5.08232383E-18
  -4.82000017      -6.00938112E-18
  -4.81500006      -6.80449608E-18
  -4.80999994      -7.43103494E-18
  -4.80499983      -7.85520654E-18
  -4.80000019      -8.04737052E-18
  -4.79500008      -7.98329794E-18
  -4.78999996      -7.64534006E-18
  -4.78499985      -7.02345575E-18
  -4.78000021      -6.11606385E-18
  -4.77500010      -4.93067391E-18
  -4.76999998      -3.48426052E-18
  -4.76499987      -1.80336003E-18
  -4.76000023       7.61366310E-20
  -4.75500011       2.10950929E-18
  -4.75000000       4.24404700E-18
  -4.74499989       6.42019334E-18
  -4.73999977       8.57298920E-18
  -4.73500013       1.06337749E-17
  -4.73000002       1.25321081E-17
  -4.72499990       1.41978670E-17
  -4.71999979       1.55634595E-17
  -4.71500015       1.65660950E-17
  -4.71000004       1.71500415E-17
  -4.70499992       1.72687800E-17
  -4.69999981       1.68870212E-17
  -4.69500017       1.59824612E-17
  -4.69000006       1.45472598E-17
  -4.68499994       1.25891364E-17
  -4.67999983       1.01320485E-17
  -4.67500019       7.21641548E-18
  -4.67000008       3.89882979E-18
  -4.66499996       2.51264202E-19
  -4.65999985      -3.64024279E-18
  -4.65500021      -7.67740406E-18
  -4.65000010      -1.17519775E-17
  -4.64499998      -1.57484965E-17
  -4.63999987      -1.95473482E-17
  -4.63500023      -2.30281607E-17
  -4.63000011      -2.60733864E-17
  -4.62500000      -2.85719863E-17
  -4.61999989      -3.04231140E-17
  -4.61499977      -3.15396688E-17
  -4.61000013      -3.18516284E-17
  -4.60500002      -3.13090343E-17
  -4.59999990      -2.98845102E-17
  -4.59499979      -2.75752320E-17
  -4.59000015      -2.44042600E-17
  -4.58500004      -2.04211504E-17
  -4.57999992      -1.57017988E-17
  -4.57499981      -1.03474893E-17
  -4.57000017      -4.48311750E-18
  -4.56500006       1.74536598E-18
  -4.55999994       8.17428401E-18
  -4.55499983       1.46262605E-17
  -4.55000019       2.09148350E-17
  -4.54500008       2.68495994E-17
  -4.53999996       3.22416838E-17
  -4.53499985       3.69094772E-17
  -4.53000021       4.06844020E-17
  -4.52500010       4.34165729E-17
  -4.51999998       4.49801792E-17
  -4.51499987       4.52784043E-17
  -4.51000023       4.42477240E-17
  -4.50500011       4.18613873E-17
  -4.50000000       3.81320038E-17
  -4.49499989       3.31130722E-17
  -4.48999977       2.68993527E-17
  -4.48500013       1.96260346E-17
  -4.48000002       1.14666647E-17
  -4.47499990       2.62981831E-18
  -4.46999979      -6.64540567E-18
  -4.46500015      -1.60950454E-17
  -4.46000004      -2.54369288E-17
  -4.45499992      -3.43781920E-17
  -4.44999981      -4.26234920E-17
  -4.44500017      -4.98836827E-17
  -4.44000006      -5.58847192E-17
  -4.43499994      -6.03765548E-17
  -4.42999983      -6.31417997E-17
  -4.42500019      -6.40037749E-17
  -4.42000008      -6.28337709E-17
  -4.41499996      -5.95573151E-17
  -4.40999985      -5.41590583E-17
  -4.40500021      -4.66861995E-17
  -4.40000010      -3.72502525E-17
  -4.39499998      -2.60269882E-17
  -4.38999987      -1.32545064E-17
  -4.38500023       7.70626429E-19
  -4.38000011       1.56991187E-17
  -4.37500000       3.11365275E-17
  -4.36999989       4.66525167E-17
  -4.36499977       6.17916028E-17
  -4.36000013       7.60851779E-17
  -4.35500002       8.90644424E-17
  -4.34999990       1.00273984E-16
  -4.34499979       1.09285667E-16
  -4.34000015       1.15712311E-16
  -4.33500004       1.19220946E-16
  -4.32999992       1.19544949E-16
  -4.32499981       1.16495049E-16
  -4.32000017       1.09968402E-16
  -4.31500006       9.99557905E-17
  -4.30999994       8.65463259E-17
  -4.30499983       6.99295380E-17
  -4.30000019       5.03947347E-17
  -4.29500008       2.83274221E-17
  -4.28999996       4.20278930E-18
  -4.28499985      -2.14236801E-17
  -4.28000021      -4.79283270E-17
  -4.27500010      -7.46339259E-17
  -4.26999998      -1.00826507E-16
  -4.26499987      -1.25773911E-16
  -4.26000023      -1.48745815E-16
  -4.25500011      -1.69034398E-16
  -4.25000000      -1.85975388E-16
  -4.24499989      -1.98968701E-16
  -4.23999977      -2.07498111E-16
  -4.23500013      -2.11149300E-16
  -4.23000002      -2.09625884E-16
  -4.22499990      -2.02762535E-16
  -4.21999979      -1.90534953E-16
  -4.21500015      -1.73066142E-16
  -4.21000004      -1.50628782E-16
  -4.20499992      -1.23643279E-16
  -4.19999981      -9.26715123E-17
  -4.19500017      -5.84063098E-17
  -4.19000006      -2.16565976E-17
  -4.18499994       1.66713091E-17
  -4.17999983       5.55959273E-17
  -4.17500019       9.40859382E-17
  -4.17000008       1.31087891E-16
  -4.16499996       1.65555581E-16
  -4.15999985       1.96480356E-16
  -4.15500021       2.22921496E-16
  -4.15000010       2.44035592E-16
  -4.14499998       2.59104255E-16
  -4.13999987       2.67559391E-16
  -4.13500023       2.69004509E-16
  -4.13000011       2.63232217E-16
  -4.12500000       2.50236482E-16
  -4.11999989       2.30219638E-16
  -4.11499977       2.03593541E-16
  -4.11000013       1.70974130E-16
  -4.10500002       1.33170348E-16
  -4.09999990       9.11666127E-17
  -4.09499979       4.60995001E-17
  -4.09000015      -7.70791245E-19
  -4.08500004      -4.80937036E-17
  -4.07999992      -9.44654355E-17
  -4.07499981      -1.38468976E-16
  -4.07000017      -1.78715879E-16
  -4.06500006      -2.13888525E-16
  -4.05999994      -2.42781983E-16
  -4.05499983      -2.64343816E-16
  -4.05000019      -2.77710551E-16
  -4.04500008      -2.82240007E-16
  -4.03999996      -2.77537942E-16
  -4.03499985      -2.63478280E-16
  -4.03000021      -2.40215765E-16
  -4.02500010      -2.08191024E-16
  -4.01999998      -1.68126855E-16
  -4.01499987      -1.21015968E-16
  -4.01000023      -6.81002975E-17
  -4.00500011      -1.08420374E-17
  -4.00000000       4.91128662E-17
  -3.99499989       1.09978017E-16
  -3.99000001       1.69875660E-16
  -3.98499990       2.26890163E-16
  -3.98000002       2.79124276E-16
  -3.97499990       3.24757011E-16
  -3.97000003       3.62101000E-16
  -3.96499991       3.89657893E-16
  -3.96000004       4.06170006E-16
  -3.95499992       4.10666031E-16
  -3.95000005       4.02500422E-16
  -3.94499993       3.81383811E-16
  -3.94000006       3.47403866E-16
  -3.93499994       3.01035827E-16
  -3.93000007       2.43141363E-16
  -3.92499995       1.74956151E-16
  -3.92000008       9.80659475E-17
  -3.91499996       1.43712788E-17
  -3.91000009      -7.39582847E-17
  -3.90499997      -1.64539340E-16
  -3.90000010      -2.54837883E-16
  -3.89499998      -3.42239136E-16
  -3.89000010      -4.24121732E-16
  -3.88499999      -4.97934724E-16
  -3.88000011      -5.61274365E-16
  -3.87500000      -6.11959440E-16
  -3.86999989      -6.48101701E-16
  -3.86500001      -6.68170135E-16
  -3.85999990      -6.71046553E-16
  -3.85500002      -6.56070534E-16
  -3.84999990      -6.23071930E-16
  -3.84500003      -5.72390508E-16
  -3.83999991      -5.04880553E-16
  -3.83500004      -4.21900732E-16
  -3.82999992      -3.25288869E-16
  -3.82500005      -2.17321854E-16
  -3.81999993      -1.00661826E-16
  -3.81500006       2.17104967E-17
  -3.80999994       1.46573638E-16
  -3.80500007       2.70552144E-16
  -3.79999995       3.90210106E-16
  -3.79500008       5.02148924E-16
  -3.78999996       6.03105934E-16
  -3.78500009       6.90052278E-16
  -3.77999997       7.60285444E-16
  -3.77500010       8.11515268E-16
  -3.76999998       8.41939050E-16
  -3.76500010       8.50305194E-16
  -3.75999999       8.35961221E-16
  -3.75500011       7.98886218E-16
  -3.75000000       7.39704767E-16
  -3.74499989       6.59682759E-16
  -3.74000001       5.60704471E-16
  -3.73499990       4.45231063E-16
  -3.73000002       3.16240889E-16
  -3.72499990       1.77153817E-16
  -3.72000003       3.17411833E-17
  -3.71499991      -1.15976836E-16
  -3.71000004      -2.61842845E-16
  -3.70499992      -4.01680361E-16
  -3.70000005      -5.31414707E-16
  -3.69499993      -6.47193258E-16
  -3.69000006      -7.45502337E-16
  -3.68499994      -8.23275155E-16
  -3.68000007      -8.77989990E-16
  -3.67499995      -9.07753881E-16
  -3.67000008      -9.11369229E-16
  -3.66499996      -8.88381708E-16
  -3.66000009      -8.39107525E-16
  -3.65499997      -7.64638135E-16
  -3.65000010      -6.66822929E-16
  -3.64499998      -5.48228893E-16
  -3.64000010      -4.12078855E-16
  -3.63499999      -2.62169403E-16
  -3.63000011      -1.02770673E-16
  -3.62500000       6.14899531E-17
  -3.61999989       2.25756303E-16
  -3.61500001       3.85081030E-16
  -3.60999990       5.34568687E-16
  -3.60500002       6.69519300E-16
  -3.59999990       7.85569696E-16
  -3.59500003       8.78826805E-16
  -3.58999991       9.45990112E-16
  -3.58500004       9.84459067E-16
  -3.57999992       9.92422235E-16
  -3.57500005       9.68925647E-16
  -3.56999993       9.13916045E-16
  -3.56500006       8.28260103E-16
  -3.55999994       7.13738072E-16
  -3.55500007       5.73009424E-16
  -3.54999995       4.09553638E-16
  -3.54500008       2.27586344E-16
  -3.53999996       3.19525941E-17
  -3.53500009      -1.71999225E-16
  -3.52999997      -3.78560173E-16
  -3.52500010      -5.81816079E-16
  -3.51999998      -7.75811188E-16
  -3.51500010      -9.54715505E-16
  -3.50999999      -1.11299134E-15
  -3.50500011      -1.24555316E-15
  -3.50000000      -1.34791805E-15
  -3.49499989      -1.41634084E-15
  -3.49000001      -1.44792977E-15
  -3.48499990      -1.44073941E-15
  -3.48000002      -1.39383803E-15
  -3.47499990      -1.30734845E-15
  -3.47000003      -1.18245715E-15
  -3.46499991      -1.02139415E-15
  -3.46000004      -8.27383424E-16
  -3.45499992      -6.04563360E-16
  -3.45000005      -3.57880552E-16
  -3.44499993      -9.29592587E-17
  -3.44000006       1.84050241E-16
  -3.43499994       4.66640456E-16
  -3.43000007       7.48127980E-16
  -3.42499995       1.02184191E-15
  -3.42000008       1.28131383E-15
  -3.41499996       1.52046564E-15
  -3.41000009       1.73378740E-15
  -3.40499997       1.91650225E-15
  -3.40000010       2.06471205E-15
  -3.39499998       2.17551857E-15
  -3.39000010       2.24712018E-15
  -3.38499999       2.27887586E-15
  -3.38000011       2.27133769E-15
  -3.37500000       2.22625098E-15
  -3.36999989       2.14651595E-15
  -3.36500001       2.03612067E-15
  -3.35999990       1.90003911E-15
  -3.35500002       1.74409992E-15
  -3.34999990       1.57482917E-15
  -3.34500003       1.39927027E-15
  -3.33999991       1.22478709E-15
  -3.33500004       1.05885418E-15
  -3.32999992       9.08841683E-16
  -3.32500005       7.81800081E-16
  -3.31999993       6.84249679E-16
  -3.31500006       6.21983493E-16
  -3.30999994       5.99887209E-16
  -3.30500007       6.21782429E-16
  -3.29999995       6.90298130E-16
  -3.29500008       8.06773842E-16
  -3.28999996       9.71197707E-16
  -3.28500009       1.18218271E-15
  -3.27999997       1.43698081E-15
  -3.27500010       1.73153662E-15
  -3.26999998       2.06057769E-15
  -3.26500010       2.41774310E-15
  -3.25999999       2.79573960E-15
  -3.25500011       3.18653202E-15
  -3.25000000       3.58155430E-15
  -3.24499989       3.97193824E-15
  -3.24000001       4.34875567E-15
  -3.23499990       4.70326437E-15
  -3.23000002       5.02715282E-15
  -3.22499990       5.31277445E-15
  -3.22000003       5.55337162E-15
  -3.21499991       5.74327175E-15
  -3.21000004       5.87805756E-15
  -3.20499992       5.95470726E-15
  -3.20000005       5.97169409E-15
  -3.19499993       5.92904810E-15
  -3.19000006       5.82837399E-15
  -3.18499994       5.67282486E-15
  -3.18000007       5.46703609E-15
  -3.17499995       5.21701484E-15
  -3.17000008       4.92998798E-15
  -3.16499996       4.61422003E-15
  -3.16000009       4.27879794E-15
  -3.15499997       3.93339146E-15
  -3.15000010       3.58799430E-15
  -3.14499998       3.25265819E-15
  -3.14000010       2.93721825E-15
  -3.13499999       2.65102466E-15
  -3.13000011       2.40268858E-15
  -3.12500000       2.19984282E-15
  -3.11999989       2.04893119E-15
  -3.11500001       1.95502933E-15
  -3.10999990       1.92170431E-15
  -3.10500002       1.95091233E-15
  -3.09999990       2.04294648E-15
  -3.09500003       2.19643034E-15
  -3.08999991       2.40835459E-15
  -3.08500004       2.67416581E-15
  -3.07999992       2.98789771E-15
  -3.07500005       3.34234627E-15
  -3.06999993       3.72927854E-15
  -3.06500006       4.13967278E-15
  -3.05999994       4.56398547E-15
  -3.05500007       4.99243718E-15
  -3.04999995       5.41529974E-15
  -3.04500008       5.82319312E-15
  -3.03999996       6.20737211E-15
  -3.03500009       6.55999828E-15
  -3.02999997       6.87438557E-15
  -3.02500010       7.14521927E-15
  -3.01999998       7.36873517E-15
  -3.01500010       7.54286058E-15
  -3.00999999       7.66730497E-15
  -3.00500011       7.74360146E-15
  -3.00000000       7.77510008E-15
  -2.99499989       7.76690588E-15
  -2.99000001       7.72576718E-15
  -2.98499990       7.65992138E-15
  -2.98000002       7.57889506E-15
  -2.97499990       7.49325833E-15
  -2.97000003       7.41436399E-15
  -2.96499991       7.35404508E-15
  -2.96000004       7.32430660E-15
  -2.95499992       7.33700617E-15
  -2.95000005       7.40353806E-15
  -2.94499993       7.53452239E-15
  -2.94000006       7.73951622E-15
  -2.93499994       8.02675018E-15
  -2.93000007       8.40290311E-15
  -2.92499995       8.87291407E-15
  -2.92000008       9.43984169E-15
  -2.91499996       1.01047727E-14
  -2.91000009       1.08667839E-14
  -2.90499997       1.17229656E-14
  -2.90000010       1.26684890E-14
  -2.89499998       1.36967345E-14
  -2.89000010       1.47994715E-14
  -2.88499999       1.59670810E-14
  -2.88000011       1.71888125E-14
  -2.87500000       1.84530905E-14
  -2.86999989       1.97478244E-14
  -2.86500001       2.10607543E-14
  -2.85999990       2.23797997E-14
  -2.85500002       2.36934021E-14
  -2.84999990       2.49908516E-14
  -2.84500003       2.62626157E-14
  -2.83999991       2.75006153E-14
  -2.83500004       2.86984825E-14
  -2.82999992       2.98517552E-14
  -2.82500005       3.09580547E-14
  -2.81999993       3.20171712E-14
  -2.81500006       3.30311170E-14
  -2.80999994       3.40041207E-14
  -2.80500007       3.49425587E-14
  -2.79999995       3.58548166E-14
  -2.79500008       3.67511265E-14
  -2.78999996       3.76433300E-14
  -2.78500009       3.85446070E-14
  -2.77999997       3.94691638E-14
  -2.77500010       4.04318980E-14
  -2.76999998       4.14480597E-14
  -2.76500010       4.25328718E-14
  -2.75999999       4.37011504E-14
  -2.75500011       4.49669768E-14
  -2.75000000       4.63433409E-14
  -2.74499989       4.78418540E-14
  -2.74000001       4.94724602E-14
  -2.73499990       5.12432300E-14
  -2.73000002       5.31601605E-14
  -2.72499990       5.52270801E-14
  -2.72000003       5.74455712E-14
  -2.71499991       5.98149934E-14
  -2.71000004       6.23325447E-14
  -2.70499992       6.49933801E-14
  -2.70000005       6.77908115E-14
  -2.69499993       7.07165107E-14
  -2.69000006       7.37608284E-14
  -2.68499994       7.69131259E-14
  -2.68000007       8.01620936E-14
  -2.67499995       8.34961508E-14
  -2.67000008       8.69038457E-14
  -2.66499996       9.03742210E-14
  -2.66000009       9.38972072E-14
  -2.65499997       9.74640087E-14
  -2.65000010       1.01067382E-13
  -2.64499998       1.04701973E-13
  -2.64000010       1.08364550E-13
  -2.63499999       1.12054199E-13
  -2.63000011       1.15772436E-13
  -2.62500000       1.19523274E-13
  -2.61999989       1.23313266E-13
  -2.61500001       1.27151395E-13
  -2.60999990       1.31048899E-13
  -2.60500002       1.35019207E-13
  -2.59999990       1.39077538E-13
  -2.59500003       1.43240658E-13
  -2.58999991       1.47526576E-13
  -2.58500004       1.51954065E-13
  -2.57999992       1.56542300E-13
  -2.57500005       1.61310472E-13
  -2.56999993       1.66277324E-13
  -2.56500006       1.71460787E-13
  -2.55999994       1.76877501E-13
  -2.55500007       1.82542593E-13
  -2.54999995       1.88469303E-13
  -2.54500008       1.94668717E-13
  -2.53999996       2.01149617E-13
  -2.53500009       2.07918332E-13
  -2.52999997       2.14978670E-13
  -2.52500010       2.22332027E-13
  -2.51999998       2.29977387E-13
  -2.51500010       2.37911497E-13
  -2.50999999       2.46129153E-13
  -2.50500011       2.54623498E-13
  -2.50000000       2.63386345E-13
  -2.49499989       2.72408669E-13
  -2.49000001       2.81680956E-13
  -2.48499990       2.91193718E-13
  -2.48000002       3.00937958E-13
  -2.47499990       3.10905625E-13
  -2.47000003       3.21090133E-13
  -2.46499991       3.31486710E-13
  -2.46000004       3.42092836E-13
  -2.45499992       3.52908647E-13
  -2.45000005       3.63937071E-13
  -2.44499993       3.75184177E-13
  -2.44000006       3.86659373E-13
  -2.43499994       3.98375289E-13
  -2.43000007       4.10347890E-13
  -2.42499995       4.22596284E-13
  -2.42000008       4.35142617E-13
  -2.41499996       4.48011799E-13
  -2.41000009       4.61231205E-13
  -2.40499997       4.74830190E-13
  -2.40000010       4.88839817E-13
  -2.39499998       5.03292178E-13
  -2.39000010       5.18220070E-13
  -2.38499999       5.33656507E-13
  -2.38000011       5.49634123E-13
  -2.37500000       5.66184794E-13
  -2.36999989       5.83339041E-13
  -2.36500001       6.01125811E-13
  -2.35999990       6.19571994E-13
  -2.35500002       6.38701982E-13
  -2.34999990       6.58537840E-13
  -2.34500003       6.79099138E-13
  -2.33999991       7.00402518E-13
  -2.33500004       7.22461912E-13
  -2.32999992       7.45288759E-13
  -2.32500005       7.68892166E-13
  -2.31999993       7.93279179E-13
  -2.31500006       8.18455221E-13
  -2.30999994       8.44424248E-13
  -2.30500007       8.71189568E-13
  -2.29999995       8.98753999E-13
  -2.29500008       9.27120360E-13
  -2.28999996       9.56292662E-13
  -2.28500009       9.86275623E-13
  -2.27999997       1.01707607E-12
  -2.27500010       1.04870257E-12
  -2.26999998       1.08116684E-12
  -2.26500010       1.11448318E-12
  -2.25999999       1.14866948E-12
  -2.25500011       1.18374722E-12
  -2.25000000       1.21974121E-12
  -2.24499989       1.25668052E-12
  -2.24000001       1.29459757E-12
  -2.23499990       1.33352834E-12
  -2.23000002       1.37351296E-12
  -2.22499990       1.41459392E-12
  -2.22000003       1.45681698E-12
  -2.21499991       1.50023050E-12
  -2.21000004       1.54488477E-12
  -2.20499992       1.59083174E-12
  -2.20000005       1.63812464E-12
  -2.19499993       1.68681735E-12
  -2.19000006       1.73696398E-12
  -2.18499994       1.78861841E-12
  -2.18000007       1.84183354E-12
  -2.17499995       1.89666186E-12
  -2.17000008       1.95315378E-12
  -2.16499996       2.01135940E-12
  -2.16000009       2.07132553E-12
  -2.15499997       2.13309817E-12
  -2.15000010       2.19672089E-12
  -2.14499998       2.26223597E-12
  -2.14000010       2.32968332E-12
  -2.13499999       2.39910218E-12
  -2.13000011       2.47053051E-12
  -2.12500000       2.54400494E-12
  -2.11999989       2.61956234E-12
  -2.11500001       2.69723957E-12
  -2.10999990       2.77707436E-12
  -2.10500002       2.85910531E-12
  -2.09999990       2.94337233E-12
  -2.09500003       3.02991725E-12
  -2.08999991       3.11878561E-12
  -2.08500004       3.21002578E-12
  -2.07999992       3.30368849E-12
  -2.07500005       3.39982925E-12
  -2.06999993       3.49850747E-12
  -2.06500006       3.59978670E-12
  -2.05999994       3.70373567E-12
  -2.05500007       3.81042723E-12
  -2.04999995       3.91993859E-12
  -2.04500008       4.03235128E-12
  -2.03999996       4.14775202E-12
  -2.03500009       4.26623147E-12
  -2.02999997       4.38788285E-12
  -2.02500010       4.51280419E-12
  -2.01999998       4.64109567E-12
  -2.01500010       4.77286179E-12
  -2.00999999       4.90820752E-12
  -2.00500011       5.04724040E-12
  -2.00000000       5.19006929E-12
  -1.99500000       5.33680435E-12
  -1.99000001       5.48755659E-12
  -1.98500001       5.64243834E-12
  -1.98000002       5.80156019E-12
  -1.97500002       5.96503272E-12
  -1.97000003       6.13296783E-12
  -1.96500003       6.30547481E-12
  -1.96000004       6.48266553E-12
  -1.95500004       6.66465060E-12
  -1.95000005       6.85154104E-12
  -1.94500005       7.04344612E-12
  -1.94000006       7.24047731E-12
  -1.93499994       7.44274607E-12
  -1.92999995       7.65036645E-12
  -1.92499995       7.86345208E-12
  -1.91999996       8.08212178E-12
  -1.91499996       8.30649351E-12
  -1.90999997       8.53669132E-12
  -1.90499997       8.77284096E-12
  -1.89999998       9.01507428E-12
  -1.89499998       9.26352571E-12
  -1.88999999       9.51833490E-12
  -1.88499999       9.77964758E-12
  -1.88000000       1.00476147E-11
  -1.87500000       1.03223922E-11
  -1.87000000       1.06041434E-11
  -1.86500001       1.08930365E-11
  -1.86000001       1.11892422E-11
  -1.85500002       1.14929437E-11
  -1.85000002       1.18043292E-11
  -1.84500003       1.21235895E-11
  -1.84000003       1.24509231E-11
  -1.83500004       1.27865340E-11
  -1.83000004       1.31306294E-11
  -1.82500005       1.34834227E-11
  -1.82000005       1.38451342E-11
  -1.81500006       1.42159878E-11
  -1.80999994       1.45962131E-11
  -1.80499995       1.49860402E-11
  -1.79999995       1.53857066E-11
  -1.79499996       1.57954518E-11
  -1.78999996       1.62155185E-11
  -1.78499997       1.66461549E-11
  -1.77999997       1.70876126E-11
  -1.77499998       1.75401464E-11
  -1.76999998       1.80040115E-11
  -1.76499999       1.84794662E-11
  -1.75999999       1.89667778E-11
  -1.75500000       1.94662168E-11
  -1.75000000       1.99780522E-11
  -1.74500000       2.05025597E-11
  -1.74000001       2.10400170E-11
  -1.73500001       2.15907101E-11
  -1.73000002       2.21549307E-11
  -1.72500002       2.27329735E-11
  -1.72000003       2.33251370E-11