  -6.00000000       0.00000000    
  -5.99499989       0.00000000    
  -5.98999977       2.20480238E-25
  -5.98500013       1.50354502E-24
  -5.98000002       1.07966312E-23
  -5.97499990       6.06173341E-23
  -5.96999979       2.54513059E-22
  -5.96500015       8.51992295E-22
  -5.96000004       2.40576636E-21
  -5.95499992       5.96111747E-21
  -5.94999981       1.33216703E-20
  -5.94500017       2.73779108E-20
  -5.94000006       5.24848167E-20
  -5.93499994       9.48635090E-20
  -5.92999983       1.62989439E-19
  -5.92500019       2.67917726E-19
  -5.92000008       4.23485842E-19
  -5.91499996       6.46325120E-19
  -5.90999985       9.55609295E-19
  -5.90500021       1.37246624E-18
  -5.90000010       1.91899264E-18
  -5.89499998       2.61681172E-18
  -5.88999987       3.48514891E-18
  -5.88500023       4.53842321E-18
  -5.88000011       5.78337594E-18
  -5.87500000       7.21581412E-18
  -5.86999989       8.81708855E-18
  -5.86499977       1.05504472E-17
  -5.86000013       1.23574944E-17
  -5.85500002       1.41550025E-17
  -5.84999990       1.58323196E-17
  -5.84499979       1.72497350E-17
  -5.84000015       1.82381083E-17
  -5.83500004       1.85999783E-17
  -5.82999992       1.81126382E-17
  -5.82499981       1.65331931E-17
  -5.82000017       1.36058522E-17
  -5.81500006       9.07159713E-18
  -5.80999994       2.68004823E-18
  -5.80499983      -5.79654921E-18
  -5.80000019      -1.65475926E-17
  -5.79500008      -2.97071131E-17
  -5.78999996      -4.53360720E-17
  -5.78499985      -6.34047969E-17
  -5.78000021      -8.37763958E-17
  -5.77500010      -1.06192216E-16
  -5.76999998      -1.30260300E-16
  -5.76499987      -1.55448003E-16
  -5.76000023      -1.81079815E-16
  -5.75500011      -2.06341011E-16
  -5.75000000      -2.30288671E-16
  -5.74499989      -2.51869879E-16
  -5.73999977      -2.69947442E-16
  -5.73500013      -2.83333580E-16
  -5.73000002      -2.90830959E-16
  -5.72499990      -2.91279728E-16
  -5.71999979      -2.83610295E-16
  -5.71500015      -2.66898758E-16
  -5.71000004      -2.40424717E-16
  -5.70499992      -2.03727147E-16
  -5.69999981      -1.56657407E-16
  -5.69500017      -9.94246413E-17
  -5.69000006      -3.26325134E-17
  -5.68499994       4.26967504E-17
  -5.67999983       1.25113741E-16
  -5.67500019       2.12750377E-16
  -5.67000008       3.03347830E-16
  -5.66499996       3.94304584E-16
  -5.65999985       4.82745835E-16
  -5.65500021       5.65612762E-16
  -5.65000010       6.39770285E-16
  -5.64499998       7.02131921E-16
  -5.63999987       7.49797218E-16
  -5.63500023       7.80196595E-16
  -5.63000011       7.91239999E-16
  -5.62500000       7.81462009E-16
  -5.61999989       7.50156889E-16
  -5.61499977       6.97496692E-16
  -5.61000013       6.24625495E-16
  -5.60500002       5.33722925E-16
  -5.59999990       4.28030259E-16
  -5.59499979       3.11834518E-16
  -5.59000015       1.90406601E-16
  -5.58500004       6.98896348E-17
  -5.57999992      -4.28619384E-17
  -5.57499981      -1.40491810E-16
  -5.57000017      -2.15395965E-16
  -5.56500006      -2.60017515E-16
  -5.55999994      -2.67171979E-16
  -5.55499983      -2.30395635E-16
  -5.55000019      -1.44302730E-16
  -5.54500008      -4.94249019E-18
  -5.53999996       1.89864778E-16
  -5.53499985       4.40221207E-16
  -5.53000021       7.43894033E-16
  -5.52500010       1.09612024E-15
  -5.51999998       1.48948679E-15
  -5.51499987       1.91390080E-15
  -5.51000023       2.35665403E-15
  -5.50500011       2.80259506E-15
  -5.50000000       3.23440738E-15
  -5.49499989       3.63299716E-15
  -5.48999977       3.97797800E-15
  -5.48500013       4.24825521E-15
  -5.48000002       4.42269148E-15
  -5.47499990       4.48082843E-15
  -5.46999979       4.40365992E-15
  -5.46500015       4.17442273E-15
  -5.46000004       3.77937165E-15
  -5.45499992       3.20853073E-15
  -5.44999981       2.45637162E-15
  -5.44500017       1.52240069E-15
  -5.44000006       4.11626857E-16
  -5.43499994      -8.65119218E-16
  -5.42999983      -2.29103396E-15
  -5.42500019      -3.84337049E-15
  -5.42000008      -5.49366723E-15
  -5.41499996      -7.20818347E-15
  -5.40999985      -8.94852108E-15
  -5.40500021      -1.06724669E-14
  -5.40000010      -1.23349664E-14
  -5.39499998      -1.38893159E-14
  -5.38999987      -1.52884145E-14
  -5.38500023      -1.64861597E-14
  -5.38000011      -1.74388532E-14
  -5.37500000      -1.81066455E-14
  -5.36999989      -1.84549268E-14
  -5.36499977      -1.84556096E-14
  -5.36000013      -1.80883191E-14
  -5.35500002      -1.73413682E-14
  -5.34999990      -1.62125257E-14
  -5.34499979      -1.47095149E-14
  -5.34000015      -1.28502437E-14
  -5.33500004      -1.06627057E-14
  -5.32999992      -8.18459985E-15
  -5.32499981      -5.46257689E-15
  -5.32000017      -2.55122851E-15
  -5.31500006       4.88242443E-16
  -5.30999994       3.58959773E-15
  -5.30499983       6.68335931E-15
  -5.30000019       9.69876272E-15
  -5.29500008       1.25658498E-14
  -5.28999996       1.52175635E-14
  -5.28499985       1.75918596E-14
  -5.28000021       1.96336952E-14
  -5.27500010       2.12968918E-14
  -5.26999998       2.25457572E-14
  -5.26499987       2.33564084E-14
  -5.26000023       2.37177882E-14
  -5.25500011       2.36322582E-14
  -5.25000000       2.31158087E-14
  -5.24499989       2.21978248E-14
  -5.23999977       2.09203975E-14
  -5.23500013       1.93372099E-14
  -5.23000002       1.75120098E-14
  -5.22499990       1.55167000E-14
  -5.21999979       1.34291238E-14
  -5.21500015       1.13305564E-14
  -5.21000004       9.30304841E-15
  -5.20499992       7.42663326E-15
  -5.19999981       5.77652499E-15
  -5.19500017       4.42039602E-15
  -5.19000006       3.41581748E-15
  -5.18499994       2.80795657E-15
  -5.17999983       2.62760653E-15
  -5.17500019       2.88963659E-15
  -5.17000008       3.59192072E-15
  -5.16499996       4.71479545E-15
  -5.15999985       6.22106355E-15
  -5.15500021       8.05660470E-15
  -5.15000010       1.01515357E-14
  -5.14499998       1.24219533E-14
  -5.13999987       1.47721631E-14
  -5.13500023       1.70974176E-14
  -5.13000011       1.92869893E-14
  -5.12500000       2.12275926E-14
  -5.11999989       2.28069703E-14
  -5.11499977       2.39175948E-14
  -5.11000013       2.44603430E-14
  -5.10500002       2.43480180E-14
  -5.09999990       2.35086134E-14
  -5.09499979       2.18882665E-14
  -5.09000015       1.94536448E-14
  -5.08500004       1.61938656E-14
  -5.07999992       1.21217123E-14
  -5.07499981       7.27423425E-15
  -5.07000017       1.71255969E-15
  -5.06500006      -4.47900011E-15
  -5.05999994      -1.11945678E-14
  -5.05499983      -1.83090220E-14
  -5.05000019      -2.56809649E-14
  -5.04500008      -3.31562306E-14
  -5.03999996      -4.05718719E-14
  -5.03499985      -4.77605118E-14
  -5.03000021      -5.45548883E-14
  -5.02500010      -6.07925304E-14
  -5.01999998      -6.63203894E-14
  -5.01499987      -7.09991622E-14
  -5.01000023      -7.47074521E-14
  -5.00500011      -7.73454109E-14
  -5.00000000      -7.88376322E-14
  -4.99499989      -7.91356658E-14
  -4.98999977      -7.82194405E-14
  -4.98500013      -7.60981650E-14
  -4.98000002      -7.28100238E-14
  -4.97499990      -6.84213564E-14
  -4.96999979      -6.30246994E-14
  -4.96500015      -5.67361303E-14
  -4.96000004      -4.96919502E-14
  -4.95499992      -4.20445878E-14
  -4.94999981      -3.39580523E-14
  -4.94500017      -2.56030176E-14
  -4.94000006      -1.71516650E-14
  -4.93499994      -8.77242547E-15
  -4.92999983      -6.24887598E-16
  -4.92500019       7.14516421E-15
  -4.92000008       1.44100803E-14
  -4.91499996       2.10643694E-14
  -4.90999985       2.70277947E-14
  -4.90500021       3.22477810E-14
  -4.90000010       3.67009923E-14
  -4.89499998       4.03938086E-14
  -4.88999987       4.33618968E-14
  -4.88500023       4.56688012E-14
  -4.88000011       4.74037042E-14
  -4.87500000       4.86781703E-14
  -4.86999989       4.96220903E-14
  -4.86499977       5.03791785E-14
  -4.86000013       5.11018264E-14
  -4.85500002       5.19455355E-14
  -4.84999990       5.30633819E-14
  -4.84499979       5.46002859E-14
  -4.84000015       5.66877071E-14
  -4.83500004       5.94385042E-14
  -4.82999992       6.29424762E-14
  -4.82499981       6.72625408E-14
  -4.82000017       7.24318541E-14
  -4.81500006       7.84517240E-14
  -4.80999994       8.52907019E-14
  -4.80499983       9.28844878E-14
  -4.80000019       1.01137245E-13
  -4.79500008       1.09923741E-13
  -4.78999996       1.19092304E-13
  -4.78499985       1.28469243E-13
  -4.78000021       1.37863313E-13
  -4.77500010       1.47071334E-13
  -4.76999998       1.55884000E-13
  -4.76499987       1.64092007E-13
  -4.76000023       1.71492310E-13
  -4.75500011       1.77894117E-13
  -4.75000000       1.83124647E-13
  -4.74499989       1.87034362E-13
  -4.73999977       1.89501504E-13
  -4.73500013       1.90435734E-13
  -4.73000002       1.89780917E-13
  -4.72499990       1.87516953E-13
  -4.71999979       1.83660270E-13
  -4.71500015       1.78263356E-13
  -4.71000004       1.71413285E-13
  -4.70499992       1.63228805E-13
  -4.69999981       1.53857246E-13
  -4.69500017       1.43469682E-13
  -4.69000006       1.32256036E-13
  -4.68499994       1.20419503E-13
  -4.67999983       1.08170573E-13
  -4.67500019       9.57208285E-14
  -4.67000008       8.32771691E-14
  -4.66499996       7.10359641E-14
  -4.65999985       5.91775909E-14
  -4.65500021       4.78618779E-14
  -4.65000010       3.72240487E-14
  -4.64499998       2.73718206E-14
  -4.63999987       1.83830002E-14
  -4.63500023       1.03046132E-14
  -4.63000011       3.15276696E-15
  -4.62500000      -3.08659145E-15
  -4.61999989      -8.45513370E-15
  -4.61499977      -1.30203160E-14
  -4.61000013      -1.68705348E-14
  -4.60500002      -2.01119046E-14
  -4.59999990      -2.28630151E-14
  -4.59499979      -2.52498963E-14
  -4.59000015      -2.74007315E-14
  -4.58500004      -2.94408290E-14
  -4.57999992      -3.14876163E-14
  -4.57499981      -3.36458461E-14
  -4.57000017      -3.60035996E-14
  -4.56500006      -3.86292493E-14
  -4.55999994      -4.15680809E-14
  -4.55499983      -4.48410331E-14
  -4.55000019      -4.84434710E-14
  -4.54500008      -5.23452944E-14
  -4.53999996      -5.64914021E-14
  -4.53499985      -6.08037587E-14
  -4.53000021      -6.51834543E-14
  -4.52500010      -6.95137307E-14
  -4.51999998      -7.36634535E-14
  -4.51499987      -7.74914055E-14
  -4.51000023      -8.08499792E-14
  -4.50500011      -8.35898191E-14
  -4.50000000      -8.55636701E-14
  -4.49499989      -8.66307555E-14
  -4.48999977      -8.66598189E-14
  -4.48500013      -8.55335971E-14
  -4.48000002      -8.31497618E-14
  -4.47499990      -7.94247616E-14
  -4.46999979      -7.42938968E-14
  -4.46500015      -6.77125660E-14
  -4.46000004      -5.96572691E-14
  -4.45499992      -5.01228901E-14
  -4.44999981      -3.91232524E-14
  -4.44500017      -2.66892967E-14
  -4.44000006      -1.28659248E-14
  -4.43499994       2.28945700E-15
  -4.42999983       1.87107494E-14
  -4.42500019       3.63254044E-14
  -4.42000008       5.50568163E-14
  -4.41499996       7.48283271E-14
  -4.40999985       9.55649134E-14
  -4.40500021       1.17196631E-13
  -4.40000010       1.39659212E-13
  -4.39499998       1.62896931E-13
  -4.38999987       1.86863627E-13
  -4.38500023       2.11522504E-13
  -4.38000011       2.36848166E-13
  -4.37500000       2.62825921E-13
  -4.36999989       2.89450620E-13
  -4.36499977       3.16726544E-13
  -4.36000013       3.44667518E-13
  -4.35500002       3.73293681E-13
  -4.34999990       4.02631921E-13
  -4.34499979       4.32712893E-13
  -4.34000015       4.63571672E-13
  -4.33500004       4.95245338E-13
  -4.32999992       5.27771132E-13
  -4.32499981       5.61187707E-13
  -4.32000017       5.95532087E-13
  -4.31500006       6.30839781E-13
  -4.30999994       6.67144942E-13
  -4.30499983       7.04479281E-13
  -4.30000019       7.42873699E-13
  -4.29500008       7.82356059E-13
  -4.28999996       8.22952112E-13
  -4.28499985       8.64686794E-13
  -4.28000021       9.07584663E-13
  -4.27500010       9.51666263E-13
  -4.26999998       9.96952195E-13
  -4.26499987       1.04346197E-12
  -4.26000023       1.09121403E-12
  -4.25500011       1.14022041E-12
  -4.25000000       1.19049519E-12
  -4.24499989       1.24204401E-12
  -4.23999977       1.29486959E-12
  -4.23500013       1.34896835E-12
  -4.23000002       1.40432978E-12
  -4.22499990       1.46093088E-12
  -4.21999979       1.51874216E-12
  -4.21500015       1.57772157E-12
  -4.21000004       1.63781532E-12
  -4.20499992       1.69895771E-12
  -4.19999981       1.76107002E-12
  -4.19500017       1.82405913E-12
  -4.19000006       1.88782453E-12
  -4.18499994       1.95224999E-12
  -4.17999983       2.01721495E-12
  -4.17500019       2.08259083E-12
  -4.17000008       2.14824512E-12
  -4.16499996       2.21404318E-12
  -4.15999985       2.27985599E-12
  -4.15500021       2.34555929E-12
  -4.15000010       2.41103968E-12
  -4.14499998       2.47619785E-12
  -4.13999987       2.54095421E-12
  -4.13500023       2.60524740E-12
  -4.13000011       2.66904337E-12
  -4.12500000       2.73233259E-12
  -4.11999989       2.79514302E-12
  -4.11499977       2.85752216E-12
  -4.11000013       2.91955587E-12
  -4.10500002       2.98135843E-12
  -4.09999990       3.04307794E-12
  -4.09499979       3.10488592E-12
  -4.09000015       3.16698208E-12
  -4.08500004       3.22958544E-12
  -4.07999992       3.29292973E-12
  -4.07499981       3.35726650E-12
  -4.07000017       3.42285120E-12
  -4.06500006       3.48993946E-12
  -4.05999994       3.55878304E-12
  -4.05499983       3.62962199E-12
  -4.05000019       3.70268703E-12
  -4.04500008       3.77818523E-12
  -4.03999996       3.85629939E-12
  -4.03499985       3.93718348E-12
  -4.03000021       4.02096845E-12
  -4.02500010       4.10775493E-12
  -4.01999998       4.19760754E-12
  -4.01499987       4.29056617E-12
  -4.01000023       4.38664946E-12
  -4.00500011       4.48584616E-12
  -4.00000000       4.58813369E-12
  -3.99499989       4.69347304E-12
  -3.99000001       4.80182690E-12
  -3.98499990       4.91315495E-12
  -3.98000002       5.02742683E-12
  -3.97499990       5.14463428E-12
  -3.97000003       5.26478600E-12
  -3.96499991       5.38792752E-12
  -3.96000004       5.51414340E-12
  -3.95499992       5.64355507E-12
  -3.95000005       5.77634164E-12
  -3.94499993       5.91272647E-12
  -3.94000006       6.05298580E-12
  -3.93499994       6.19745401E-12
  -3.93000007       6.34651273E-12
  -3.92499995       6.50059737E-12
  -3.92000008       6.66018369E-12
  -3.91499996       6.82578820E-12
  -3.91000009       6.99796948E-12
  -3.90499997       7.17729652E-12
  -3.90000010       7.36436433E-12
  -3.89499998       7.55977225E-12
  -3.89000010       7.76411314E-12
  -3.88499999       7.97797592E-12
  -3.88000011       8.20192178E-12
  -3.87500000       8.43649629E-12
  -3.86999989       8.68219125E-12
  -3.86500001       8.93946028E-12
  -3.85999990       9.20871799E-12
  -3.85500002       9.49032866E-12
  -3.84999990       9.78459501E-12
  -3.84500003       1.00917807E-11
  -3.83999991       1.04120896E-11
  -3.83500004       1.07456891E-11
  -3.82999992       1.10927118E-11
  -3.82500005       1.14532533E-11
  -3.81999993       1.18273794E-11
  -3.81500006       1.22151395E-11
  -3.80999994       1.26166005E-11
  -3.80500007       1.30318300E-11
  -3.79999995       1.34608869E-11
  -3.79500008       1.39038937E-11
  -3.78999996       1.43609907E-11
  -3.78500009       1.48323524E-11
  -3.77999997       1.53182380E-11
  -3.77500010       1.58189538E-11
  -3.76999998       1.63348484E-11
  -3.76500010       1.68663451E-11
  -3.75999999       1.74139505E-11
  -3.75500011       1.79782231E-11
  -3.75000000       1.85597666E-11
  -3.74499989       1.91592662E-11
  -3.74000001       1.97774366E-11
  -3.73499990       2.04150169E-11
  -3.73000002       2.10728084E-11
  -3.72499990       2.17516161E-11
  -3.72000003       2.24522536E-11
  -3.71499991       2.31755309E-11
  -3.71000004       2.39222444E-11
  -3.70499992       2.46931798E-11
  -3.70000005       2.54890779E-11
  -3.69499993       2.63106394E-11
  -3.69000006       2.71585393E-11
  -3.68499994       2.80333794E-11
  -3.68000007       2.89357323E-11
  -3.67499995       2.98661165E-11
  -3.67000008       3.08249572E-11
  -3.66499996       3.18127295E-11
  -3.66000009       3.28297667E-11
  -3.65499997       3.38764156E-11
  -3.65000010       3.49530405E-11
  -3.64499998       3.60599189E-11
  -3.64000010       3.71973737E-11
  -3.63499999       3.83657030E-11
  -3.63000011       3.95652747E-11
  -3.62500000       4.07964322E-11
  -3.61999989       4.20595815E-11
  -3.61500001       4.33552014E-11
  -3.60999990       4.46837949E-11
  -3.60500002       4.60459761E-11
  -3.59999990       4.74423834E-11
  -3.59500003       4.88737557E-11
  -3.58999991       5.03408912E-11
  -3.58500004       5.18446536E-11
  -3.57999992       5.33859901E-11
  -3.57500005       5.49659415E-11
  -3.56999993       5.65855973E-11
  -3.56500006       5.82460816E-11
  -3.55999994       5.99485253E-11
  -3.55500007       6.16941706E-11
  -3.54999995       6.34842526E-11
  -3.54500008       6.53200410E-11
  -3.53999996       6.72027572E-11
  -3.53500009       6.91336988E-11
  -3.52999997       7.11140105E-11
  -3.52500010       7.31450525E-11
  -3.51999998       7.52279489E-11
  -3.51500010       7.73638861E-11
  -3.50999999       7.95540231E-11
  -3.50500011       8.17994908E-11
  -3.50000000       8.41013786E-11
  -3.49499989       8.64607066E-11
  -3.49000001       8.88786336E-11
  -3.48499990       9.13561657E-11
  -3.48000002       9.38942674E-11
  -3.47499990       9.64940211E-11
  -3.47000003       9.91565510E-11
  -3.46499991       1.01882842E-10
  -3.46000004       1.04674117E-10
  -3.45499992       1.07531477E-10
  -3.45000005       1.10456241E-10
  -3.44499993       1.13449652E-10
  -3.44000006       1.16513077E-10
  -3.43499994       1.19648014E-10
  -3.43000007       1.22855962E-10
  -3.42499995       1.26138544E-10
  -3.42000008       1.29497579E-10
  -3.41499996       1.32934871E-10
  -3.41000009       1.36452280E-10
  -3.40499997       1.40051970E-10
  -3.40000010       1.43735912E-10
  -3.39499998       1.47506382E-10
  -3.39000010       1.51365698E-10
  -3.38499999       1.55316149E-10
  -3.38000011       1.59360247E-10
  -3.37500000       1.63500477E-10
  -3.36999989       1.67739281E-10
  -3.36500001       1.72079517E-10
  -3.35999990       1.76523532E-10
  -3.35500002       1.81074308E-10
  -3.34999990       1.85734428E-10
  -3.34500003       1.90506666E-10
  -3.33999991       1.95393771E-10
  -3.33500004       2.00398587E-10
  -3.32999992       2.05523973E-10
  -3.32500005       2.10772941E-10
  -3.31999993       2.16148155E-10
  -3.31500006       2.21652585E-10
  -3.30999994       2.27289229E-10
  -3.30500007       2.33061070E-10
  -3.29999995       2.38971148E-10
  -3.29500008       2.45022641E-10
  -3.28999996       2.51218407E-10
  -3.28500009       2.57562083E-10
  -3.27999997       2.64056665E-10
  -3.27500010       2.70705680E-10
  -3.26999998       2.77512374E-10
  -3.26500010       2.84480217E-10
  -3.25999999       2.91613261E-10
  -3.25500011       2.98914921E-10
  -3.25000000       3.06389109E-10
  -3.24499989       3.14039655E-10
  -3.24000001       3.21870752E-10
  -3.23499990       3.29886535E-10
  -3.23000002       3.38091027E-10
  -3.22499990       3.46489060E-10
  -3.22000003       3.55084906E-10
  -3.21499991       3.63882952E-10
  -3.21000004       3.72888304E-10
  -3.20499992       3.82105542E-10
  -3.20000005       3.91539745E-10
  -3.19499993       4.01195438E-10
  -3.19000006       4.11078144E-10
  -3.18499994       4.21193053E-10
  -3.18000007       4.31544939E-10
  -3.17499995       4.42139853E-10
  -3.17000008       4.52982568E-10
  -3.16499996       4.64078581E-10
  -3.16000009       4.75433692E-10
  -3.15499997       4.87053398E-10
  -3.15000010       4.98943498E-10
  -3.14499998       5.11109599E-10
  -3.14000010       5.23557364E-10
  -3.13499999       5.36292677E-10
  -3.13000011       5.49321477E-10
  -3.12500000       5.62649816E-10
  -3.11999989       5.76283687E-10
  -3.11500001       5.90229199E-10
  -3.10999990       6.04492734E-10
  -3.10500002       6.19080842E-10
  -3.09999990       6.33999298E-10
  -3.09500003       6.49254539E-10
  -3.08999991       6.64854338E-10
  -3.08500004       6.80804413E-10
  -3.07999992       6.97112423E-10
  -3.07500005       7.13784754E-10
  -3.06999993       7.30828731E-10
  -3.06500006       7.48252016E-10
  -3.05999994       7.66061437E-10
  -3.05500007       7.84265153E-10
  -3.04999995       8.02870603E-10
  -3.04500008       8.21886115E-10
  -3.03999996       8.41319958E-10
  -3.03500009       8.61179517E-10
  -3.02999997       8.81473561E-10
  -3.02500010       9.02210640E-10
  -3.01999998       9.23398857E-10
  -3.01500010       9.45047929E-10
  -3.00999999       9.67166014E-10
  -3.00500011       9.89762827E-10
  -3.00000000       1.01284681E-09
  -2.99499989       1.03642761E-09
  -2.99000001       1.06051479E-09
  -2.98499990       1.08511777E-09
  -2.98000002       1.11024634E-09
  -2.97499990       1.13590937E-09
  -2.97000003       1.16211774E-09
  -2.96499991       1.18888099E-09
  -2.96000004       1.21620836E-09
  -2.95499992       1.24411192E-09
  -2.95000005       1.27259936E-09
  -2.94499993       1.30168343E-09
  -2.94000006       1.33137468E-09
  -2.93499994       1.36168199E-09
  -2.93000007       1.39261735E-09
  -2.92499995       1.42419065E-09
  -2.92000008       1.45641443E-09
  -2.91499996       1.48929946E-09
  -2.91000009       1.52285640E-09
  -2.90499997       1.55709801E-09
  -2.90000010       1.59203584E-09
  -2.89499998       1.62768155E-09
  -2.89000010       1.66404723E-09
  -2.88499999       1.70114600E-09
  -2.88000011       1.73898884E-09
  -2.87500000       1.77758996E-09
  -2.86999989       1.81696291E-09
  -2.86500001       1.85711979E-09
  -2.85999990       1.89807348E-09
  -2.85500002       1.93983984E-09
  -2.84999990       1.98243044E-09
  -2.84500003       2.02586103E-09
  -2.83999991       2.07014428E-09
  -2.83500004       2.11529549E-09
  -2.82999992       2.16132801E-09
  -2.82500005       2.20825758E-09
  -2.81999993       2.25609975E-09
  -2.81500006       2.30486763E-09
  -2.80999994       2.35457520E-09
  -2.80500007       2.40524134E-09
  -2.79999995       2.45687981E-09
  -2.79500008       2.50950571E-09
  -2.78999996       2.56313570E-09
  -2.78500009       2.61778288E-09
  -2.77999997       2.67346634E-09
  -2.77500010       2.73020184E-09
  -2.76999998       2.78800538E-09
  -2.76500010       2.84689095E-09
  -2.75999999       2.90687918E-09
  -2.75500011       2.96798364E-09
  -2.75000000       3.03022252E-09
  -2.74499989       3.09361270E-09
  -2.74000001       3.15817195E-09
  -2.73499990       3.22391647E-09
  -2.73000002       3.29086669E-09
  -2.72499990       3.35903927E-09
  -2.72000003       3.42845508E-09
  -2.71499991       3.49912765E-09
  -2.71000004       3.57107388E-09
  -2.70499992       3.64431973E-09
  -2.70000005       3.71888320E-09
  -2.69499993       3.79477472E-09
  -2.69000006       3.87202403E-09
  -2.68499994       3.95064603E-09
  -2.68000007       4.03066069E-09
  -2.67499995       4.11208712E-09
  -2.67000008       4.19494839E-09
  -2.66499996       4.27926228E-09
  -2.66000009       4.36504877E-09
  -2.65499997       4.45233139E-09
  -2.65000010       4.54112836E-09
  -2.64499998       4.63146010E-09
  -2.64000010       4.72334793E-09
  -2.63499999       4.81681406E-09
  -2.63000011       4.91188068E-09
  -2.62500000       5.00857045E-09
  -2.61999989       5.10689668E-09
  -2.61500001       5.20688959E-09
  -2.60999990       5.30857580E-09
  -2.60500002       5.41196066E-09
  -2.59999990       5.51708190E-09
  -2.59500003       5.62395552E-09
  -2.58999991       5.73260195E-09
  -2.58500004       5.84304605E-09
  -2.57999992       5.95530647E-09
  -2.57500005       6.06941519E-09
  -2.56999993       6.18539264E-09
  -2.56500006       6.30325570E-09
  -2.55999994       6.42303455E-09
  -2.55500007       6.54475363E-09
  -2.54999995       6.66842626E-09
  -2.54500008       6.79408485E-09
  -2.53999996       6.92175295E-09
  -2.53500009       7.05145364E-09
  -2.52999997       7.18320825E-09
  -2.52500010       7.31704253E-09
  -2.51999998       7.45298134E-09
  -2.51500010       7.59104424E-09
  -2.50999999       7.73125741E-09
  -2.50500011       7.87365284E-09
  -2.50000000       8.01824296E-09
  -2.49499989       8.16505707E-09
  -2.49000001       8.31411739E-09
  -2.48499990       8.46544701E-09
  -2.48000002       8.61907701E-09
  -2.47499990       8.77501982E-09
  -2.47000003       8.93331453E-09
  -2.46499991       9.09397713E-09
  -2.46000004       9.25702892E-09
  -2.45499992       9.42249567E-09
  -2.45000005       9.59040403E-09
  -2.44499993       9.76078240E-09
  -2.44000006       9.93364502E-09
  -2.43499994       1.01090194E-08
  -2.43000007       1.02869393E-08
  -2.42499995       1.04674127E-08
  -2.42000008       1.06504885E-08
  -2.41499996       1.08361604E-08
  -2.41000009       1.10244809E-08
  -2.40499997       1.12154508E-08
  -2.40000010       1.14091137E-08
  -2.39499998       1.16054801E-08
  -2.39000010       1.18045840E-08
  -2.38499999       1.20064430E-08
  -2.38000011       1.22110890E-08
  -2.37500000       1.24185320E-08
  -2.36999989       1.26288171E-08
  -2.36500001       1.28419444E-08
  -2.35999990       1.30579432E-08
  -2.35500002       1.32768436E-08
  -2.34999990       1.34986626E-08
  -2.34500003       1.37234268E-08
  -2.33999991       1.39511389E-08
  -2.33500004       1.41818433E-08
  -2.32999992       1.44155532E-08
  -2.32500005       1.46522847E-08
  -2.31999993       1.48920707E-08
  -2.31500006       1.51349209E-08
  -2.30999994       1.53808521E-08
  -2.30500007       1.56298849E-08
  -2.29999995       1.58820406E-08
  -2.29500008       1.61373368E-08
  -2.28999996       1.63957825E-08
  -2.28500009       1.66574132E-08
  -2.27999997       1.69222272E-08
  -2.27500010       1.71902599E-08
  -2.26999998       1.74615220E-08
  -2.26500010       1.77360224E-08
  -2.25999999       1.80137700E-08
  -2.25500011       1.82948003E-08
  -2.25000000       1.85791205E-08
  -2.24499989       1.88667695E-08
  -2.24000001       1.91577403E-08
  -2.23499990       1.94520382E-08
  -2.23000002       1.97496970E-08
  -2.22499990       2.00507362E-08
  -2.22000003       2.03551647E-08
  -2.21499991       2.06629753E-08
  -2.21000004       2.09742002E-08
  -2.20499992       2.12888693E-08
  -2.20000005       2.16069633E-08
  -2.19499993       2.19285212E-08
  -2.19000006       2.22535146E-08
  -2.18499994       2.25819967E-08
  -2.18000007       2.29139587E-08
  -2.17499995       2.32494024E-08
  -2.17000008       2.35883260E-08
  -2.16499996       2.39307720E-08
  -2.16000009       2.42767033E-08
  -2.15499997       2.46261429E-08
  -2.15000010       2.49790908E-08
  -2.14499998       2.53355719E-08
  -2.14000010       2.56955612E-08
  -2.13499999       2.60590269E-08
  -2.13000011       2.64260649E-08
  -2.12500000       2.67965845E-08
  -2.11999989       2.71706497E-08
  -2.11500001       2.75482002E-08
  -2.10999990       2.79292340E-08
  -2.10500002       2.83137744E-08
  -2.09999990       2.87018285E-08
  -2.09500003       2.90933588E-08
  -2.08999991       2.94883566E-08
  -2.08500004       2.98868201E-08
  -2.07999992       3.02887564E-08
  -2.07500005       3.06941423E-08
  -2.06999993       3.11029886E-08
  -2.06500006       3.15152562E-08
  -2.05999994       3.19309983E-08
  -2.05500007       3.23500799E-08
  -2.04999995       3.27725544E-08
  -2.04500008       3.31984538E-08
  -2.03999996       3.36277068E-08
  -2.03500009       3.40602959E-08
  -2.02999997       3.44962494E-08
  -2.02500010       3.49354501E-08
  -2.01999998       3.53780116E-08
  -2.01500010       3.58237848E-08
  -2.00999999       3.62728620E-08
  -2.00500011       3.67251261E-08
  -2.00000000       3.71805733E-08
  -1.99500000       3.76392713E-08
  -1.99000001       3.81010175E-08
  -1.98500001       3.85658936E-08
  -1.98000002       3.90339068E-08
  -1.97500002       3.95049433E-08
  -1.97000003       3.99790352E-08
  -1.96500003       4.04560510E-08
  -1.96000004       4.09360510E-08
  -1.95500004       4.14189927E-08
  -1.95000005       4.19048476E-08
  -1.94500005       4.23934736E-08
  -1.94000006       4.28849809E-08
  -1.93499994       4.33792522E-08
  -1.92999995       4.38762946E-08
  -1.92499995       4.43759802E-08
  -1.91999996       4.48783410E-08
  -1.91499996       4.53833380E-08
  -1.90999997       4.58909604E-08
  -1.90499997       4.64011194E-08
  -1.89999998       4.69137760E-08
  -1.89499998       4.74289195E-08
  -1.88999999       4.79464362E-08
  -1.88499999       4.84662976E-08
  -1.88000000       4.89884684E-08
  -1.87500000       4.95129058E-08
  -1.87000000       5.00395849E-08
  -1.86500001       5.05684739E-08
  -1.86000001       5.10993985E-08
  -1.85500002       5.16324867E-08
  -1.85000002       5.21675005E-08
  -1.84500003       5.27044719E-08
  -1.84000003       5.32434115E-08
  -1.83500004       5.37841416E-08
  -1.83000004       5.43266658E-08
  -1.82500005       5.48708954E-08
  -1.82000005       5.54167983E-08
  -1.81500006       5.59642999E-08
  -1.80999994       5.65134357E-08
  -1.80499995       5.70640211E-08
  -1.79999995       5.76160772E-08
  -1.79499996       5.81695190E-08
  -1.78999996       5.87242432E-08
  -1.78499997       5.92802358E-08
  -1.77999997       5.98375323E-08
  -1.77499998       6.03959336E-08
  -1.76999998       6.09555926E-08
  -1.76499999       6.15161611E-08
  -1.75999999       6.20777101E-08
  -1.75500000       6.26402823E-08
  -1.75000000       6.32037640E-08
  -1.74500000       6.37679918E-08
  -1.74000001       6.43331077E-08
  -1.73500001       6.48990834E-08
  -1.73000002       6.54655850E-08
  -1.72500002       6.60329107E-08
  -1.72000003       6.66008475E-08