  -6.00000000       0.00000000    
  -5.99499989       0.00000000    
  -5.98999977       1.91616346E-22
  -5.98500013       4.74072880E-21
  -5.98000002       2.89841760E-20
  -5.97499990       1.09186548E-19
  -5.96999979       3.13561785E-19
  -5.96500015       7.52907342E-19
  -5.96000004       1.58895926E-18
  -5.95499992       3.03847696E-18
  -5.94999981       5.37113394E-18
  -5.94500017       8.89952537E-18
  -5.94000006       1.39600509E-17
  -5.93499994       2.08839331E-17
  -5.92999983       2.99585561E-17
  -5.92500019       4.13799054E-17
  -5.92000008       5.51981759E-17
  -5.91499996       7.12591812E-17
  -5.90999985       8.91454730E-17
  -5.90500021       1.08122035E-16
  -5.90000010       1.27091087E-16
  -5.89499998       1.44562518E-16
  -5.88999987       1.58645248E-16
  -5.88500023       1.67064914E-16
  -5.88000011       1.67212642E-16
  -5.87500000       1.56228874E-16
  -5.86999989       1.31123228E-16
  -5.86499977       8.89321663E-17
  -5.86000013       2.69089877E-17
  -5.85500002      -5.72550068E-17
  -5.84999990      -1.65189398E-16
  -5.84499979      -2.97592029E-16
  -5.84000015      -4.53978955E-16
  -5.83500004      -6.32451391E-16
  -5.82999992      -8.29498306E-16
  -5.82499981      -1.03984877E-15
  -5.82000017      -1.25639804E-15
  -5.81500006      -1.47021594E-15
  -5.80999994      -1.67066026E-15
  -5.80499983      -1.84560157E-15
  -5.80000019      -1.98176445E-15
  -5.79500008      -2.06519465E-15
  -5.78999996      -2.08183779E-15
  -5.78499985      -2.01821482E-15
  -5.78000021      -1.86219876E-15
  -5.77500010      -1.60382279E-15
  -5.76999998      -1.23613066E-15
  -5.76499987      -7.55994428E-16
  -5.76000023      -1.64879675E-16
  -5.75500011       5.30512511E-16
  -5.75000000       1.31775668E-15
  -5.74499989       2.17842813E-15
  -5.73999977       3.08807249E-15
  -5.73500013       4.01647184E-15
  -5.73000002       4.92822446E-15
  -5.72499990       5.78364642E-15
  -5.71999979       6.54001635E-15
  -5.71500015       7.15311955E-15
  -5.71000004       7.57907378E-15
  -5.70499992       7.77639350E-15
  -5.69999981       7.70819294E-15
  -5.69500017       7.34447700E-15
  -5.69000006       6.66438704E-15
  -5.68499994       5.65833933E-15
  -5.67999983       4.32986937E-15
  -5.67500019       2.69713840E-15
  -5.67000008       7.93942140E-16
  -5.66499996      -1.32987349E-15
  -5.65999985      -3.60867460E-15
  -5.65500021      -5.96202351E-15
  -5.65000010      -8.29647088E-15
  -5.64499998      -1.05081425E-14
  -5.63999987      -1.24860610E-14
  -5.63500023      -1.41162081E-14
  -5.63000011      -1.52861190E-14
  -5.62500000      -1.58900213E-14
  -5.61999989      -1.58341612E-14
  -5.61499977      -1.50422752E-14
  -5.61000013      -1.34608418E-14
  -5.60500002      -1.10640079E-14
  -5.59999990      -7.85777134E-15
  -5.59499979      -3.88332080E-15
  -5.59000015       7.80756166E-16
  -5.58500004       6.01767654E-15
  -5.57999992       1.16730906E-14
  -5.57499981       1.75573887E-14
  -5.57000017       2.34496955E-14
  -5.56500006       2.91035371E-14
  -5.55999994       3.42541310E-14
  -5.55499983       3.86270944E-14
  -5.55000019       4.19484631E-14
  -5.54500008       4.39555720E-14
  -5.53999996       4.44085415E-14
  -5.53499985       4.31019661E-14
  -5.53000021       3.98762749E-14
  -5.52500010       3.46283705E-14
  -5.51999998       2.73209935E-14
  -5.51499987       1.79903632E-14
  -5.51000023       6.75165346E-15
  -5.50500011      -6.19800816E-15
  -5.50000000      -2.05795277E-14
  -5.49499989      -3.60348687E-14
  -5.48999977      -5.21332719E-14
  -5.48500013      -6.83807869E-14
  -5.48000002      -8.42327984E-14
  -5.47499990      -9.91095633E-14
  -5.46999979      -1.12414025E-13
  -5.46500015      -1.23551912E-13
  -5.46000004      -1.31952893E-13
  -5.45499992      -1.37092703E-13
  -5.44999981      -1.38514918E-13
  -5.44500017      -1.35852131E-13
  -5.44000006      -1.28845109E-13
  -5.43499994      -1.17359518E-13
  -5.42999983      -1.01399371E-13
  -5.42500019      -8.11163338E-14
  -5.42000008      -5.68144639E-14
  -5.41499996      -2.89499869E-14
  -5.40999985       1.87456163E-15
  -5.40500021       3.49212982E-14
  -5.40000010       6.93336108E-14
  -5.39499998       1.04157792E-13
  -5.38999987       1.38369188E-13
  -5.38500023       1.70902409E-13
  -5.38000011       2.00684413E-13
  -5.37500000       2.26669893E-13
  -5.36999989       2.47877429E-13
  -5.36499977       2.63425268E-13
  -5.36000013       2.72565526E-13
  -5.35500002       2.74716014E-13
  -5.34999990       2.69486825E-13
  -5.34499979       2.56703269E-13
  -5.34000015       2.36420963E-13
  -5.33500004       2.08935083E-13
  -5.32999992       1.74781305E-13
  -5.32499981       1.34728546E-13
  -5.32000017       8.97641133E-14
  -5.31500006       4.10703576E-14
  -5.30999994      -1.00061882E-14
  -5.30499983      -6.19919697E-14
  -5.30000019      -1.13330088E-13
  -5.29500008      -1.62427960E-13
  -5.28999996      -2.07708308E-13
  -5.28499985      -2.47661239E-13
  -5.28000021      -2.80896834E-13
  -5.27500010      -3.06194794E-13
  -5.26999998      -3.22550987E-13
  -5.26499987      -3.29217692E-13
  -5.26000023      -3.25737836E-13
  -5.25500011      -3.11969743E-13
  -5.25000000      -2.88102495E-13
  -5.24499989      -2.54661499E-13
  -5.23999977      -2.12502054E-13
  -5.23500013      -1.62792482E-13
  -5.23000002      -1.06985967E-13
  -5.22499990      -4.67822971E-14
  -5.21999979       1.59201892E-14
  -5.21500015       7.90807171E-14
  -5.21000004       1.40578114E-13
  -5.20499992       1.98278175E-13
  -5.19999981       2.50103432E-13
  -5.19500017       2.94103094E-13
  -5.19000006       3.28521037E-13
  -5.18499994       3.51859113E-13
  -5.17999983       3.62935241E-13
  -5.17500019       3.60931093E-13
  -5.17000008       3.45430742E-13
  -5.16499996       3.16446386E-13
  -5.15999985       2.74431899E-13
  -5.15500021       2.20281326E-13
  -5.15000010       1.55313777E-13
  -5.14499998       8.12437953E-14
  -5.13999987       1.38180627E-16
  -5.13500023      -8.56398624E-14
  -5.13000011      -1.73497393E-13
  -5.12500000      -2.60688281E-13
  -5.11999989      -3.44395953E-13
  -5.11499977      -4.21821161E-13
  -5.11000013      -4.90271560E-13
  -5.10500002      -5.47249583E-13
  -5.09999990      -5.90537276E-13
  -5.09499979      -6.18273987E-13
  -5.09000015      -6.29023905E-13
  -5.08500004      -6.21832772E-13
  -5.07999992      -5.96270971E-13
  -5.07499981      -5.52459120E-13
  -5.07000017      -4.91078966E-13
  -5.06500006      -4.13365034E-13
  -5.05999994      -3.21080104E-13
  -5.05499983      -2.16472267E-13
  -5.05000019      -1.02216263E-13
  -5.04500008       1.86607118E-14
  -5.03999996       1.42864602E-13
  -5.03499985       2.66931849E-13
  -5.03000021       3.87332365E-13
  -5.02500010       5.00578908E-13
  -5.01999998       6.03335090E-13
  -5.01499987       6.92522103E-13
  -5.01000023       7.65418707E-13
  -5.00500011       8.19752794E-13
  -5.00000000       8.53778691E-13
  -4.99499989       8.66341504E-13
  -4.98999977       8.56920600E-13
  -4.98500013       8.25657630E-13
  -4.98000002       7.73361572E-13
  -4.97499990       7.01492738E-13
  -4.96999979       6.12126669E-13
  -4.96500015       5.07897760E-13
  -4.96000004       3.91923717E-13
  -4.95499992       2.67712854E-13
  -4.94999981       1.39060109E-13
  -4.94500017       9.92871946E-15
  -4.94000006      -1.15672839E-13
  -4.93499994      -2.33817252E-13
  -4.92999983      -3.40785695E-13
  -4.92500019      -4.33188153E-13
  -4.92000008      -5.08076654E-13
  -4.91499996      -5.63043644E-13
  -4.90999985      -5.96306912E-13
  -4.90500021      -6.06773529E-13
  -4.90000010      -5.94082888E-13
  -4.89499998      -5.58627200E-13
  -4.88999987      -5.01546233E-13
  -4.88500023      -4.24699013E-13
  -4.88000011      -3.30611921E-13
  -4.87500000      -2.22404194E-13
  -4.86999989      -1.03692073E-13
  -4.86499977       2.15228429E-14
  -4.86000013       1.48979651E-13
  -4.85500002       2.74294205E-13
  -4.84999990       3.93100998E-13
  -4.84499979       5.01195494E-13
  -4.84000015       5.94673128E-13
  -4.83500004       6.70060036E-13
  -4.82999992       7.24430010E-13
  -4.82499981       7.55506009E-13
  -4.82000017       7.61742123E-13
  -4.81500006       7.42378977E-13
  -4.80999994       6.97476473E-13
  -4.80499983       6.27921814E-13
  -4.80000019       5.35404728E-13
  -4.79500008       4.22372695E-13
  -4.78999996       2.91955316E-13
  -4.78499985       1.47869767E-13
  -4.78000021      -5.69350898E-15
  -4.77500010      -1.64206769E-13
  -4.76999998      -3.22944986E-13
  -4.76499987      -4.77139812E-13
  -4.76000023      -6.22131361E-13
  -4.75500011      -7.53518233E-13
  -4.75000000      -8.67301727E-13
  -4.74499989      -9.60013319E-13
  -4.73999977      -1.02882839E-12
  -4.73500013      -1.07165774E-12
  -4.73000002      -1.08721365E-12
  -4.72499990      -1.07505302E-12
  -4.71999979      -1.03558904E-12
  -4.71500015      -9.70076775E-13
  -4.71000004      -8.80569760E-13
  -4.70499992      -7.69851034E-13
  -4.69999981      -6.41340171E-13
  -4.69500017      -4.98980143E-13
  -4.69000006      -3.47104344E-13
  -4.68499994      -1.90296604E-13
  -4.67999983      -3.32370070E-14
  -4.67500019       1.19450497E-13
  -4.67000008       2.63345687E-13
  -4.66499996       3.94377348E-13
  -4.65999985       5.08951930E-13
  -4.65500021       6.04066385E-13
  -4.65000010       6.77399705E-13
  -4.64499998       7.27381588E-13
  -4.63999987       7.53233467E-13
  -4.63500023       7.54983478E-13
  -4.63000011       7.33455343E-13
  -4.62500000       6.90227606E-13
  -4.61999989       6.27569719E-13
  -4.61499977       5.48356553E-13
  -4.61000013       4.55960085E-13
  -4.60500002       3.54129622E-13
  -4.59999990       2.46858171E-13
  -4.59499979       1.38245169E-13
  -4.59000015       3.23549103E-14
  -4.58500004      -6.69176628E-14
  -4.57999992      -1.55979748E-13
  -4.57499981      -2.31646652E-13
  -4.57000017      -2.91253485E-13
  -4.56500006      -3.32721291E-13
  -4.55999994      -3.54622419E-13
  -4.55499983      -3.56211452E-13
  -4.55000019      -3.37435131E-13
  -4.54500008      -2.98911612E-13
  -4.53999996      -2.41899220E-13
  -4.53499985      -1.68234160E-13
  -4.53000021      -8.02475762E-14
  -4.52500010       1.93210587E-14
  -4.51999998       1.27433776E-13
  -4.51499987       2.40867249E-13
  -4.51000023       3.56326026E-13
  -4.50500011       4.70564722E-13
  -4.50000000       5.80490950E-13
  -4.49499989       6.83268817E-13
  -4.48999977       7.76410511E-13
  -4.48500013       8.57847105E-13
  -4.48000002       9.25983465E-13
  -4.47499990       9.79740161E-13
  -4.46999979       1.01856566E-12
  -4.46500015       1.04243415E-12
  -4.46000004       1.05182497E-12
  -4.45499992       1.04768885E-12
  -4.44999981       1.03138179E-12
  -4.44500017       1.00460677E-12
  -4.44000006       9.69339734E-13
  -4.43499994       9.27736837E-13
  -4.42999983       8.82052135E-13
  -4.42500019       8.34562833E-13
  -4.42000008       7.87472138E-13
  -4.41499996       7.42842311E-13
  -4.40999985       7.02535957E-13
  -4.40500021       6.68151949E-13
  -4.40000010       6.40988673E-13
  -4.39499998       6.22026031E-13
  -4.38999987       6.11907823E-13
  -4.38500023       6.10946948E-13
  -4.38000011       6.19142595E-13
  -4.37500000       6.36206257E-13
  -4.36999989       6.61601308E-13
  -4.36499977       6.94598675E-13
  -4.36000013       7.34311375E-13
  -4.35500002       7.79762485E-13
  -4.34999990       8.29930471E-13
  -4.34499979       8.83814777E-13
  -4.34000015       9.40443361E-13
  -4.33500004       9.98962415E-13
  -4.32999992       1.05863506E-12
  -4.32499981       1.11886954E-12
  -4.32000017       1.17921298E-12
  -4.31500006       1.23938034E-12
  -4.30999994       1.29920532E-12
  -4.30499983       1.35866557E-12
  -4.30000019       1.41780684E-12
  -4.29500008       1.47673963E-12
  -4.28999996       1.53558882E-12
  -4.28499985       1.59446913E-12
  -4.28000021       1.65342219E-12
  -4.27500010       1.71240062E-12
  -4.26999998       1.77123702E-12
  -4.26499987       1.82961784E-12
  -4.26000023       1.88708641E-12
  -4.25500011       1.94301389E-12
  -4.25000000       1.99663159E-12
  -4.24499989       2.04705372E-12
  -4.23999977       2.09330795E-12
  -4.23500013       2.13435563E-12
  -4.23000002       2.16917391E-12
  -4.22499990       2.19679678E-12
  -4.21999979       2.21635037E-12
  -4.21500015       2.22714880E-12
  -4.21000004       2.22876947E-12
  -4.20499992       2.22103694E-12
  -4.19999981       2.20413509E-12
  -4.19500017       2.17860409E-12
  -4.19000006       2.14538283E-12
  -4.18499994       2.10581531E-12
  -4.17999983       2.06163233E-12
  -4.17500019       2.01492664E-12
  -4.17000008       1.96811859E-12
  -4.16499996       1.92388445E-12
  -4.15999985       1.88511858E-12
  -4.15500021       1.85482966E-12
  -4.15000010       1.83601506E-12
  -4.14499998       1.83160995E-12
  -4.13999987       1.84434542E-12
  -4.13500023       1.87667069E-12
  -4.13000011       1.93064683E-12
  -4.12500000       2.00783314E-12
  -4.11999989       2.10925526E-12
  -4.11499977       2.23531588E-12
  -4.11000013       2.38570622E-12
  -4.10500002       2.55950556E-12
  -4.09999990       2.75507698E-12
  -4.09499979       2.97014757E-12
  -4.09000015       3.20183029E-12
  -4.08500004       3.44673465E-12
  -4.07999992       3.70105812E-12
  -4.07499981       3.96060441E-12
  -4.07000017       4.22110740E-12
  -4.06500006       4.47820600E-12
  -4.05999994       4.72771995E-12
  -4.05499983       4.96566503E-12
  -4.05000019       5.18848940E-12
  -4.04500008       5.39323230E-12
  -4.03999996       5.57760695E-12
  -4.03499985       5.74012712E-12
  -4.03000021       5.88022729E-12
  -4.02500010       5.99811693E-12
  -4.01999998       6.09513265E-12
  -4.01499987       6.17345671E-12
  -4.01000023       6.23627235E-12
  -4.00500011       6.28750090E-12
  -4.00000000       6.33190635E-12
  -3.99499989       6.37474882E-12
  -3.99000001       6.42186217E-12
  -3.98499990       6.47926504E-12
  -3.98000002       6.55313867E-12
  -3.97499990       6.64946527E-12
  -3.97000003       6.77409517E-12
  -3.96499991       6.93214626E-12
  -3.96000004       7.12820081E-12
  -3.95499992       7.36607043E-12
  -3.95000005       7.64832208E-12
  -3.94499993       7.97672171E-12
  -3.94000006       8.35172209E-12
  -3.93499994       8.77256254E-12
  -3.93000007       9.23734613E-12
  -3.92499995       9.74290700E-12
  -3.92000008       1.02851911E-11
  -3.91499996       1.08590472E-11
  -3.91000009       1.14585451E-11
  -3.90499997       1.20771587E-11
  -3.90000010       1.27079701E-11
  -3.89499998       1.33438573E-11
  -3.89000010       1.39778493E-11
  -3.88499999       1.46032596E-11
  -3.88000011       1.52138441E-11
  -3.87500000       1.58041462E-11
  -3.86999989       1.63697840E-11
  -3.86500001       1.69074789E-11
  -3.85999990       1.74149757E-11
  -3.85500002       1.78918321E-11
  -3.84999990       1.83386934E-11
  -3.84500003       1.87576777E-11
  -3.83999991       1.91523516E-11
  -3.83500004       1.95276816E-11
  -3.82999992       1.98895136E-11
  -3.82500005       2.02447399E-11
  -3.81999993       2.06014147E-11
  -3.81500006       2.09675680E-11
  -3.80999994       2.13519775E-11
  -3.80500007       2.17631451E-11
  -3.79999995       2.22094305E-11
  -3.79500008       2.26985427E-11
  -3.78999996       2.32378561E-11
  -3.78500009       2.38331837E-11
  -3.77999997       2.44893394E-11
  -3.77500010       2.52099088E-11
  -3.76999998       2.59968332E-11
  -3.76500010       2.68509884E-11
  -3.75999999       2.77710580E-11
  -3.75500011       2.87544311E-11
  -3.75000000       2.97975880E-11
  -3.74499989       3.08951163E-11
  -3.74000001       3.20410608E-11
  -3.73499990       3.32278892E-11
  -3.73000002       3.44484025E-11
  -3.72499990       3.56945133E-11
  -3.72000003       3.69581414E-11
  -3.71499991       3.82314597E-11
  -3.71000004       3.95074355E-11
  -3.70499992       4.07797129E-11
  -3.70000005       4.20427235E-11
  -3.69499993       4.32926403E-11
  -3.69000006       4.45264069E-11
  -3.68499994       4.57426978E-11
  -3.68000007       4.69428871E-11
  -3.67499995       4.81279738E-11
  -3.67000008       4.93019861E-11
  -3.66499996       5.04698054E-11
  -3.66000009       5.16384470E-11
  -3.65499997       5.28148705E-11
  -3.65000010       5.40076525E-11
  -3.64499998       5.52254423E-11
  -3.64000010       5.64783255E-11
  -3.63499999       5.77754303E-11
  -3.63000011       5.91257460E-11
  -3.62500000       6.05383452E-11
  -3.61999989       6.20220611E-11
  -3.61500001       6.35830069E-11
  -3.60999990       6.52270668E-11
  -3.60500002       6.69588829E-11
  -3.59999990       6.87818483E-11
  -3.59500003       7.06970593E-11
  -3.58999991       7.27043564E-11
  -3.58500004       7.48025739E-11
  -3.57999992       7.69893593E-11
  -3.57500005       7.92601193E-11
  -3.56999993       8.16096149E-11
  -3.56500006       8.40322603E-11
  -3.55999994       8.65206795E-11
  -3.55500007       8.90689328E-11
  -3.54999995       9.16699147E-11
  -3.54500008       9.43171166E-11
  -3.53999996       9.70039188E-11
  -3.53500009       9.97250546E-11
  -3.52999997       1.02476590E-10
  -3.52500010       1.05254409E-10
  -3.51999998       1.08056994E-10
  -3.51500010       1.10883462E-10
  -3.50999999       1.13735507E-10
  -3.50500011       1.16615481E-10
  -3.50000000       1.19526264E-10
  -3.49499989       1.22473948E-10
  -3.49000001       1.25464125E-10
  -3.48499990       1.28504221E-10
  -3.48000002       1.31604158E-10
  -3.47499990       1.34770917E-10
  -3.47000003       1.38014850E-10
  -3.46499991       1.41346296E-10
  -3.46000004       1.44773929E-10
  -3.45499992       1.48306784E-10
  -3.45000005       1.51953158E-10
  -3.44499993       1.55720992E-10
  -3.44000006       1.59617403E-10
  -3.43499994       1.63648525E-10
  -3.43000007       1.67821396E-10
  -3.42499995       1.72137249E-10
  -3.42000008       1.76599277E-10
  -3.41499996       1.81209284E-10
  -3.41000009       1.85969129E-10
  -3.40499997       1.90874858E-10
  -3.40000010       1.95926692E-10
  -3.39499998       2.01123188E-10
  -3.39000010       2.06461764E-10
  -3.38499999       2.11938592E-10
  -3.38000011       2.17550103E-10
  -3.37500000       2.23294827E-10
  -3.36999989       2.29166866E-10
  -3.36500001       2.35163833E-10
  -3.35999990       2.41286269E-10
  -3.35500002       2.47532106E-10
  -3.34999990       2.53901622E-10
  -3.34500003       2.60389377E-10
  -3.33999991       2.67002892E-10
  -3.33500004       2.73741835E-10
  -3.32999992       2.80607149E-10
  -3.32500005       2.87606133E-10
  -3.31999993       2.94741453E-10
  -3.31500006       3.02019854E-10
  -3.30999994       3.09448495E-10
  -3.30500007       3.17035037E-10
  -3.29999995       3.24784588E-10
  -3.29500008       3.32707056E-10
  -3.28999996       3.40811213E-10
  -3.28500009       3.49104801E-10
  -3.27999997       3.57596092E-10
  -3.27500010       3.66295494E-10
  -3.26999998       3.75207670E-10
  -3.26500010       3.84340615E-10
  -3.25999999       3.93705374E-10
  -3.25500011       4.03304307E-10
  -3.25000000       4.13147183E-10
  -3.24499989       4.23238417E-10
  -3.24000001       4.33579839E-10
  -3.23499990       4.44182219E-10
  -3.23000002       4.55042948E-10
  -3.22499990       4.66165606E-10
  -3.22000003       4.77557327E-10
  -3.21499991       4.89213836E-10
  -3.21000004       5.01141795E-10
  -3.20499992       5.13339093E-10
  -3.20000005       5.25805399E-10
  -3.19499993       5.38551648E-10
  -3.19000006       5.51565238E-10
  -3.18499994       5.64853386E-10
  -3.18000007       5.78415593E-10
  -3.17499995       5.92259408E-10
  -3.17000008       6.06381945E-10
  -3.16499996       6.20790142E-10
  -3.16000009       6.35488939E-10
  -3.15499997       6.50476617E-10
  -3.15000010       6.65761946E-10
  -3.14499998       6.81346535E-10
  -3.14000010       6.97241154E-10
  -3.13499999       7.13450687E-10
  -3.13000011       7.29985961E-10
  -3.12500000       7.46863293E-10
  -3.11999989       7.64079910E-10
  -3.11500001       7.81651188E-10
  -3.10999990       7.99585897E-10
  -3.10500002       8.17899248E-10
  -3.09999990       8.36603897E-10
  -3.09500003       8.55707227E-10
  -3.08999991       8.75225170E-10
  -3.08500004       8.95164443E-10
  -3.07999992       9.15531539E-10
  -3.07500005       9.36348776E-10
  -3.06999993       9.57629198E-10
  -3.06500006       9.79369807E-10
  -3.05999994       1.00158715E-09
  -3.05500007       1.02428399E-09
  -3.04999995       1.04747777E-09
  -3.04500008       1.07116271E-09
  -3.03999996       1.09534604E-09
  -3.03500009       1.12004339E-09
  -3.02999997       1.14525289E-09
  -3.02500010       1.17098731E-09
  -3.01999998       1.19724652E-09
  -3.01500010       1.22402510E-09
  -3.00999999       1.25134658E-09
  -3.00500011       1.27919819E-09
  -3.00000000       1.30759015E-09
  -2.99499989       1.33653666E-09
  -2.99000001       1.36603540E-09
  -2.98499990       1.39608680E-09
  -2.98000002       1.42671075E-09
  -2.97499990       1.45791679E-09
  -2.97000003       1.48970758E-09
  -2.96499991       1.52209878E-09
  -2.96000004       1.55510083E-09
  -2.95499992       1.58872948E-09
  -2.95000005       1.62299596E-09
  -2.94499993       1.65790637E-09
  -2.94000006       1.69347514E-09
  -2.93499994       1.72973957E-09
  -2.93000007       1.76669401E-09
  -2.92499995       1.80436643E-09
  -2.92000008       1.84277604E-09
  -2.91499996       1.88193328E-09
  -2.91000009       1.92184690E-09
  -2.90499997       1.96255345E-09
  -2.90000010       2.00404404E-09
  -2.89499998       2.04634731E-09
  -2.89000010       2.08947482E-09
  -2.88499999       2.13343565E-09
  -2.88000011       2.17826002E-09
  -2.87500000       2.22395369E-09
  -2.86999989       2.27051866E-09
  -2.86500001       2.31794850E-09
  -2.85999990       2.36628317E-09
  -2.85500002       2.41550668E-09
  -2.84999990       2.46565368E-09
  -2.84500003       2.51671395E-09
  -2.83999991       2.56871480E-09
  -2.83500004       2.62164734E-09
  -2.82999992       2.67551625E-09
  -2.82500005       2.73032530E-09
  -2.81999993       2.78612999E-09
  -2.81500006       2.84287593E-09
  -2.80999994       2.90065816E-09
  -2.80500007       2.95942248E-09
  -2.79999995       3.01918313E-09
  -2.79500008       3.07999781E-09
  -2.78999996       3.14186743E-09
  -2.78500009       3.20479554E-09
  -2.77999997       3.26880256E-09
  -2.77500010       3.33392292E-09
  -2.76999998       3.40014483E-09
  -2.76500010       3.46753271E-09
  -2.75999999       3.53609697E-09
  -2.75500011       3.60581653E-09
  -2.75000000       3.67677089E-09
  -2.74499989       3.74893627E-09
  -2.74000001       3.82233889E-09
  -2.73499990       3.89703514E-09
  -2.73000002       3.97298372E-09
  -2.72499990       4.05024281E-09
  -2.72000003       4.12882972E-09
  -2.71499991       4.20876178E-09
  -2.71000004       4.29004432E-09
  -2.70499992       4.37270309E-09
  -2.70000005       4.45674786E-09
  -2.69499993       4.54220084E-09
  -2.69000006       4.62910155E-09
  -2.68499994       4.71737271E-09
  -2.68000007       4.80713380E-09
  -2.67499995       4.89835994E-09
  -2.67000008       4.99102004E-09
  -2.66499996       5.08519404E-09
  -2.66000009       5.18088417E-09
  -2.65499997       5.27805399E-09
  -2.65000010       5.37675060E-09
  -2.64499998       5.47707923E-09
  -2.64000010       5.57896795E-09
  -2.63499999       5.68238656E-09
  -2.63000011       5.78751047E-09
  -2.62500000       5.89422955E-09
  -2.61999989       6.00266192E-09
  -2.61500001       6.11274897E-09
  -2.60999990       6.22449781E-09
  -2.60500002       6.33797237E-09
  -2.59999990       6.45321663E-09
  -2.59500003       6.57020527E-09
  -2.58999991       6.68909594E-09
  -2.58500004       6.80969858E-09
  -2.57999992       6.93220370E-09
  -2.57500005       7.05657310E-09
  -2.56999993       7.18270687E-09
  -2.56500006       7.31078753E-09
  -2.55999994       7.44068940E-09
  -2.55500007       7.57253549E-09
  -2.54999995       7.70635467E-09
  -2.54500008       7.84203635E-09
  -2.53999996       7.97973598E-09
  -2.53500009       8.11938072E-09
  -2.52999997       8.26105673E-09
  -2.52500010       8.40466363E-09
  -2.51999998       8.55033022E-09
  -2.51500010       8.69807160E-09
  -2.50999999       8.84787532E-09
  -2.50500011       8.99973518E-09
  -2.50000000       9.15365028E-09
  -2.49499989       9.30983024E-09
  -2.49000001       9.46806278E-09
  -2.48499990       9.62855662E-09
  -2.48000002       9.79119896E-09
  -2.47499990       9.95611327E-09
  -2.47000003       1.01232223E-08
  -2.46499991       1.02926085E-08
  -2.46000004       1.04643156E-08
  -2.45499992       1.06382840E-08
  -2.45000005       1.08147429E-08
  -2.44499993       1.09934302E-08
  -2.44000006       1.11745662E-08
  -2.43499994       1.13581784E-08
  -2.43000007       1.15443086E-08
  -2.42499995       1.17328627E-08
  -2.42000008       1.19238601E-08
  -2.41499996       1.21173036E-08
  -2.41000009       1.23132295E-08
  -2.40499997       1.25116602E-08
  -2.40000010       1.27126629E-08
  -2.39499998       1.29162698E-08
  -2.39000010       1.31224169E-08
  -2.38499999       1.33309852E-08
  -2.38000011       1.35423326E-08
  -2.37500000       1.37559129E-08
  -2.36999989       1.39720973E-08
  -2.36500001       1.41907304E-08
  -2.35999990       1.44118850E-08
  -2.35500002       1.46356687E-08
  -2.34999990       1.48619792E-08
  -2.34500003       1.50907322E-08
  -2.33999991       1.53220459E-08
  -2.33500004       1.55559938E-08
  -2.32999992       1.57927147E-08
  -2.32500005       1.60318390E-08
  -2.31999993       1.62737823E-08
  -2.31500006       1.65182836E-08
  -2.30999994       1.67656431E-08
  -2.30500007       1.70156689E-08
  -2.29999995       1.72684906E-08
  -2.29500008       1.75241439E-08
  -2.28999996       1.77826500E-08
  -2.28500009       1.80442523E-08
  -2.27999997       1.83088886E-08
  -2.27500010       1.85763813E-08
  -2.26999998       1.88467748E-08
  -2.26500010       1.91203569E-08
  -2.25999999       1.93971719E-08
  -2.25500011       1.96768326E-08
  -2.25000000       1.99593835E-08
  -2.24499989       2.02452171E-08
  -2.24000001       2.05340154E-08
  -2.23499990       2.08258371E-08
  -2.23000002       2.11205329E-08
  -2.22499990       2.14187228E-08
  -2.22000003       2.17193161E-08
  -2.21499991       2.20230589E-08
  -2.21000004       2.23294112E-08
  -2.20499992       2.26388988E-08
  -2.20000005       2.29510029E-08
  -2.19499993       2.32661677E-08
  -2.19000006       2.35839224E-08
  -2.18499994       2.39042599E-08
  -2.18000007       2.42275053E-08
  -2.17499995       2.45536782E-08
  -2.17000008       2.48820378E-08
  -2.16499996       2.52138594E-08
  -2.16000009       2.55478110E-08
  -2.15499997       2.58847717E-08
  -2.15000010       2.62246047E-08
  -2.14499998       2.65673155E-08
  -2.14000010       2.69130620E-08
  -2.13499999       2.72614500E-08
  -2.13000011       2.76125434E-08
  -2.12500000       2.79665588E-08
  -2.11999989       2.83233739E-08
  -2.11500001       2.86835906E-08
  -2.10999990       2.90463547E-08
  -2.10500002       2.94122895E-08
  -2.09999990       2.97811820E-08
  -2.09500003       3.01532133E-08
  -2.08999991       3.05277368E-08
  -2.08500004       3.09056070E-08
  -2.07999992       3.12865431E-08
  -2.07500005       3.16703179E-08
  -2.06999993       3.20572049E-08
  -2.06500006       3.24468949E-08
  -2.05999994       3.28391963E-08
  -2.05500007       3.32347483E-08
  -2.04999995       3.36320483E-08
  -2.04500008       3.40323361E-08
  -2.03999996       3.44359385E-08
  -2.03500009       3.48420492E-08
  -2.02999997       3.52502809E-08
  -2.02500010       3.56607401E-08
  -2.01999998       3.60747947E-08
  -2.01500010       3.64908139E-08
  -2.00999999       3.69095758E-08
  -2.00500011       3.73305653E-08
  -2.00000000       3.77536509E-08
  -1.99500000       3.81797243E-08
  -1.99000001       3.86082384E-08
  -1.98500001       3.90391044E-08
  -1.98000002       3.94729440E-08
  -1.97500002       3.99096614E-08
  -1.97000003       4.03490219E-08
  -1.96500003       4.07904857E-08
  -1.96000004       4.12342480E-08
  -1.95500004       4.16811972E-08
  -1.95000005       4.21307789E-08
  -1.94500005       4.25833804E-08
  -1.94000006       4.30385789E-08
  -1.93499994       4.34954863E-08
  -1.92999995       4.39562982E-08
  -1.92499995       4.44177175E-08
  -1.91999996       4.48823698E-08
  -1.91499996       4.53492355E-08
  -1.90999997       4.58184992E-08
  -1.90499997       4.62900154E-08
  -1.89999998       4.67622812E-08
  -1.89499998       4.72373038E-08
  -1.88999999       4.77146607E-08
  -1.88499999       4.81933675E-08
  -1.88000000       4.86751190E-08
  -1.87500000       4.91576131E-08
  -1.87000000       4.96421961E-08
  -1.86500001       5.01287580E-08
  -1.86000001       5.06170572E-08
  -1.85500002       5.11071079E-08
  -1.85000002       5.15998835E-08
  -1.84500003       5.20934265E-08
  -1.84000003       5.25892894E-08
  -1.83500004       5.30866870E-08
  -1.83000004       5.35867528E-08
  -1.82500005       5.40895044E-08
  -1.82000005       5.45938263E-08
  -1.81500006       5.51010046E-08
  -1.80999994       5.56103075E-08
  -1.80499995       5.61216353E-08
  -1.79999995       5.66351908E-08
  -1.79499996       5.71518584E-08
  -1.78999996       5.76706185E-08
  -1.78499997       5.81915423E-08
  -1.77999997       5.87145017E-08
  -1.77499998       5.92397491E-08
  -1.76999998       5.97679275E-08
  -1.76499999       6.02989658E-08
  -1.75999999       6.08312405E-08
  -1.75500000       6.13664213E-08
  -1.75000000       6.19041742E-08
  -1.74500000       6.24443572E-08
  -1.74000001       6.29875672E-08
  -1.73500001       6.35319211E-08
  -1.73000002       6.40787761E-08
  -1.72500002       6.46291198E-08
  -1.72000003       6.51806928E-08