 -0.622799993       0.00000000    
 -0.610800028       0.00000000    
 -0.598800004       0.00000000    
 -0.586799979       0.00000000    
 -0.574800014      -2.87226391E-21
 -0.562799990      -1.95467092E-20
 -0.550800025      -6.68815463E-20
 -0.538800001      -1.46541288E-19
 -0.526799977      -2.13326894E-19
 -0.514800012      -1.81509302E-19
 -0.502799988      -4.35857459E-20
 -0.490799993      -1.32140448E-19
 -0.478799999      -1.41052131E-18
 -0.466800004      -5.48264657E-18
 -0.454800010      -1.39233224E-17
 -0.442799985      -2.67488273E-17
 -0.430799991      -4.04643819E-17
 -0.418799996      -4.69498914E-17
 -0.406800002      -3.49523216E-17
 -0.394800007       4.52809214E-18
 -0.382800013       6.95195343E-17
 -0.370799989       1.38413905E-16
 -0.358799994       1.67177013E-16
 -0.346799999       9.83729374E-17
 -0.334800005      -1.15729278E-16
 -0.322800010      -4.80938637E-16
 -0.310799986      -9.32955758E-16
 -0.298799992      -1.33094213E-15
 -0.286799997      -1.48716158E-15
 -0.274800003      -1.23404167E-15
 -0.262800008      -5.10901475E-16
 -0.250800014       5.64381706E-16
 -0.238800004       1.67827604E-15
 -0.226799995       2.38448499E-15
 -0.214800000       2.24099168E-15
 -0.202800006       9.78643868E-16
 -0.190799996      -1.36558260E-15
 -0.178800002      -4.41333473E-15
 -0.166800007      -7.53345852E-15
 -0.154799998      -1.00236320E-14
 -0.142800003      -1.13053386E-14
 -0.130799994      -1.10406205E-14
 -0.118799999      -9.11930240E-15
 -0.106799997      -5.54499997E-15
  -9.48000029E-02  -3.26892911E-16
  -8.28000009E-02   6.49012738E-15
  -7.07999989E-02   1.45874676E-14
  -5.88000007E-02   2.30013152E-14
  -4.67999987E-02   2.98544657E-14
  -3.48000005E-02   3.25118892E-14
  -2.28000004E-02   2.83956310E-14
  -1.08000003E-02   1.64161406E-14
   1.20000006E-03  -1.41804549E-15
   1.31999999E-02  -1.89912122E-14
   2.52000000E-02  -2.65248808E-14
   3.72000001E-02  -1.29893002E-14
   4.91999984E-02   2.97501519E-14
   6.12000003E-02   1.02216155E-13
   7.32000023E-02   1.93932842E-13
   8.51999968E-02   2.83388954E-13
   9.71999988E-02   3.42611898E-13
  0.109200001       3.46036215E-13
  0.121200003       2.81402858E-13
  0.133200005       1.58851759E-13
  0.145199999       1.39539606E-14
  0.157199994      -9.83396036E-14
  0.169200003      -1.19045642E-13
  0.181199998      -6.38102318E-15
  0.193200007       2.43716451E-13
  0.205200002       5.85740495E-13
  0.217199996       9.28009405E-13
  0.229200006       1.15365931E-12
  0.241200000       1.15559916E-12
  0.253199995       8.75919292E-13
  0.265199989       3.36702210E-13
  0.277200013      -3.50303147E-13
  0.289200008      -1.00261184E-12
  0.301200002      -1.41343447E-12
  0.313199997      -1.41493750E-12
  0.325199991      -9.40254276E-13
  0.337199986      -6.37954384E-14
  0.349200010       9.96496722E-13
  0.361200005       1.92133484E-12
  0.373199999       2.36988727E-12
  0.385199994       2.07789190E-12
  0.397199988       9.47146441E-13
  0.409200013      -9.00571230E-13
  0.421200007      -3.12390543E-12
  0.433200002      -5.22105059E-12
  0.445199996      -6.63562000E-12
  0.457199991      -6.88374531E-12
  0.469199985      -5.67043374E-12
  0.481200010      -2.96589532E-12
  0.493200004       9.76335115E-13
  0.505200028       5.66150685E-12
  0.517199993       1.04417438E-11
  0.529200017       1.46245273E-11
  0.541199982       1.75729674E-11
  0.553200006       1.87753875E-11
  0.565199971       1.78748526E-11
  0.577199996       1.46649116E-11
  0.589200020       9.07072160E-12
  0.601199985       1.14032861E-12
  0.613200009      -8.93297415E-12
  0.625199974      -2.07490969E-11
  0.637199998      -3.36100939E-11
  0.649200022      -4.64270150E-11
  0.661199987      -5.76638771E-11
  0.673200011      -6.53597385E-11
  0.685199976      -6.72601766E-11
  0.697200000      -6.10697534E-11
  0.709200025      -4.48118313E-11
  0.721199989      -1.72568175E-11
  0.733200014       2.16399381E-11
  0.745199978       7.03602246E-11
  0.757200003       1.25575009E-10
  0.769200027       1.82087040E-10
  0.781199992       2.33008779E-10
  0.793200016       2.70199613E-10
  0.805199981       2.84963692E-10
  0.817200005       2.68983946E-10
  0.829200029       2.15439902E-10
  0.841199994       1.20226523E-10
  0.853200018      -1.68428726E-11
  0.865199983      -1.90996330E-10
  0.877200007      -3.91794319E-10
  0.889199972      -6.02925432E-10
  0.901199996      -8.02658773E-10
  0.913200021      -9.65056368E-10
  0.925199986      -1.06196807E-09
  0.937200010      -1.06573528E-09
  0.949199975      -9.52418477E-10
  0.961199999      -7.05264236E-10
  0.973200023      -3.18043258E-10
  0.985199988       2.02153516E-10
  0.997200012       8.33087987E-10
   1.00919998       1.53690938E-09
   1.02119994       2.26136820E-09
   1.03320003       2.94292235E-09
   1.04519999       3.51178842E-09
   1.05719995       3.89881905E-09
   1.06920004       4.04385325E-09
   1.08120000       3.90498256E-09
   1.09319997       3.46792084E-09
   1.10520005       2.75451062E-09
   1.11720002       1.82925863E-09
   1.12919998       8.02840405E-10
   1.14119995      -1.68330669E-10
   1.15320003      -8.87034501E-10
   1.16520000      -1.12471299E-09
   1.17719996      -6.34885922E-10
   1.18920004       8.30822633E-10
   1.20120001       3.50612672E-09
   1.21319997       7.59562990E-09
   1.22520006       1.32657245E-08
   1.23720002       2.06442028E-08
   1.24919999       2.98319307E-08
   1.26119995       4.09295708E-08
   1.27320004       5.40814753E-08
   1.28520000       6.95379612E-08
   1.29719996       8.77358204E-08
   1.30920005       1.09395160E-07
   1.32120001       1.35629207E-07
   1.33319998       1.68061902E-07
   1.34519994       2.08946616E-07
   1.35720003       2.61277592E-07
   1.36919999       3.28885335E-07
   1.38119996       4.16506481E-07
   1.39320004       5.29817896E-07
   1.40520000       6.75427884E-07
   1.41719997       8.60815078E-07
   1.42920005       1.09421205E-06
   1.44120002       1.38442920E-06
   1.45319998       1.74062086E-06
   1.46519995       2.17199749E-06
   1.47720003       2.68748863E-06
   1.48920000       3.29537443E-06
   1.50119996       4.00289173E-06
   1.51320004       4.81583493E-06
   1.52520001       5.73817397E-06
   1.53719997       6.77169965E-06
   1.54920006       7.91572893E-06
   1.56120002       9.16686804E-06
   1.57319999       1.05188738E-05
   1.58519995       1.19626002E-05
   1.59720004       1.34860538E-05
   1.60920000       1.50745600E-05
   1.62119997       1.67110193E-05
   1.63320005       1.83762859E-05
   1.64520001       2.00495870E-05
   1.65719998       2.17090565E-05
   1.66919994       2.33322971E-05
   1.68120003       2.48969573E-05
   1.69319999       2.63813290E-05
   1.70519996       2.77649142E-05
   1.71720004       2.90289554E-05
   1.72920001       3.01569053E-05
   1.74119997       3.11348122E-05
   1.75320005       3.19516257E-05
   1.76520002       3.25993860E-05
   1.77719998       3.30733637E-05
   1.78919995       3.33720345E-05
   1.80120003       3.34970318E-05
   1.81320000       3.34529941E-05
   1.82519996       3.32473392E-05
   1.83720005       3.28900314E-05
   1.84920001       3.23932763E-05
   1.86119998       3.17712329E-05
   1.87320006       3.10396936E-05
   1.88520002       3.02157878E-05
   1.89719999       2.93176854E-05
   1.90919995       2.83643458E-05
   1.92120004       2.73752576E-05
   1.93320000       2.63702004E-05
   1.94519997       2.53690523E-05
   1.95720005       2.43915583E-05
   1.96920002       2.34571235E-05
   1.98119998       2.25845979E-05
   1.99319994       2.17920297E-05
   2.00519991       2.10964008E-05
   2.01719999       2.05133383E-05
   2.02920008       2.00567774E-05
   2.04119992       1.97386216E-05
   2.05320001       1.95683788E-05
   2.06520009       1.95527828E-05
   2.07719994       1.96954352E-05
   2.08920002       1.99964852E-05
   2.10120010       2.04523458E-05
   2.11319995       2.10554899E-05
   2.12520003       2.17943525E-05
   2.13720012       2.26533284E-05
   2.14919996       2.36129199E-05
   2.16120005       2.46500131E-05
   2.17319989       2.57383253E-05
   2.18519998       2.68489875E-05
   2.19720006       2.79512806E-05
   2.20919991       2.90134976E-05
   2.22119999       3.00039083E-05
   2.23320007       3.08918097E-05
   2.24519992       3.16485930E-05
   2.25720000       3.22488377E-05
   2.26920009       3.26713380E-05
   2.28119993       3.29000504E-05
   2.29320002       3.29249015E-05
   2.30520010       3.27424459E-05
   2.31719995       3.23562963E-05
   2.32920003       3.17773229E-05
   2.34120011       3.10236355E-05
   2.35319996       3.01202635E-05
   2.36520004       2.90986136E-05
   2.37719989       2.79956621E-05
   2.38919997       2.68529166E-05
   2.40120006       2.57152096E-05
   2.41319990       2.46292948E-05
   2.42519999       2.36423657E-05
   2.43720007       2.28004774E-05
   2.44919991       2.21469854E-05
   2.46120000       2.17210127E-05
   2.47320008       2.15560121E-05
   2.48519993       2.16784956E-05
   2.49720001       2.21069477E-05
   2.50920010       2.28509980E-05
   2.52119994       2.39108485E-05
   2.53320003       2.52770205E-05
   2.54520011       2.69304091E-05
   2.55719995       2.88426345E-05
   2.56920004       3.09767383E-05
   2.58119988       3.32881100E-05
   2.59319997       3.57257122E-05
   2.60520005       3.82334692E-05
   2.61719990       4.07518528E-05
   2.62919998       4.32195484E-05
   2.64120007       4.55751760E-05
   2.65319991       4.77590111E-05
   2.66520000       4.97146357E-05
   2.67720008       5.13904270E-05
   2.68919992       5.27409320E-05
   2.70120001       5.37279993E-05
   2.71320009       5.43216302E-05
   2.72519994       5.45006114E-05
   2.73720002       5.42528505E-05
   2.74920011       5.35753825E-05
   2.76119995       5.24741772E-05
   2.77320004       5.09636302E-05
   2.78520012       4.90658967E-05
   2.79719996       4.68099606E-05
   2.80920005       4.42306227E-05
   2.82119989       4.13673697E-05
   2.83319998       3.82631297E-05
   2.84520006       3.49630682E-05
   2.85719991       3.15133511E-05
   2.86919999       2.79599790E-05
   2.88120008       2.43477079E-05
   2.89319992       2.07190806E-05
   2.90520000       1.71135798E-05
   2.91720009       1.35669525E-05
   2.92919993       1.01106771E-05
   2.94120002       6.77160915E-06
   2.95320010       3.57178624E-06
   2.96519995       5.28379758E-07
   2.97720003      -2.34618074E-06
   2.98920012      -5.04398167E-06
   3.00119996      -7.56125519E-06
   3.01320004      -9.89794898E-06
   3.02519989      -1.20571958E-05
   3.03719997      -1.40447464E-05
   3.04920006      -1.58683670E-05
   3.06119990      -1.75372315E-05
   3.07319999      -1.90613300E-05
   3.08520007      -2.04509015E-05
   3.09719992      -2.17159068E-05
   3.10920000      -2.28655681E-05
   3.12120008      -2.39079745E-05
   3.13319993      -2.48497490E-05
   3.14520001      -2.56958047E-05
   3.15720010      -2.64491828E-05
   3.16919994      -2.71109511E-05
   3.18120003      -2.76802093E-05
   3.19320011      -2.81541579E-05
   3.20519996      -2.85282313E-05
   3.21720004      -2.87963321E-05
   3.22919989      -2.89511299E-05
   3.24119997      -2.89844011E-05
   3.25320005      -2.88874726E-05
   3.26519990      -2.86516843E-05
   3.27719998      -2.82689161E-05
   3.28920007      -2.77321324E-05
   3.30119991      -2.70359415E-05
   3.31320000      -2.61771402E-05
   3.32520008      -2.51552410E-05
   3.33719993      -2.39729179E-05
   3.34920001      -2.26363936E-05
   3.36120009      -2.11556999E-05
   3.37319994      -1.95448119E-05
   3.38520002      -1.78216214E-05
   3.39720011      -1.60077561E-05
   3.40919995      -1.41282180E-05
   3.42120004      -1.22108440E-05
   3.43319988      -1.02856166E-05
   3.44519997      -8.38381584E-06
   3.45720005      -6.53708139E-06
   3.46919990      -4.77638514E-06
   3.48119998      -3.13097917E-06
   3.49320006      -1.62736967E-06
   3.50519991      -2.88352794E-07
   3.51719999       8.67827964E-07
   3.52920008       1.82816541E-06
   3.54119992       2.58537557E-06
   3.55320001       3.13816167E-06
   3.56520009       3.49124207E-06
   3.57719994       3.65513347E-06
   3.58920002       3.64570246E-06
   3.60120010       3.48349977E-06
   3.61319995       3.19290939E-06
   3.62520003       2.80115000E-06
   3.63720012       2.33717401E-06
   3.64919996       1.83051418E-06
   3.66120005       1.31013053E-06
   3.67319989       8.03306762E-07
   3.68519998       3.34647751E-07
   3.69720006      -7.47833084E-08
   3.70919991      -4.08151692E-07
   3.72119999      -6.53339441E-07
   3.73320007      -8.03220701E-07
   3.74519992      -8.55720259E-07
   3.75720000      -8.13664258E-07
   3.76920009      -6.84436202E-07
   3.78119993      -4.79461846E-07
   3.79320002      -2.13551360E-07
   3.80520010       9.58704831E-08
   3.81719995       4.29612385E-07
   3.82920003       7.67609208E-07
   3.84120011       1.08982283E-06
   3.85319996       1.37711811E-06
   3.86520004       1.61208243E-06
   3.87719989       1.77975710E-06
   3.88919997       1.86825548E-06
   3.90120006       1.86924592E-06
   3.91319990       1.77828178E-06
   3.92519999       1.59497154E-06
   3.93720007       1.32298260E-06
   3.94919991       9.69883445E-07
   3.96120000       5.46834940E-07
   3.97320008       6.81429029E-08
   3.98519993      -4.49307947E-07
   3.99720001      -9.86715349E-07
   4.00920010      -1.52409291E-06
   4.02120018      -2.04104708E-06
   4.03319979      -2.51756933E-06
   4.04519987      -2.93481389E-06
   4.05719995      -3.27583325E-06
   4.06920004      -3.52623806E-06
   4.08120012      -3.67476378E-06
   4.09320021      -3.71370993E-06
   4.10519981      -3.63924460E-06
   4.11719990      -3.45155468E-06
   4.12919998      -3.15483953E-06
   4.14120007      -2.75714569E-06
   4.15320015      -2.27005603E-06
   4.16520023      -1.70824251E-06
   4.17719984      -1.08890220E-06
   4.18919992      -4.31103786E-07
   4.20120001       2.44934228E-07
   4.21320009       9.18604655E-07
   4.22520018       1.56968338E-06
   4.23719978       2.17908473E-06
   4.24919987       2.72957323E-06
   4.26119995       3.20640493E-06
   4.27320004       3.59787805E-06
   4.28520012       3.89576053E-06
   4.29720020       4.09558515E-06
   4.30919981       4.19679418E-06
   4.32119989       4.20271954E-06
   4.33319998       4.12040299E-06
   4.34520006       3.96026508E-06
   4.35720015       3.73562557E-06
   4.36920023       3.46211277E-06
   4.38119984       3.15697957E-06
   4.39319992       2.83836266E-06
   4.40520000       2.52452173E-06
   4.41720009       2.23308757E-06
   4.42920017       1.98036150E-06
   4.44119978       1.78068751E-06
   4.45319986       1.64593075E-06
   4.46519995       1.58508010E-06
   4.47720003       1.60399577E-06
   4.48920012       1.70530154E-06
   4.50120020       1.88843171E-06
   4.51319981       2.14981765E-06
   4.52519989       2.48320521E-06
   4.53719997       2.88007323E-06
   4.54920006       3.33012940E-06
   4.56120014       3.82185408E-06
   4.57320023       4.34305821E-06
   4.58519983       4.88142678E-06
   4.59719992       5.42502403E-06
   4.60920000       5.96274003E-06
   4.62120008       6.48466403E-06
   4.63320017       6.98237454E-06
   4.64519978       7.44914041E-06
   4.65719986       7.88003581E-06
   4.66919994       8.27196436E-06
   4.68120003       8.62360866E-06
   4.69320011       8.93529523E-06
   4.70520020       9.20880757E-06
   4.71719980       9.44713247E-06
   4.72919989       9.65417439E-06
   4.74119997       9.83442806E-06
   4.75320005       9.99264830E-06
   4.76520014       1.01335090E-05
   4.77720022       1.02612767E-05
   4.78919983       1.03795173E-05
   4.80119991       1.04908349E-05
   4.81320000       1.05966747E-05
   4.82520008       1.06971847E-05
   4.83720016       1.07911546E-05
   4.84919977       1.08760414E-05
   4.86119986       1.09480688E-05
   4.87319994       1.10024275E-05
   4.88520002       1.10335459E-05
   4.89720011       1.10354413E-05
   4.90920019       1.10021292E-05
   4.92119980       1.09280727E-05
   4.93319988       1.08086579E-05
   4.94519997       1.06406596E-05
   4.95720005       1.04226765E-05
   4.96920013       1.01555106E-05
   4.98120022       9.84246162E-06
   4.99319983       9.48951310E-06
   5.00519991       9.10541166E-06
   5.01719999       8.70159329E-06
   5.02920008       8.29199871E-06
   5.04120016       7.89275146E-06
   5.05319977       7.52171582E-06
   5.06519985       7.19796117E-06
   5.07719994       6.94115124E-06
   5.08920002       6.77087519E-06
   5.10120010       6.70596091E-06
   5.11320019       6.76378386E-06
   5.12519979       6.95960034E-06
   5.13719988       7.30592683E-06
   5.14919996       7.81198196E-06
   5.16120005       8.48320633E-06
   5.17320013       9.32086823E-06
   5.18520021       1.03217762E-05
   5.19719982       1.14780951E-05
   5.20919991       1.27772837E-05
   5.22119999       1.42021581E-05
   5.23320007       1.57310860E-05
   5.24520016       1.73383251E-05
   5.25719976       1.89945004E-05
   5.26919985       2.06672175E-05
   5.28119993       2.23218267E-05
   5.29320002       2.39223191E-05
   5.30520010       2.54323350E-05
   5.31720018       2.68162694E-05
   5.32919979       2.80404674E-05
   5.34119987       2.90744265E-05
   5.35319996       2.98920131E-05
   5.36520004       3.04725963E-05
   5.37720013       3.08020826E-05
   5.38920021       3.08737399E-05
   5.40119982       3.06888141E-05
   5.41319990       3.02568405E-05
   5.42519999       2.95956343E-05
   5.43720007       2.87309176E-05
   5.44920015       2.76955980E-05
   5.46120024       2.65286762E-05
   5.47319984       2.52738500E-05
   5.48519993       2.39778383E-05
   5.49720001       2.26885204E-05
   5.50920010       2.14529209E-05
   5.52120018       2.03152031E-05
   5.53319979       1.93147225E-05
   5.54519987       1.84842465E-05
   5.55719995       1.78484624E-05
   5.56920004       1.74228153E-05
   5.58120012       1.72127729E-05
   5.59320021       1.72135533E-05
   5.60519981       1.74103134E-05
   5.61719990       1.77788297E-05
   5.62919998       1.82866042E-05
   5.64120007       1.88943595E-05
   5.65320015       1.95578377E-05
   5.66520023       2.02298306E-05
   5.67719984       2.08622951E-05
   5.68919992       2.14084994E-05
   5.70120001       2.18250643E-05
   5.71320009       2.20738020E-05
   5.72520018       2.21232840E-05
   5.73719978       2.19500653E-05
   5.74919987       2.15395157E-05
   5.76119995       2.08862439E-05
   5.77320004       1.99941223E-05
   5.78520012       1.88758859E-05
   5.79720020       1.75524219E-05
   5.80919981       1.60517229E-05
   5.82119989       1.44076239E-05
   5.83319998       1.26583700E-05
   5.84520006       1.08450840E-05
   5.85720015       9.01022486E-06
   5.86920023       7.19608443E-06
   5.88119984       5.44338809E-06
   5.89319992       3.79005883E-06
   5.90520000       2.27016244E-06
   5.91720009       9.13080214E-07
   5.92920017      -2.57095252E-07
   5.94119978      -1.22192580E-06
   5.95319986      -1.96876908E-06
   5.96519995      -2.49071263E-06
   5.97720003      -2.78632297E-06
   5.98920012      -2.85923761E-06
   6.00120020      -2.71763838E-06
   6.01319981      -2.37363088E-06
   6.02519989      -1.84257613E-06
   6.03719997      -1.14239731E-06
   6.04920006      -2.92897568E-07
   6.06120014       6.84882991E-07
   6.07320023       1.76925471E-06
   6.08519983       2.93838639E-06
   6.09719992       4.17072488E-06
   6.10920000       5.44531713E-06
   6.12120008       6.74204330E-06
   6.13320017       8.04175397E-06
   6.14519978       9.32633702E-06
   6.15719986       1.05787230E-05
   6.16919994       1.17828504E-05
   6.18120003       1.29236159E-05
   6.19320011       1.39868234E-05
   6.20520020       1.49591688E-05
   6.21719980       1.58282546E-05
   6.22919989       1.65826659E-05
   6.24119997       1.72120999E-05
   6.25320005       1.77075708E-05
   6.26520014       1.80616571E-05
   6.27720022       1.82688163E-05
   6.28919983       1.83257052E-05
   6.30119991       1.82315289E-05
   6.31320000       1.79883718E-05
   6.32520008       1.76014692E-05
   6.33720016       1.70794137E-05
   6.34919977       1.64342509E-05
   6.36119986       1.56814494E-05
   6.37319994       1.48397248E-05
   6.38520002       1.39306876E-05
   6.39720011       1.29783466E-05
   6.40920019       1.20084533E-05
   6.42119980       1.10477085E-05
   6.43319988       1.01228770E-05
   6.44519997       9.25983386E-06
   6.45720005       8.48259606E-06
   6.46920013       7.81239214E-06
   6.48120022       7.26681310E-06
   6.49319983       6.85910709E-06
   6.50519991       6.59764555E-06
   6.51719999       6.48560535E-06
   6.52920008       6.52088238E-06
   6.54120016       6.69624933E-06
   6.55319977       6.99974771E-06
   6.56519985       7.41530039E-06
   6.57719994       7.92350511E-06
   6.58920002       8.50257038E-06
   6.60120010       9.12933410E-06
   6.61320019       9.78031221E-06
   6.62519979       1.04327100E-05
   6.63719988       1.10653427E-05
   6.64919996       1.16594047E-05
   6.66120005       1.21990579E-05
   6.67320013       1.26718041E-05
   6.68520021       1.30686294E-05
   6.69719982       1.33839303E-05
   6.70919991       1.36152339E-05
   6.72119999       1.37627612E-05
   6.73320007       1.38288642E-05
   6.74520016       1.38173900E-05
   6.75719976       1.37330226E-05
   6.76919985       1.35806513E-05
   6.78119993       1.33648155E-05
   6.79320002       1.30892604E-05
   6.80520010       1.27566072E-05
   6.81720018       1.23681857E-05
   6.82919979       1.19240185E-05
   6.84119987       1.14229297E-05
   6.85319996       1.08628019E-05
   6.86520004       1.02409031E-05
   6.87720013       9.55430460E-06
   6.88920021       8.80030802E-06
   6.90119982       7.97688608E-06
   6.91319990       7.08306879E-06
   6.92519999       6.11928317E-06
   6.93720007       5.08759695E-06
   6.94920015       3.99187184E-06
   6.96120024       2.83781128E-06
   6.97319984       1.63292668E-06
   6.98519993       3.86406043E-07
   6.99720001      -8.91084483E-07
   7.00920010      -2.18764785E-06
   7.02120018      -3.49043466E-06
   7.03319979      -4.78594211E-06
   7.04519987      -6.06030835E-06
   7.05719995      -7.29959629E-06
   7.06920004      -8.49004755E-06
   7.08120012      -9.61831211E-06
   7.09320021      -1.06716461E-05
   7.10519981      -1.16380761E-05
   7.11719990      -1.25065380E-05
   7.12919998      -1.32669966E-05
   7.14120007      -1.39105478E-05
   7.15320015      -1.44295145E-05
   7.16520023      -1.48175350E-05
   7.17719984      -1.50696578E-05
   7.18919992      -1.51824379E-05
   7.20120001      -1.51540162E-05
   7.21320009      -1.49842135E-05
   7.22520018      -1.46745888E-05
   7.23719978      -1.42284825E-05
   7.24919987      -1.36510216E-05
   7.26119995      -1.29490809E-05
   7.27320004      -1.21311905E-05
   7.28520012      -1.12073949E-05
   7.29720020      -1.01890555E-05
   7.30919981      -9.08860693E-06
   7.32119989      -7.91926323E-06
   7.33319998      -6.69470774E-06
   7.34520006      -5.42875523E-06
   7.35720015      -4.13501903E-06
   7.36920023      -2.82658743E-06
   7.38119984      -1.51573340E-06
   7.39319992      -2.13665913E-07
   7.40520000       1.06965831E-06
   7.41720009       2.32566276E-06
   7.42920017       3.54719782E-06
   7.44119978       4.72852071E-06
   7.45319986       5.86519946E-06
   7.46519995       6.95395511E-06
   7.47720003       7.99245663E-06
   7.48920012       8.97908103E-06
   7.50120020       9.91266006E-06
   7.51319981       1.07922369E-05
   7.52519989       1.16168412E-05
   7.53719997       1.23853142E-05
   7.54920006       1.30961653E-05
   7.56120014       1.37475199E-05
   7.57320023       1.43370899E-05
   7.58519983       1.48622230E-05
   7.59719992       1.53199890E-05
   7.60920000       1.57073173E-05
   7.62120008       1.60211475E-05
   7.63320017       1.62586057E-05
   7.64519978       1.64171906E-05
   7.65719986       1.64949543E-05
   7.66919994       1.64906633E-05
   7.68120003       1.64039593E-05
   7.69320011       1.62354881E-05
   7.70520020       1.59870015E-05
   7.71719980       1.56614205E-05
   7.72919989       1.52628800E-05
   7.74119997       1.47967294E-05
   7.75320005       1.42695071E-05
   7.76520014       1.36888766E-05
   7.77720022       1.30635444E-05
   7.78919983       1.24031567E-05
   7.80119991       1.17181689E-05
   7.81320000       1.10197161E-05
   7.82520008       1.03194616E-05
   7.83720016       9.62943614E-06
   7.84919977       8.96186884E-06
   7.86119986       8.32900059E-06
   7.87319994       7.74288037E-06
   7.88520002       7.21514562E-06
   7.89720011       6.75678712E-06
   7.90920019       6.37788980E-06
   7.92119980       6.08737173E-06
   7.93319988       5.89270758E-06
   7.94519997       5.79966581E-06
   7.95720005       5.81205313E-06
   7.96920013       5.93149070E-06
   7.98120022       6.15723047E-06
   7.99319983       6.48602327E-06
   8.00520039       6.91205378E-06
   8.01720047       7.42695011E-06
   8.02919960       8.01988153E-06
   8.04119968       8.67774452E-06
   8.05319977       9.38544144E-06
   8.06519985       1.01262522E-05
   8.07719994       1.08822978E-05
   8.08920002       1.16350511E-05
   8.10120010       1.23659356E-05
   8.11320019       1.30569288E-05
   8.12520027       1.36911749E-05
   8.13720036       1.42535728E-05
   8.14920044       1.47313158E-05
   8.16119957       1.51143413E-05
   8.17319965       1.53956953E-05
   8.18519974       1.55717644E-05
   8.19719982       1.56423939E-05
   8.20919991       1.56108854E-05
   8.22119999       1.54838581E-05
   8.23320007       1.52710036E-05
   8.24520016       1.49847447E-05
   8.25720024       1.46398042E-05
   8.26920033       1.42527078E-05
   8.28120041       1.38412497E-05
   8.29319954       1.34239199E-05
   8.30519962       1.30193403E-05
   8.31719971       1.26456998E-05
   8.32919979       1.23202199E-05
   8.34119987       1.20586574E-05
   8.35319996       1.18748503E-05
   8.36520004       1.17803138E-05
   8.37720013       1.17838854E-05
   8.38920021       1.18914359E-05
   8.40120029       1.21056210E-05
   8.41320038       1.24257094E-05
   8.42520046       1.28474740E-05
   8.43719959       1.33631574E-05
   8.44919968       1.39615313E-05
   8.46119976       1.46280445E-05
   8.47319984       1.53450783E-05
   8.48519993       1.60923282E-05
   8.49720001       1.68472980E-05
   8.50920010       1.75859059E-05
   8.52120018       1.82832100E-05
   8.53320026       1.89142320E-05
   8.54520035       1.94548375E-05
   8.55720043       1.98826765E-05
   8.56919956       2.01780986E-05
   8.58119965       2.03250602E-05
   8.59319973       2.03119052E-05
   8.60519981       2.01320472E-05
   8.61719990       1.97844638E-05
   8.62919998       1.92739735E-05
   8.64120007       1.86113048E-05
   8.65320015       1.78128957E-05
   8.66520023       1.69004416E-05
   8.67720032       1.59002320E-05
   8.68920040       1.48422496E-05
   8.70119953       1.37590914E-05
   8.71319962       1.26847872E-05
   8.72519970       1.16535239E-05
   8.73719978       1.06983662E-05
   8.74919987       9.85001498E-06
   8.76119995       9.13567965E-06
   8.77320004       8.57809664E-06
   8.78520012       8.19474371E-06
   8.79720020       7.99727968E-06
   8.80920029       7.99122336E-06
   8.82120037       8.17588079E-06
   8.83320045       8.54450718E-06
   8.84519958       9.08468792E-06
   8.85719967       9.77891250E-06
   8.86919975       1.06053049E-05
   8.88119984       1.15384673E-05
   8.89319992       1.25504002E-05
   8.90520000       1.36114677E-05
   8.91720009       1.46913526E-05
   8.92920017       1.57599807E-05
   8.94120026       1.67883900E-05
   8.95320034       1.77495240E-05
   8.96520042       1.86189045E-05
   8.97719955       1.93752276E-05
   8.98919964       2.00008217E-05
   9.00119972       2.04819935E-05
   9.01319981       2.08092697E-05
   9.02519989       2.09775026E-05
   9.03719997       2.09858918E-05
   9.04920006       2.08378715E-05
   9.06120014       2.05409106E-05
   9.07320023       2.01062194E-05
   9.08520031       1.95483572E-05
   9.09720039       1.88847680E-05
   9.10919952       1.81352407E-05
   9.12119961       1.73213120E-05
   9.13319969       1.64656303E-05
   9.14519978       1.55912821E-05
   9.15719986       1.47211276E-05
   9.16919994       1.38771193E-05
   9.18120003       1.30796634E-05
   9.19320011       1.23470145E-05
   9.20520020       1.16947522E-05
   9.21720028       1.11353174E-05
   9.22920036       1.06776833E-05
   9.24120045       1.03271313E-05
   9.25319958       1.00851667E-05
   9.26519966       9.94959555E-06
   9.27719975       9.91473189E-06
   9.28919983       9.97175903E-06
   9.30119991       1.01092128E-05
   9.31320000       1.03135753E-05
   9.32520008       1.05699428E-05
   9.33720016       1.08627401E-05
   9.34920025       1.11764602E-05
   9.36120033       1.14963741E-05
   9.37320042       1.18091993E-05
   9.38519955       1.21036828E-05
   9.39719963       1.23710688E-05
   9.40919971       1.26054338E-05
   9.42119980       1.28038600E-05
   9.43319988       1.29664422E-05
   9.44519997       1.30961198E-05
