 -0.622799993       0.00000000    
 -0.610800028       0.00000000    
 -0.598800004       0.00000000    
 -0.586799979       0.00000000    
 -0.574800014      -0.00000000    
 -0.562799990       3.77428765E-23
 -0.550800025       2.81152223E-22
 -0.538800001       9.80117543E-22
 -0.526799977       1.81231900E-21
 -0.514800012       3.14342491E-22
 -0.502799988      -9.96517328E-21
 -0.490799993      -3.97059716E-20
 -0.478799999      -1.00457253E-19
 -0.466800004      -1.97978067E-19
 -0.454800010      -3.26559946E-19
 -0.442799985      -4.70954920E-19
 -0.430799991      -6.19298130E-19
 -0.418799996      -7.81258802E-19
 -0.406800002      -9.96744056E-19
 -0.394800007      -1.32219279E-18
 -0.382800013      -1.79975952E-18
 -0.370799989      -2.44125008E-18
 -0.358799994      -3.26956517E-18
 -0.346799999      -4.42988760E-18
 -0.334800005      -6.30901572E-18
 -0.322800010      -9.52609400E-18
 -0.310799986      -1.46590764E-17
 -0.298799992      -2.17134299E-17
 -0.286799997      -2.96049265E-17
 -0.274800003      -3.61721549E-17
 -0.262800008      -3.92202890E-17
 -0.250800014      -3.86355583E-17
 -0.238800004      -3.87436113E-17
 -0.226799995      -4.92138914E-17
 -0.214800000      -8.26123079E-17
 -0.202800006      -1.47794464E-16
 -0.190799996      -2.40780497E-16
 -0.178800002      -3.37705260E-16
 -0.166800007      -3.96165700E-16
 -0.154799998      -3.69875439E-16
 -0.142800003      -2.36031395E-16
 -0.130799994      -2.63542738E-17
 -0.118799999       1.55007943E-16
 -0.106799997       1.45537902E-16
  -9.48000029E-02  -2.18797597E-16
  -8.28000009E-02  -1.01156317E-15
  -7.07999989E-02  -2.12019758E-15
  -5.88000007E-02  -3.19667608E-15
  -4.67999987E-02  -3.70532530E-15
  -3.48000005E-02  -3.09329021E-15
  -2.28000004E-02  -1.05913106E-15
  -1.08000003E-02   2.16525148E-15
   1.20000006E-03   5.64940864E-15
   1.31999999E-02   7.84859543E-15
   2.52000000E-02   7.01226347E-15
   3.72000001E-02   1.87636877E-15
   4.91999984E-02  -7.54379147E-15
   6.12000003E-02  -1.93619721E-14
   7.32000023E-02  -2.97676821E-14
   8.51999968E-02  -3.37566685E-14
   9.71999988E-02  -2.66652223E-14
  0.109200001      -6.21278804E-15
  0.121200003       2.55565764E-14
  0.133200005       6.12346003E-14
  0.145199999       8.86667110E-14
  0.157199994       9.36368157E-14
  0.169200003       6.44041569E-14
  0.181199998      -2.89354142E-15
  0.193200007      -9.96442241E-14
  0.205200002      -2.02970805E-13
  0.217199996      -2.78454126E-13
  0.229200006      -2.88059100E-13
  0.241200000      -2.02313955E-13
  0.253199995      -1.39091738E-14
  0.265199989       2.51635111E-13
  0.277200013       5.33051251E-13
  0.289200008       7.41849616E-13
  0.301200002       7.83140371E-13
  0.313199997       5.85521432E-13
  0.325199991       1.32576025E-13
  0.337199986      -5.14342312E-13
  0.349200010      -1.21241212E-12
  0.361200005      -1.75951224E-12
  0.373199999      -1.94205936E-12
  0.385199994      -1.59955838E-12
  0.397199988      -6.89019208E-13
  0.409200013       6.71663246E-13
  0.421200007       2.20019185E-12
  0.433200002       3.49623542E-12
  0.445199996       4.13382696E-12
  0.457199991       3.78066849E-12
  0.469199985       2.31341660E-12
  0.481200010      -1.05967264E-13
  0.493200004      -3.02146719E-12
  0.505200028      -5.75478901E-12
  0.517199993      -7.54915574E-12
  0.529200017      -7.75551238E-12
  0.541199982      -6.01702065E-12
  0.553200006      -2.40429443E-12
  0.565199971       2.53718596E-12
  0.577199996       7.84701384E-12
  0.589200020       1.23126197E-11
  0.601199985       1.47073569E-11
  0.613200009       1.40595990E-11
  0.625199974       9.90083363E-12
  0.637199998       2.44242625E-12
  0.649200022      -7.35965976E-12
  0.661199987      -1.78773593E-11
  0.673200011      -2.70255433E-11
  0.685199976      -3.26018101E-11
  0.697200000      -3.27080758E-11
  0.709200025      -2.61868409E-11
  0.721199989      -1.29870307E-11
  0.733200014       5.63032693E-12
  0.745199978       2.71205332E-11
  0.757200003       4.79522602E-11
  0.769200027       6.41487904E-11
  0.781199992       7.19820800E-11
  0.793200016       6.86729631E-11
  0.805199981       5.29267845E-11
  0.817200005       2.51563284E-11
  0.829200029      -1.26838201E-11
  0.841199994      -5.76201101E-11
  0.853200018      -1.06391000E-10
  0.865199983      -1.56148261E-10
  0.877200007      -2.04858616E-10
  0.889199972      -2.51180771E-10
  0.901199996      -2.93707475E-10
  0.913200021      -3.29621969E-10
  0.925199986      -3.52973761E-10
  0.937200010      -3.52886220E-10
  0.949199975      -3.12029347E-10
  0.961199999      -2.05603826E-10
  0.973200023      -9.02102178E-13
  0.985199988       3.42721157E-10
  0.997200012       8.73905948E-10
   1.00919998       1.65002312E-09
   1.02119994       2.73942358E-09
   1.03320003       4.22618207E-09
   1.04519999       6.21839069E-09
   1.05719995       8.86118823E-09
   1.06920004       1.23559500E-08
   1.08120000       1.69872774E-08
   1.09319997       2.31599753E-08
   1.10520005       3.14484829E-08
   1.11720002       4.26620375E-08
   1.12919998       5.79288937E-08
   1.14119995       7.88033603E-08
   1.15320003       1.07399110E-07
   1.16520000       1.46551486E-07
   1.17719996       2.00010462E-07
   1.18920004       2.72663698E-07
   1.20120001       3.70786978E-07
   1.21319997       5.02316254E-07
   1.22520006       6.77131879E-07
   1.23720002       9.07342724E-07
   1.24919999       1.20755158E-06
   1.26119995       1.59508602E-06
   1.27320004       2.09016639E-06
   1.28520000       2.71599333E-06
   1.29719996       3.49871971E-06
   1.30920005       4.46729064E-06
   1.32120001       5.65312439E-06
   1.33319998       7.08961306E-06
   1.34519994       8.81143387E-06
   1.35720003       1.08536733E-05
   1.36919999       1.32507466E-05
   1.38119996       1.60351610E-05
   1.39320004       1.92361331E-05
   1.40520000       2.28781046E-05
   1.41719997       2.69792199E-05
   1.42920005       3.15498182E-05
   1.44120002       3.65910419E-05
   1.45319998       4.20935794E-05
   1.46519995       4.80366798E-05
   1.47720003       5.43874849E-05
   1.48920000       6.11007126E-05
   1.50119996       6.81188321E-05
   1.51320004       7.53725835E-05
   1.52520001       8.27820986E-05
   1.53719997       9.02583706E-05
   1.54920006       9.77052332E-05
   1.56120002       1.05021638E-04
   1.57319999       1.12104317E-04
   1.58519995       1.18850556E-04
   1.59720004       1.25161125E-04
   1.60920000       1.30943226E-04
   1.62119997       1.36113231E-04
   1.63320005       1.40599295E-04
   1.64520001       1.44343532E-04
   1.65719998       1.47303828E-04
   1.66919994       1.49455082E-04
   1.68120003       1.50790001E-04
   1.69319999       1.51319153E-04
   1.70519996       1.51070562E-04
   1.71720004       1.50088716E-04
   1.72920001       1.48432970E-04
   1.74119997       1.46175647E-04
   1.75320005       1.43399549E-04
   1.76520002       1.40195465E-04
   1.77719998       1.36659262E-04
   1.78919995       1.32889196E-04
   1.80120003       1.28982996E-04
   1.81320000       1.25035323E-04
   1.82519996       1.21135505E-04
   1.83720005       1.17365358E-04
   1.84920001       1.13797701E-04
   1.86119998       1.10495093E-04
   1.87320006       1.07509084E-04
   1.88520002       1.04879888E-04
   1.89719999       1.02636477E-04
   1.90919995       1.00797035E-04
   1.92120004       9.93697176E-05
   1.93320000       9.83536302E-05
   1.94519997       9.77400487E-05
   1.95720005       9.75136136E-05
   1.96920002       9.76536321E-05
   1.98119998       9.81353005E-05
   1.99319994       9.89307882E-05
   2.00519991       1.00010278E-04
   2.01719999       1.01342739E-04
   2.02920008       1.02896600E-04
   2.04119992       1.04640232E-04
   2.05320001       1.06542313E-04
   2.06520009       1.08572014E-04
   2.07719994       1.10699177E-04
   2.08920002       1.12894362E-04
   2.10120010       1.15128954E-04
   2.11319995       1.17375253E-04
   2.12520003       1.19606622E-04
   2.13720012       1.21797668E-04
   2.14919996       1.23924547E-04
   2.16120005       1.25965278E-04
   2.17319989       1.27900261E-04
   2.18519998       1.29712629E-04
   2.19720006       1.31388821E-04
   2.20919991       1.32918998E-04
   2.22119999       1.34297588E-04
   2.23320007       1.35523645E-04
   2.24519992       1.36601157E-04
   2.25720000       1.37539217E-04
   2.26920009       1.38352159E-04
   2.28119993       1.39059324E-04
   2.29320002       1.39684911E-04
   2.30520010       1.40257485E-04
   2.31719995       1.40809410E-04
   2.32920003       1.41376004E-04
   2.34120011       1.41994664E-04
   2.35319996       1.42703793E-04
   2.36520004       1.43541649E-04
   2.37719989       1.44544887E-04
   2.38919997       1.45747399E-04
   2.40120006       1.47178769E-04
   2.41319990       1.48862848E-04
   2.42519999       1.50816457E-04
   2.43720007       1.53047949E-04
   2.44919991       1.55556059E-04
   2.46120000       1.58328883E-04
   2.47320008       1.61342934E-04
   2.48519993       1.64562705E-04
   2.49720001       1.67940234E-04
   2.50920010       1.71415348E-04
   2.52119994       1.74915956E-04
   2.53320003       1.78359027E-04
   2.54520011       1.81651849E-04
   2.55719995       1.84693752E-04
   2.56920004       1.87378275E-04
   2.58119988       1.89595696E-04
   2.59319997       1.91235958E-04
   2.60520005       1.92191786E-04
   2.61719990       1.92362015E-04
   2.62919998       1.91655054E-04
   2.64120007       1.89992163E-04
   2.65319991       1.87310652E-04
   2.66520000       1.83566779E-04
   2.67720008       1.78738017E-04
   2.68919992       1.72825079E-04
   2.70120001       1.65852893E-04
   2.71320009       1.57871167E-04
   2.72519994       1.48954001E-04
   2.73720002       1.39198732E-04
   2.74920011       1.28723943E-04
   2.76119995       1.17666714E-04
   2.77320004       1.06179279E-04
   2.78520012       9.44250423E-05
   2.79719996       8.25741517E-05
   2.80920005       7.07988220E-05
   2.82119989       5.92685901E-05
   2.83319998       4.81455791E-05
   2.84520006       3.75800482E-05
   2.85719991       2.77063227E-05
   2.86919999       1.86393318E-05
   2.88120008       1.04718201E-05
   2.89319992       3.27235534E-06
   2.90520000      -2.91579750E-06
   2.91720009      -8.07490233E-06
   2.92919993      -1.22121019E-05
   2.94120002      -1.53578949E-05
   2.95320010      -1.75638688E-05
   2.96519995      -1.88997346E-05
   2.97720003      -1.94498607E-05
   2.98920012      -1.93093983E-05
   3.00119996      -1.85802219E-05
   3.01320004      -1.73668159E-05
   3.02519989      -1.57723225E-05
   3.03719997      -1.38948972E-05
   3.04920006      -1.18245234E-05
   3.06119990      -9.64042101E-06
   3.07319999      -7.40914038E-06
   3.08520007      -5.18339311E-06
   3.09719992      -3.00164993E-06
   3.10920000      -8.88483441E-07
   3.12120008       1.14440559E-06
   3.13319993       3.09656389E-06
   3.14520001       4.97668452E-06
   3.15720010       6.80016274E-06
   3.16919994       8.58647309E-06
   3.18120003       1.03565108E-05
   3.19320011       1.21300582E-05
   3.20519996       1.39235071E-05
   3.21720004       1.57479717E-05
   3.22919989       1.76078538E-05
   3.24119997       1.94999575E-05
   3.25320005       2.14131414E-05
   3.26519990       2.33285573E-05
   3.27719998       2.52203699E-05
   3.28920007       2.70569744E-05
   3.30119991       2.88025603E-05
   3.31320000       3.04189562E-05
   3.32520008       3.18676248E-05
   3.33719993       3.31117080E-05
   3.34920001       3.41179984E-05
   3.36120009       3.48586982E-05
   3.37319994       3.53129362E-05
   3.38520002       3.54679614E-05
   3.39720011       3.53198811E-05
   3.40919995       3.48740250E-05
   3.42120004       3.41448758E-05
   3.43319988       3.31555930E-05
   3.44519997       3.19371575E-05
   3.45720005       3.05272260E-05
   3.46919990       2.89687123E-05
   3.48119998       2.73081914E-05
   3.49320006       2.55942323E-05
   3.50519991       2.38756929E-05
   3.51719999       2.22000654E-05
   3.52920008       2.06119439E-05
   3.54119992       1.91516647E-05
   3.55320001       1.78541304E-05
   3.56520009       1.67478938E-05
   3.57719994       1.58544681E-05
   3.58920002       1.51878885E-05
   3.60120010       1.47545088E-05
   3.61319995       1.45530239E-05
   3.62520003       1.45746981E-05
   3.63720012       1.48037752E-05
   3.64919996       1.52180482E-05
   3.66120005       1.57895702E-05
   3.67319989       1.64854700E-05
   3.68519998       1.72688797E-05
   3.69720006       1.80999068E-05
   3.70919991       1.89366801E-05
   3.72119999       1.97364134E-05
   3.73320007       2.04564767E-05
   3.74519992       2.10554790E-05
   3.75720000       2.14943138E-05
   3.76920009       2.17371689E-05
   3.78119993       2.17524939E-05
   3.79320002       2.15138953E-05
   3.80520010       2.10009421E-05
   3.81719995       2.01998810E-05
   3.82920003       1.91042345E-05
   3.84120011       1.77152378E-05
   3.85319996       1.60421532E-05
   3.86520004       1.41023711E-05
   3.87719989       1.19213346E-05
   3.88919997       9.53224298E-06
   3.90120006       6.97552650E-06
   3.91319990       4.29809734E-06
   3.92519999       1.55236319E-06
   3.93720007      -1.20496725E-06
   3.94919991      -3.91428421E-06
   3.96120000      -6.51463552E-06
   3.97320008      -8.94541517E-06
   3.98519993      -1.11481195E-05
   3.99720001      -1.30681228E-05
   4.00920010      -1.46564025E-05
   4.02120018      -1.58711300E-05
   4.03319979      -1.66790905E-05
   4.04519987      -1.70568383E-05
   4.05719995      -1.69915384E-05
   4.06920004      -1.64814574E-05
   4.08120012      -1.55360594E-05
   4.09320021      -1.41757173E-05
   4.10519981      -1.24310154E-05
   4.11719990      -1.03417078E-05
   4.12919998      -7.95535834E-06
   4.14120007      -5.32573222E-06
   4.15320015      -2.51101778E-06
   4.16520023       4.28051379E-07
   4.17719984       3.43008219E-06
   4.18919992       6.43483600E-06
   4.20120001       9.38491212E-06
   4.21320009       1.22272295E-05
   4.22520018       1.49142661E-05
   4.23719978       1.74050383E-05
   4.24919987       1.96657984E-05
   4.26119995       2.16704520E-05
   4.27320004       2.34007221E-05
   4.28520012       2.48460747E-05
   4.29720020       2.60034431E-05
   4.30919981       2.68768017E-05
   4.32119989       2.74766044E-05
   4.33319998       2.78191364E-05
   4.34520006       2.79258129E-05
   4.35720015       2.78224252E-05
   4.36920023       2.75383700E-05
   4.38119984       2.71058834E-05
   4.39319992       2.65592262E-05
   4.40520000       2.59338904E-05
   4.41720009       2.52657974E-05
   4.42920017       2.45904630E-05
   4.44119978       2.39421897E-05
   4.45319986       2.33532610E-05
   4.46519995       2.28531735E-05
   4.47720003       2.24679115E-05
   4.48920012       2.22193357E-05
   4.50120020       2.21246501E-05
   4.51319981       2.21960636E-05
   4.52519989       2.24405703E-05
   4.53719997       2.28599674E-05
   4.54920006       2.34510480E-05
   4.56120014       2.42059959E-05
   4.57320023       2.51129695E-05
   4.58519983       2.61568402E-05
   4.59719992       2.73200312E-05
   4.60920000       2.85834576E-05
   4.62120008       2.99274343E-05
   4.63320017       3.13325800E-05
   4.64519978       3.27805865E-05
   4.65719986       3.42548592E-05
   4.66919994       3.57409408E-05
   4.68120003       3.72267314E-05
   4.69320011       3.87024666E-05
   4.70520020       4.01604702E-05
   4.71719980       4.15947034E-05
   4.72919989       4.30001637E-05
   4.74119997       4.43721656E-05
   4.75320005       4.57056085E-05
   4.76520014       4.69942534E-05
   4.77720022       4.82301039E-05
   4.78919983       4.94029446E-05
   4.80119991       5.05000789E-05
   4.81320000       5.15062893E-05
   4.82520008       5.24040697E-05
   4.83720016       5.31740588E-05
   4.84919977       5.37957385E-05
   4.86119986       5.42482703E-05
   4.87319994       5.45115145E-05
   4.88520002       5.45670991E-05
   4.89720011       5.43995229E-05
   4.90920019       5.39971770E-05
   4.92119980       5.33533203E-05
   4.93319988       5.24668285E-05
   4.94519997       5.13427731E-05
   4.95720005       4.99927228E-05
   4.96920013       4.84347947E-05
   4.98120022       4.66934071E-05
   4.99319983       4.47987804E-05
   5.00519991       4.27861378E-05
   5.01719999       4.06947147E-05
   5.02920008       3.85665735E-05
   5.04120016       3.64452571E-05
   5.05319977       3.43743704E-05
   5.06519985       3.23961103E-05
   5.07719994       3.05498506E-05
   5.08920002       2.88707724E-05
   5.10120010       2.73886653E-05
   5.11320019       2.61268742E-05
   5.12519979       2.51015099E-05
   5.13719988       2.43209015E-05
   5.14919996       2.37853510E-05
   5.16120005       2.34871859E-05
   5.17320013       2.34111321E-05
   5.18520021       2.35349835E-05
   5.19719982       2.38305402E-05
   5.20919991       2.42648093E-05
   5.22119999       2.48013766E-05
   5.23320007       2.54019214E-05
   5.24520016       2.60278011E-05
   5.25719976       2.66416118E-05
   5.26919985       2.72086891E-05
   5.28119993       2.76984429E-05
   5.29320002       2.80854856E-05
   5.30520010       2.83505105E-05
   5.31720018       2.84808611E-05
   5.32919979       2.84707894E-05
   5.34119987       2.83214104E-05
   5.35319996       2.80403419E-05
   5.36520004       2.76410865E-05
   5.37720013       2.71421923E-05
   5.38920021       2.65662311E-05
   5.40119982       2.59386816E-05
   5.41319990       2.52867667E-05
   5.42519999       2.46382897E-05
   5.43720007       2.40205554E-05
   5.44920015       2.34594099E-05
   5.46120024       2.29784127E-05
   5.47319984       2.25981985E-05
   5.48519993       2.23360184E-05
   5.49720001       2.22054623E-05
   5.50920010       2.22163435E-05
   5.52120018       2.23747411E-05
   5.53319979       2.26831598E-05
   5.54519987       2.31407721E-05
   5.55719995       2.37437234E-05
   5.56920004       2.44854709E-05
   5.58120012       2.53571216E-05
   5.59320021       2.63477432E-05
   5.60519981       2.74446811E-05
   5.61719990       2.86338309E-05
   5.62919998       2.98998748E-05
   5.64120007       3.12265220E-05
   5.65320015       3.25967230E-05
   5.66520023       3.39929393E-05
   5.67719984       3.53973701E-05
   5.68919992       3.67922621E-05
   5.70120001       3.81602295E-05
   5.71320009       3.94846138E-05
   5.72520018       4.07498883E-05
   5.73719978       4.19420394E-05
   5.74919987       4.30489890E-05
   5.76119995       4.40609547E-05
   5.77320004       4.49707914E-05
   5.78520012       4.57742535E-05
   5.79720020       4.64701443E-05
   5.80919981       4.70603445E-05
   5.82119989       4.75497436E-05
   5.83319998       4.79459741E-05
   5.84520006       4.82590403E-05
   5.85720015       4.85007949E-05
   5.86920023       4.86843346E-05
   5.88119984       4.88232763E-05
   5.89319992       4.89310114E-05
   5.90520000       4.90199454E-05
   5.91720009       4.91008068E-05
   5.92920017       4.91820101E-05
   5.94119978       4.92691506E-05
   5.95319986       4.93646512E-05
   5.96519995       4.94675878E-05
   5.97720003       4.95737113E-05
   5.98920012       4.96756511E-05
   6.00120020       4.97633046E-05
   6.01319981       4.98244081E-05
   6.02519989       4.98452282E-05
   6.03719997       4.98113404E-05
   6.04920006       4.97084984E-05
   6.06120014       4.95234708E-05
   6.07320023       4.92448453E-05
   6.08519983       4.88637634E-05
   6.09719992       4.83745171E-05
   6.10920000       4.77749745E-05
   6.12120008       4.70668383E-05
   6.13320017       4.62557218E-05
   6.14519978       4.53510147E-05
   6.15719986       4.43655917E-05
   6.16919994       4.33153764E-05
   6.18120003       4.22187804E-05
   6.19320011       4.10960492E-05
   6.20520020       3.99686323E-05
   6.21719980       3.88584922E-05
   6.22919989       3.77875076E-05
   6.24119997       3.67769208E-05
   6.25320005       3.58468969E-05
   6.26520014       3.50161790E-05
   6.27720022       3.43018364E-05
   6.28919983       3.37190831E-05
   6.30119991       3.32812051E-05
   6.31320000       3.29994364E-05
   6.32520008       3.28829447E-05
   6.33720016       3.29386967E-05
   6.34919977       3.31713600E-05
   6.36119986       3.35830991E-05
   6.37319994       3.41733139E-05
   6.38520002       3.49383481E-05
   6.39720011       3.58711368E-05
   6.40920019       3.69608497E-05
   6.42119980       3.81925784E-05
   6.43319988       3.95470706E-05
   6.44519997       4.10006287E-05
   6.45720005       4.25251346E-05
   6.46920013       4.40883268E-05
   6.48120022       4.56542948E-05
   6.49319983       4.71842250E-05
   6.50519991       4.86374265E-05
   6.51719999       4.99725502E-05
   6.52920008       5.11490616E-05
   6.54120016       5.21287475E-05
   6.55319977       5.28773780E-05
   6.56519985       5.33662496E-05
   6.57719994       5.35736726E-05
   6.58920002       5.34862193E-05
   6.60120010       5.30996695E-05
   6.61320019       5.24196112E-05
   6.62519979       5.14616331E-05
   6.63719988       5.02510629E-05
   6.64919996       4.88222722E-05
   6.66120005       4.72175561E-05
   6.67320013       4.54856417E-05
   6.68520021       4.36798837E-05
   6.69719982       4.18562231E-05
   6.70919991       4.00710451E-05
   6.72119999       3.83789993E-05
   6.73320007       3.68309447E-05
   6.74520016       3.54720432E-05
   6.75719976       3.43401880E-05
   6.76919985       3.34647448E-05
   6.78119993       3.28657334E-05
   6.79320002       3.25534165E-05
   6.80520010       3.25283254E-05
   6.81720018       3.27816742E-05
   6.82919979       3.32961354E-05
   6.84119987       3.40469160E-05
   6.85319996       3.50030350E-05
   6.86520004       3.61287312E-05
   6.87720013       3.73849543E-05
   6.88920021       3.87308173E-05
   6.90119982       4.01249927E-05
   6.91319990       4.15269569E-05
   6.92519999       4.28981039E-05
   6.93720007       4.42026285E-05
   6.94920015       4.54082765E-05
   6.96120024       4.64868863E-05
   6.97319984       4.74147528E-05
   6.98519993       4.81728857E-05
   6.99720001       4.87471443E-05
   7.00920010       4.91282808E-05
   7.02120018       4.93119114E-05
   7.03319979       4.92984254E-05
   7.04519987       4.90928614E-05
   7.05719995       4.87047000E-05
   7.06920004       4.81476236E-05
   7.08120012       4.74391709E-05
   7.09320021       4.66003257E-05
   7.10519981       4.56550079E-05
   7.11719990       4.46294471E-05
   7.12919998       4.35514594E-05
   7.14120007       4.24496429E-05
   7.15320015       4.13524722E-05
   7.16520023       4.02873848E-05
   7.17719984       3.92798211E-05
   7.18919992       3.83523438E-05
   7.20120001       3.75238087E-05
   7.21320009       3.68087130E-05
   7.22520018       3.62166829E-05
   7.23719978       3.57522149E-05
   7.24919987       3.54146032E-05
   7.26119995       3.51981798E-05
   7.27320004       3.50927221E-05
   7.28520012       3.50841183E-05
   7.29720020       3.51552444E-05
   7.30919981       3.52869174E-05
   7.32119989       3.54590011E-05
   7.33319998       3.56515120E-05
   7.34520006       3.58456964E-05
   7.35720015       3.60250488E-05
   7.36920023       3.61761231E-05
   7.38119984       3.62892133E-05
   7.39319992       3.63587642E-05
   7.40520000       3.63835316E-05
   7.41720009       3.63664913E-05
   7.42920017       3.63144645E-05
   7.44119978       3.62375249E-05
   7.45319986       3.61482198E-05
   7.46519995       3.60605882E-05
   7.47720003       3.59891565E-05
   7.48920012       3.59478399E-05
   7.50120020       3.59489168E-05
   7.51319981       3.60021113E-05
   7.52519989       3.61138009E-05
   7.53719997       3.62864739E-05
   7.54920006       3.65184096E-05
   7.56120014       3.68036381E-05
   7.57320023       3.71321585E-05
   7.58519983       3.74904448E-05
   7.59719992       3.78621808E-05
   7.60920000       3.82291510E-05
   7.62120008       3.85723215E-05
   7.63320017       3.88729277E-05
   7.64519978       3.91136164E-05
   7.65719986       3.92794900E-05
   7.66919994       3.93590090E-05
   7.68120003       3.93447299E-05
   7.69320011       3.92337570E-05
   7.70520020       3.90279893E-05
   7.71719980       3.87340006E-05
   7.72919989       3.83626975E-05
   7.74119997       3.79287230E-05
   7.75320005       3.74496012E-05
   7.76520014       3.69447807E-05
   7.77720022       3.64345688E-05
   7.78919983       3.59390215E-05
   7.80119991       3.54769509E-05
   7.81320000       3.50649789E-05
   7.82520008       3.47168061E-05
   7.83720016       3.44426771E-05
   7.84919977       3.42490675E-05
   7.86119986       3.41386221E-05
   7.87319994       3.41103041E-05
   7.88520002       3.41597661E-05
   7.89720011       3.42798194E-05
   7.90920019       3.44611180E-05
   7.92119980       3.46928136E-05
   7.93319988       3.49632719E-05
   7.94519997       3.52607349E-05
   7.95720005       3.55739030E-05
   7.96920013       3.58924226E-05
   7.98120022       3.62072278E-05
   7.99319983       3.65107553E-05
   8.00520039       3.67970388E-05
   8.01720047       3.70616799E-05
   8.02919960       3.73017137E-05
   8.04119968       3.75154341E-05
   8.05319977       3.77021679E-05
   8.06519985       3.78620389E-05
   8.07719994       3.79957346E-05
   8.08920002       3.81043246E-05
   8.10120010       3.81890932E-05
   8.11320019       3.82514299E-05
   8.12520027       3.82927356E-05
   8.13720036       3.83143779E-05
   8.14920044       3.83176557E-05
   8.16119957       3.83037623E-05
   8.17319965       3.82737635E-05
   8.18519974       3.82285361E-05
   8.19719982       3.81687532E-05
   8.20919991       3.80948186E-05
   8.22119999       3.80068377E-05
   8.23320007       3.79045960E-05
   8.24520016       3.77875622E-05
   8.25720024       3.76549579E-05
   8.26920033       3.75058480E-05
   8.28120041       3.73392868E-05
   8.29319954       3.71545320E-05
   8.30519962       3.69512418E-05
   8.31719971       3.67297544E-05
   8.32919979       3.64912958E-05
   8.34119987       3.62382125E-05
   8.35319996       3.59741280E-05
   8.36520004       3.57040153E-05
   8.37720013       3.54341792E-05
   8.38920021       3.51721246E-05
   8.40120029       3.49262955E-05
   8.41320038       3.47057503E-05
   8.42520046       3.45196931E-05
   8.43719959       3.43769898E-05
   8.44919968       3.42856147E-05
   8.46119976       3.42521562E-05
   8.47319984       3.42813255E-05
   8.48519993       3.43755892E-05
   8.49720001       3.45349254E-05
   8.50920010       3.47567038E-05
   8.52120018       3.50357404E-05
   8.53320026       3.53645410E-05
   8.54520035       3.57336503E-05
   8.55720043       3.61321436E-05
   8.56919956       3.65481937E-05
   8.58119965       3.69697082E-05
   8.59319973       3.73849107E-05
   8.60519981       3.77829492E-05
   8.61719990       3.81543432E-05
   8.62919998       3.84914019E-05
   8.64120007       3.87884211E-05
   8.65320015       3.90418136E-05
   8.66520023       3.92500406E-05
   8.67720032       3.94134549E-05
   8.68920040       3.95340176E-05
   8.70119953       3.96149044E-05
   8.71319962       3.96601063E-05
   8.72519970       3.96739779E-05
   8.73719978       3.96608266E-05
   8.74919987       3.96245450E-05
   8.76119995       3.95683492E-05
   8.77320004       3.94945710E-05
   8.78520012       3.94046365E-05
   8.79720020       3.92990805E-05
   8.80920029       3.91777030E-05
   8.82120037       3.90397909E-05
   8.83320045       3.88843837E-05
   8.84519958       3.87105902E-05
   8.85719967       3.85178610E-05
   8.86919975       3.83062579E-05
   8.88119984       3.80766905E-05
   8.89319992       3.78310469E-05
   8.90520000       3.75722520E-05
   8.91720009       3.73042676E-05
   8.92920017       3.70319758E-05
   8.94120026       3.67609864E-05
   8.95320034       3.64973821E-05
   8.96520042       3.62473984E-05
   8.97719955       3.60170488E-05
   8.98919964       3.58117686E-05
   9.00119972       3.56360288E-05
   9.01319981       3.54930053E-05
   9.02519989       3.53843207E-05
   9.03719997       3.53098294E-05
   9.04920006       3.52675561E-05
   9.06120014       3.52537063E-05
   9.07320023       3.52628158E-05
   9.08520031       3.52880197E-05
   9.09720039       3.53214564E-05
   9.10919952       3.53547257E-05
   9.12119961       3.53794458E-05
   9.13319969       3.53878495E-05
   9.14519978       3.53733740E-05
   9.15719986       3.53312244E-05
   9.16919994       3.52588177E-05
   9.18120003       3.51561903E-05
   9.19320011       3.50261616E-05
   9.20520020       3.48744070E-05
   9.21720028       3.47092755E-05
   9.22920036       3.45414555E-05
   9.24120045       3.43834326E-05
   9.25319958       3.42488020E-05
   9.26519966       3.41514242E-05
   9.27719975       3.41045525E-05
   9.28919983       3.41198756E-05
   9.30119991       3.42066669E-05
   9.31320000       3.43709689E-05
   9.32520008       3.46149827E-05
   9.33720016       3.49366492E-05
   9.34920025       3.53295036E-05
   9.36120033       3.57827375E-05
   9.37320042       3.62816318E-05
   9.38519955       3.68081892E-05
   9.39719963       3.73420262E-05
   9.40919971       3.78614459E-05
   9.42119980       3.83446568E-05
   9.43319988       3.87710061E-05
   9.44519997       3.91222457E-05
