 -0.622799993       0.00000000    
 -0.610800028       0.00000000    
 -0.598800004       0.00000000    
 -0.586799979       0.00000000    
 -0.574800014       5.14199950E-25
 -0.562799990       2.82008643E-24
 -0.550800025       7.02485606E-24
 -0.538800001       8.92452226E-24
 -0.526799977       1.91133819E-24
 -0.514800012      -1.08802055E-23
 -0.502799988      -1.20219394E-24
 -0.490799993       8.45951589E-23
 -0.478799999       3.04863589E-22
 -0.466800004       7.14316503E-22
 -0.454800010       1.42464665E-21
 -0.442799985       2.73061812E-21
 -0.430799991       5.14332221E-21
 -0.418799996       9.04646158E-21
 -0.406800002       1.38264176E-20
 -0.394800007       1.68707056E-20
 -0.382800013       1.35792732E-20
 -0.370799989      -1.75801666E-22
 -0.358799994      -2.27126784E-20
 -0.346799999      -4.05076421E-20
 -0.334800005      -2.68868951E-20
 -0.322800010       4.77532919E-20
 -0.310799986       1.90886247E-19
 -0.298799992       3.54514980E-19
 -0.286799997       4.13957135E-19
 -0.274800003       1.89439831E-19
 -0.262800008      -4.63143181E-19
 -0.250800014      -1.49428203E-18
 -0.238800004      -2.48989719E-18
 -0.226799995      -2.60090069E-18
 -0.214800000      -7.18118555E-19
 -0.202800006       4.00373284E-18
 -0.190799996       1.13148167E-17
 -0.178800002       1.90119539E-17
 -0.166800007       2.25846479E-17
 -0.154799998       1.60089938E-17
 -0.142800003      -5.87068692E-18
 -0.130799994      -4.35637681E-17
 -0.118799999      -8.89345552E-17
 -0.106799997      -1.23151272E-16
  -9.48000029E-02  -1.19162302E-16
  -8.28000009E-02  -5.04697369E-17
  -7.07999989E-02   9.43925906E-17
  -5.88000007E-02   2.95817707E-16
  -4.67999987E-02   4.93113995E-16
  -3.48000005E-02   5.89480933E-16
  -2.28000004E-02   4.78236708E-16
  -1.08000003E-02   8.90057258E-17
   1.20000006E-03  -5.58412241E-16
   1.31999999E-02  -1.31514676E-15
   2.52000000E-02  -1.90599100E-15
   3.72000001E-02  -1.99286418E-15
   4.91999984E-02  -1.29739666E-15
   6.12000003E-02   2.48272186E-16
   7.32000023E-02   2.38040377E-15
   8.51999968E-02   4.48048877E-15
   9.71999988E-02   5.69989985E-15
  0.109200001       5.23301910E-15
  0.121200003       2.67131851E-15
  0.133200005      -1.69041561E-15
  0.145199999      -6.74735477E-15
  0.157199994      -1.07893295E-14
  0.169200003      -1.20247110E-14
  0.181199998      -9.29052842E-15
  0.193200007      -2.69298794E-15
  0.205200002       6.12027679E-15
  0.217199996       1.42742314E-14
  0.229200006       1.85827170E-14
  0.241200000       1.68181068E-14
  0.253199995       8.86230413E-15
  0.265199989      -2.80174973E-15
  0.277200013      -1.36413699E-14
  0.289200008      -1.86805171E-14
  0.301200002      -1.47020034E-14
  0.313199997      -2.20036036E-15
  0.325199991       1.38667222E-14
  0.337199986       2.51923574E-14
  0.349200010       2.31114515E-14
  0.361200005       2.65895225E-15
  0.373199999      -3.37919830E-14
  0.385199994      -7.50134546E-14
  0.397199988      -1.02785463E-13
  0.409200013      -9.73292898E-14
  0.421200007      -4.51095019E-14
  0.433200002       5.34364694E-14
  0.445199996       1.79256539E-13
  0.457199991       2.95707984E-13
  0.469199985       3.56348387E-13
  0.481200010       3.18426654E-13
  0.493200004       1.58791979E-13
  0.505200028      -1.12572047E-13
  0.517199993      -4.46376361E-13
  0.529200017      -7.58831474E-13
  0.541199982      -9.48313910E-13
  0.553200006      -9.21343730E-13
  0.565199971      -6.22118080E-13
  0.577199996      -5.77977065E-14
  0.589200020       6.88422409E-13
  0.601199985       1.46244778E-12
  0.613200009       2.06474031E-12
  0.625199974       2.29319276E-12
  0.637199998       1.99546412E-12
  0.649200022       1.11897644E-12
  0.661199987      -2.54700314E-13
  0.673200011      -1.90273730E-12
  0.685199976      -3.48801435E-12
  0.697200000      -4.61954953E-12
  0.709200025      -4.93720039E-12
  0.721199989      -4.20373545E-12
  0.733200014      -2.38267652E-12
  0.745199978       3.19570515E-13
  0.757200003       3.46312497E-12
  0.769200027       6.44075765E-12
  0.781199992       8.59241497E-12
  0.793200016       9.34665366E-12
  0.805199981       8.35822817E-12
  0.817200005       5.60866284E-12
  0.829200029       1.44239622E-12
  0.841199994      -3.47567960E-12
  0.853200018      -8.27753317E-12
  0.865199983      -1.20622722E-11
  0.877200007      -1.40834870E-11
  0.889199972      -1.39120711E-11
  0.901199996      -1.15367412E-11
  0.913200021      -7.37789951E-12
  0.925199986      -2.20962528E-12
  0.937200010       2.99397985E-12
  0.949199975       7.25459016E-12
  0.961199999       9.78284294E-12
  0.973200023       1.01236962E-11
  0.985199988       8.21664525E-12
  0.997200012       4.34909313E-12
   1.00919998      -1.00231433E-12
   1.02119994      -7.43024565E-12
   1.03320003      -1.49345050E-11
   1.04519999      -2.43169304E-11
   1.05719995      -3.76162504E-11
   1.06920004      -5.85807097E-11
   1.08120000      -9.31855704E-11
   1.09319997      -1.50208013E-10
   1.10520005      -2.41882264E-10
   1.11720002      -3.84640653E-10
   1.12919998      -5.99947925E-10
   1.14119995      -9.15234888E-10
   1.15320003      -1.36495037E-09
   1.16520000      -1.99181849E-09
   1.17719996      -2.84845281E-09
   1.18920004      -3.99963351E-09
   1.20120001      -5.52568657E-09
   1.21319997      -7.52760698E-09
   1.22520006      -1.01347357E-08
   1.23720002      -1.35160416E-08
   1.24919999      -1.78961415E-08
   1.26119995      -2.35773641E-08
   1.27320004      -3.09692432E-08
   1.28520000      -4.06269045E-08
   1.29719996      -5.32995692E-08
   1.30920005      -6.99903850E-08
   1.32120001      -9.20283156E-08
   1.33319998      -1.21152326E-07
   1.34519994      -1.59607083E-07
   1.35720003      -2.10249041E-07
   1.36919999      -2.76659193E-07
   1.38119996      -3.63258607E-07
   1.39320004      -4.75420734E-07
   1.40520000      -6.19573314E-07
   1.41719997      -8.03280898E-07
   1.42920005      -1.03529885E-06
   1.44120002      -1.32558887E-06
   1.45319998      -1.68528550E-06
   1.46519995      -2.12660643E-06
   1.47720003      -2.66269626E-06
   1.48920000      -3.30740022E-06
   1.50119996      -4.07496645E-06
   1.51320004      -4.97967130E-06
   1.52520001      -6.03538228E-06
   1.53719997      -7.25505652E-06
   1.54920006      -8.65019774E-06
   1.56120002      -1.02302793E-05
   1.57319999      -1.20021659E-05
   1.58519995      -1.39695439E-05
   1.59720004      -1.61324024E-05
   1.60920000      -1.84865821E-05
   1.62119997      -2.10234284E-05
   1.63320005      -2.37295753E-05
   1.64520001      -2.65868675E-05
   1.65719998      -2.95724731E-05
   1.66919994      -3.26591689E-05
   1.68120003      -3.58158286E-05
   1.69319999      -3.90080677E-05
   1.70519996      -4.21990881E-05
   1.71720004      -4.53506582E-05
   1.72920001      -4.84241900E-05
   1.74119997      -5.13819068E-05
   1.75320005      -5.41880108E-05
   1.76520002      -5.68098076E-05
   1.77719998      -5.92187534E-05
   1.78919995      -6.13913435E-05
   1.80120003      -6.33098243E-05
   1.81320000      -6.49626090E-05
   1.82519996      -6.63445317E-05
   1.83720005      -6.74567636E-05
   1.84920001      -6.83064645E-05
   1.86119998      -6.89062144E-05
   1.87320006      -6.92732065E-05
   1.88520002      -6.94283081E-05
   1.89719999      -6.93949769E-05
   1.90919995      -6.91981622E-05
   1.92120004      -6.88632135E-05
   1.93320000      -6.84148545E-05
   1.94519997      -6.78763608E-05
   1.95720005      -6.72688402E-05
   1.96920002      -6.66107953E-05
   1.98119998      -6.59178986E-05
   1.99319994      -6.52029557E-05
   2.00519991      -6.44761531E-05
   2.01719999      -6.37454359E-05
   2.02920008      -6.30170471E-05
   2.04119992      -6.22961161E-05
   2.05320001      -6.15873796E-05
   2.06520009      -6.08957380E-05
   2.07719994      -6.02268556E-05
   2.08920002      -5.95875936E-05
   2.10120010      -5.89863084E-05
   2.11319995      -5.84329791E-05
   2.12520003      -5.79391308E-05
   2.13720012      -5.75176164E-05
   2.14919996      -5.71822129E-05
   2.16120005      -5.69470649E-05
   2.17319989      -5.68260220E-05
   2.18519998      -5.68318901E-05
   2.19720006      -5.69756521E-05
   2.20919991      -5.72656791E-05
   2.22119999      -5.77069804E-05
   2.23320007      -5.83005676E-05
   2.24519992      -5.90428972E-05
   2.25720000      -5.99255181E-05
   2.26920009      -6.09348717E-05
   2.28119993      -6.20522769E-05
   2.29320002      -6.32542069E-05
   2.30520010      -6.45127147E-05
   2.31719995      -6.57960773E-05
   2.32920003      -6.70696827E-05
   2.34120011      -6.82970422E-05
   2.35319996      -6.94409609E-05
   2.36520004      -7.04647900E-05
   2.37719989      -7.13337431E-05
   2.38919997      -7.20162425E-05
   2.40120006      -7.24851197E-05
   2.41319990      -7.27188453E-05
   2.42519999      -7.27025108E-05
   2.43720007      -7.24286583E-05
   2.44919991      -7.18979281E-05
   2.46120000      -7.11193861E-05
   2.47320008      -7.01106401E-05
   2.48519993      -6.88977016E-05
   2.49720001      -6.75145493E-05
   2.50920010      -6.60024962E-05
   2.52119994      -6.44092870E-05
   2.53320003      -6.27880145E-05
   2.54520011      -6.11958894E-05
   2.55719995      -5.96928185E-05
   2.56920004      -5.83399524E-05
   2.58119988      -5.71980709E-05
   2.59319997      -5.63260037E-05
   2.60520005      -5.57789499E-05
   2.61719990      -5.56068808E-05
   2.62919998      -5.58529246E-05
   2.64120007      -5.65518203E-05
   2.65319991      -5.77284845E-05
   2.66520000      -5.93966506E-05
   2.67720008      -6.15576937E-05
   2.68919992      -6.41996521E-05
   2.70120001      -6.72964088E-05
   2.71320009      -7.08072257E-05
   2.72519994      -7.46765072E-05
   2.73720002      -7.88339603E-05
   2.74920011      -8.31950238E-05
   2.76119995      -8.76618360E-05
   2.77320004      -9.21245155E-05
   2.78520012      -9.64628634E-05
   2.79719996      -1.00548597E-04
   2.80920005      -1.04247811E-04
   2.82119989      -1.07423970E-04
   2.83319998      -1.09941153E-04
   2.84520006      -1.11667534E-04
   2.85719991      -1.12479087E-04
   2.86919999      -1.12263333E-04
   2.88120008      -1.10923072E-04
   2.89319992      -1.08379943E-04
   2.90520000      -1.04577710E-04
   2.91720009      -9.94851289E-05
   2.92919993      -9.30982642E-05
   2.94120002      -8.54421596E-05
   2.95320010      -7.65716977E-05
   2.96519995      -6.65716288E-05
   2.97720003      -5.55556981E-05
   2.98920012      -4.36647824E-05
   3.00119996      -3.10641517E-05
   3.01320004      -1.79397466E-05
   3.02519989      -4.49376739E-06
   3.03719997       9.06051537E-06
   3.04920006       2.25044005E-05
   3.06119990       3.56197561E-05
   3.07319999       4.81951138E-05
   3.08520007       6.00316380E-05
   3.09719992       7.09487358E-05
   3.10920000       8.07890538E-05
   3.12120008       8.94227705E-05
   3.13319993       9.67508022E-05
   3.14520001       1.02706981E-04
   3.15720010       1.07259097E-04
   3.16919994       1.10408670E-04
   3.18120003       1.12189562E-04
   3.19320011       1.12665555E-04
   3.20519996       1.11926951E-04
   3.21720004       1.10086374E-04
   3.22919989       1.07274063E-04
   3.24119997       1.03632759E-04
   3.25320005       9.93125213E-05
   3.26519990       9.44656495E-05
   3.27719998       8.92418975E-05
   3.28920007       8.37841726E-05
   3.30119991       7.82248826E-05
   3.31320000       7.26829821E-05
   3.32520008       6.72617534E-05
   3.33719993       6.20474093E-05
   3.34920001       5.71083983E-05
   3.36120009       5.24953430E-05
   3.37319994       4.82416763E-05
   3.38520002       4.43646386E-05
   3.39720011       4.08667293E-05
   3.40919995       3.77374126E-05
   3.42120004       3.49549628E-05
   3.43319988       3.24884531E-05
   3.44519997       3.02997196E-05
   3.45720005       2.83453210E-05
   3.46919990       2.65784165E-05
   3.48119998       2.49505647E-05
   3.49320006       2.34134077E-05
   3.50519991       2.19202211E-05
   3.51719999       2.04273620E-05
   3.52920008       1.88955582E-05
   3.54119992       1.72910441E-05
   3.55320001       1.55865309E-05
   3.56520009       1.37619727E-05
   3.57719994       1.18051121E-05
   3.58920002       9.71177633E-06
   3.60120010       7.48591356E-06
   3.61319995       5.13933765E-06
   3.62520003       2.69118414E-06
   3.63720012       1.67088459E-07
   3.64919996      -2.40190093E-06
   3.66120005      -4.98063537E-06
   3.67319989      -7.53136692E-06
   3.68519998      -1.00153575E-05
   3.69720006      -1.23945565E-05
   3.70919991      -1.46332422E-05
   3.72119999      -1.66995833E-05
   3.73320007      -1.85670251E-05
   3.74519992      -2.02154424E-05
   3.75720000      -2.16320059E-05
   3.76920009      -2.28117260E-05
   3.78119993      -2.37576351E-05
   3.79320002      -2.44806160E-05
   3.80520010      -2.49988607E-05
   3.81719995      -2.53370345E-05
   3.82920003      -2.55251161E-05
   3.84120011      -2.55970372E-05
   3.85319996      -2.55891537E-05
   3.86520004      -2.55386112E-05
   3.87719989      -2.54817151E-05
   3.88919997      -2.54523529E-05
   3.90120006      -2.54805691E-05
   3.91319990      -2.55913092E-05
   3.92519999      -2.58034597E-05
   3.93720007      -2.61291734E-05
   3.94919991      -2.65735252E-05
   3.96120000      -2.71345161E-05
   3.97320008      -2.78034258E-05
   3.98519993      -2.85654678E-05
   3.99720001      -2.94007277E-05
   4.00920010      -3.02853277E-05
   4.02120018      -3.11927506E-05
   4.03319979      -3.20952095E-05
   4.04519987      -3.29650647E-05
   4.05719995      -3.37761121E-05
   4.06920004      -3.45047556E-05
   4.08120012      -3.51309282E-05
   4.09320021      -3.56387718E-05
   4.10519981      -3.60170270E-05
   4.11719990      -3.62591054E-05
   4.12919998      -3.63628897E-05
   4.14120007      -3.63302788E-05
   4.15320015      -3.61665225E-05
   4.16520023      -3.58794205E-05
   4.17719984      -3.54784643E-05
   4.18919992      -3.49739676E-05
   4.20120001      -3.43763168E-05
   4.21320009      -3.36953417E-05
   4.22520018      -3.29399045E-05
   4.23719978      -3.21177322E-05
   4.24919987      -3.12354896E-05
   4.26119995      -3.02990866E-05
   4.27320004      -2.93142293E-05
   4.28520012      -2.82870733E-05
   4.29720020      -2.72249981E-05
   4.30919981      -2.61373789E-05
   4.32119989      -2.50362700E-05
   4.33319998      -2.39369419E-05
   4.34520006      -2.28581648E-05
   4.35720015      -2.18222176E-05
   4.36920023      -2.08545553E-05
   4.38119984      -1.99831502E-05
   4.39319992      -1.92375046E-05
   4.40520000      -1.86473972E-05
   4.41720009      -1.82413896E-05
   4.42920017      -1.80452498E-05
   4.44119978      -1.80803072E-05
   4.45319986      -1.83619177E-05
   4.46519995      -1.88980812E-05
   4.47720003      -1.96883739E-05
   4.48920012      -2.07232024E-05
   4.50120020      -2.19834892E-05
   4.51319981      -2.34408053E-05
   4.52519989      -2.50579669E-05
   4.53719997      -2.67900559E-05
   4.54920006      -2.85858459E-05
   4.56120014      -3.03895631E-05
   4.57320023      -3.21428779E-05
   4.58519983      -3.37870661E-05
   4.59719992      -3.52652278E-05
   4.60920000      -3.65244487E-05
   4.62120008      -3.75178461E-05
   4.63320017      -3.82063663E-05
   4.64519978      -3.85603489E-05
   4.65719986      -3.85606945E-05
   4.66919994      -3.81996797E-05
   4.68120003      -3.74813717E-05
   4.69320011      -3.64216357E-05
   4.70520020      -3.50477385E-05
   4.71719980      -3.33975840E-05
   4.72919989      -3.15185716E-05
   4.74119997      -2.94661659E-05
   4.75320005      -2.73021997E-05
   4.76520014      -2.50929534E-05
   4.77720022      -2.29070974E-05
   4.78919983      -2.08135425E-05
   4.80119991      -1.88792601E-05
   4.81320000      -1.71671854E-05
   4.82520008      -1.57342129E-05
   4.83720016      -1.46294105E-05
   4.84919977      -1.38924997E-05
   4.86119986      -1.35526470E-05
   4.87319994      -1.36276540E-05
   4.88520002      -1.41235560E-05
   4.89720011      -1.50346496E-05
   4.90920019      -1.63439781E-05
   4.92119980      -1.80242187E-05
   4.93319988      -2.00389495E-05
   4.94519997      -2.23442494E-05
   4.95720005      -2.48904907E-05
   4.96920013      -2.76243136E-05
   4.98120022      -3.04906025E-05
   4.99319983      -3.34344259E-05
   5.00519991      -3.64027655E-05
   5.01719999      -3.93460505E-05
   5.02920008      -4.22193079E-05
   5.04120016      -4.49830150E-05
   5.05319977      -4.76034984E-05
   5.06519985      -5.00530368E-05
   5.07719994      -5.23095696E-05
   5.08920002      -5.43561873E-05
   5.10120010      -5.61803863E-05
   5.11320019      -5.77732499E-05
   5.12519979      -5.91286152E-05
   5.13719988      -6.02423352E-05
   5.14919996      -6.11116702E-05
   5.16120005      -6.17349215E-05
   5.17320013      -6.21112995E-05
   5.18520021      -6.22410662E-05
   5.19719982      -6.21259387E-05
   5.20919991      -6.17695696E-05
   5.22119999      -6.11783107E-05
   5.23320007      -6.03618937E-05
   5.24520016      -5.93340956E-05
   5.25719976      -5.81132917E-05
   5.26919985      -5.67227144E-05
   5.28119993      -5.51904632E-05
   5.29320002      -5.35491708E-05
   5.30520010      -5.18352645E-05
   5.31720018      -5.00879396E-05
   5.32919979      -4.83477743E-05
   5.34119987      -4.66551537E-05
   5.35319996      -4.50485277E-05
   5.36520004      -4.35626207E-05
   5.37720013      -4.22267585E-05
   5.38920021      -4.10633693E-05
   5.40119982      -4.00868121E-05
   5.41319990      -3.93025693E-05
   5.42519999      -3.87069449E-05
   5.43720007      -3.82872058E-05
   5.44920015      -3.80222627E-05
   5.46120024      -3.78838195E-05
   5.47319984      -3.78378900E-05
   5.48519993      -3.78467012E-05
   5.49720001      -3.78707373E-05
   5.50920010      -3.78709301E-05
   5.52120018      -3.78107943E-05
   5.53319979      -3.76583594E-05
   5.54519987      -3.73878938E-05
   5.55719995      -3.69811933E-05
   5.56920004      -3.64284460E-05
   5.58120012      -3.57286262E-05
   5.59320021      -3.48893700E-05
   5.60519981      -3.39264152E-05
   5.61719990      -3.28625683E-05
   5.62919998      -3.17263875E-05
   5.64120007      -3.05505891E-05
   5.65320015      -2.93702960E-05
   5.66520023      -2.82212786E-05
   5.67719984      -2.71382560E-05
   5.68919992      -2.61533405E-05
   5.70120001      -2.52947120E-05
   5.71320009      -2.45855899E-05
   5.72520018      -2.40434838E-05
   5.73719978      -2.36797696E-05
   5.74919987      -2.34995714E-05
   5.76119995      -2.35018742E-05
   5.77320004      -2.36798824E-05
   5.78520012      -2.40215213E-05
   5.79720020      -2.45100746E-05
   5.80919981      -2.51248548E-05
   5.82119989      -2.58419204E-05
   5.83319998      -2.66347815E-05
   5.84520006      -2.74750601E-05
   5.85720015      -2.83331246E-05
   5.86920023      -2.91786928E-05
   5.88119984      -2.99814019E-05
   5.89319992      -3.07113660E-05
   5.90520000      -3.13397468E-05
   5.91720009      -3.18393213E-05
   5.92920017      -3.21850966E-05
   5.94119978      -3.23549393E-05
   5.95319986      -3.23302484E-05
   5.96519995      -3.20966137E-05
   5.97720003      -3.16444457E-05
   5.98920012      -3.09695970E-05
   6.00120020      -3.00738520E-05
   6.01319981      -2.89653090E-05
   6.02519989      -2.76585779E-05
   6.03719997      -2.61747846E-05
   6.04920006      -2.45413376E-05
   6.06120014      -2.27914243E-05
   6.07320023      -2.09632672E-05
   6.08519983      -1.90991341E-05
   6.09719992      -1.72440941E-05
   6.10920000      -1.54446225E-05
   6.12120008      -1.37470479E-05
   6.13320017      -1.21959420E-05
   6.14519978      -1.08324948E-05
   6.15719986      -9.69298617E-06
   6.16919994      -8.80739572E-06
   6.18120003      -8.19824709E-06
   6.19320011      -7.87973295E-06
   6.20520020      -7.85718566E-06
   6.21719980      -8.12691087E-06
   6.22919989      -8.67641393E-06
   6.24119997      -9.48500565E-06
   6.25320005      -1.05247473E-05
   6.26520014      -1.17617064E-05
   6.27720022      -1.31574343E-05
   6.28919983      -1.46706088E-05
   6.30119991      -1.62587239E-05
   6.31320000      -1.78797472E-05
   6.32520008      -1.94936747E-05
   6.33720016      -2.10638427E-05
   6.34919977      -2.25580006E-05
   6.36119986      -2.39490473E-05
   6.37319994      -2.52154241E-05
   6.38520002      -2.63411530E-05
   6.39720011      -2.73155674E-05
   6.40920019      -2.81327575E-05
   6.42119980      -2.87907933E-05
   6.43319988      -2.92908371E-05
   6.44519997      -2.96361886E-05
   6.45720005      -2.98313753E-05
   6.46920013      -2.98813648E-05
   6.48120022      -2.97909464E-05
   6.49319983      -2.95643658E-05
   6.50519991      -2.92052064E-05
   6.51719999      -2.87165385E-05
   6.52920008      -2.81013363E-05
   6.54120016      -2.73630703E-05
   6.55319977      -2.65064791E-05
   6.56519985      -2.55384020E-05
   6.57719994      -2.44686053E-05
   6.58920002      -2.33105147E-05
   6.60120010      -2.20817710E-05
   6.61320019      -2.08045531E-05
   6.62519979      -1.95055691E-05
   6.63719988      -1.82157419E-05
   6.64919996      -1.69695268E-05
   6.66120005      -1.58039129E-05
   6.67320013      -1.47571136E-05
   6.68520021      -1.38670530E-05
   6.69719982      -1.31696897E-05
   6.70919991      -1.26972991E-05
   6.72119999      -1.24768130E-05
   6.73320007      -1.25283086E-05
   6.74520016      -1.28637621E-05
   6.75719976      -1.34861302E-05
   6.76919985      -1.43888346E-05
   6.78119993      -1.55556900E-05
   6.79320002      -1.69612831E-05
   6.80520010      -1.85717945E-05
   6.81720018      -2.03462278E-05
   6.82919979      -2.22379967E-05
   6.84119987      -2.41967718E-05
   6.85319996      -2.61705081E-05
   6.86520004      -2.81075500E-05
   6.87720013      -2.99587118E-05
   6.88920021      -3.16791993E-05
   6.90119982      -3.32303280E-05
   6.91319990      -3.45808912E-05
   6.92519999      -3.57081735E-05
   6.93720007      -3.65984888E-05
   6.94920015      -3.72473005E-05
   6.96120024      -3.76588832E-05
   6.97319984      -3.78455479E-05
   6.98519993      -3.78265286E-05
   6.99720001      -3.76265598E-05
   7.00920010      -3.72742943E-05
   7.02120018      -3.68005822E-05
   7.03319979      -3.62367682E-05
   7.04519987      -3.56131350E-05
   7.05719995      -3.49574912E-05
   7.06920004      -3.42940621E-05
   7.08120012      -3.36426710E-05
   7.09320021      -3.30183284E-05
   7.10519981      -3.24310859E-05
   7.11719990      -3.18863276E-05
   7.12919998      -3.13852688E-05
   7.14120007      -3.09257521E-05
   7.15320015      -3.05031717E-05
   7.16520023      -3.01114906E-05
   7.17719984      -2.97442530E-05
   7.18919992      -2.93955291E-05
   7.20120001      -2.90606913E-05
   7.21320009      -2.87370149E-05
   7.22520018      -2.84240323E-05
   7.23719978      -2.81236389E-05
   7.24919987      -2.78399748E-05
   7.26119995      -2.75791008E-05
   7.27320004      -2.73484984E-05
   7.28520012      -2.71564768E-05
   7.29720020      -2.70115215E-05
   7.30919981      -2.69216653E-05
   7.32119989      -2.68939039E-05
   7.33319998      -2.69337343E-05
   7.34520006      -2.70448072E-05
   7.35720015      -2.72287270E-05
   7.36920023      -2.74849881E-05
   7.38119984      -2.78110456E-05
   7.39319992      -2.82024812E-05
   7.40520000      -2.86532377E-05
   7.41720009      -2.91559136E-05
   7.42920017      -2.97020633E-05
   7.44119978      -3.02824883E-05
   7.45319986      -3.08874987E-05
   7.46519995      -3.15071302E-05
   7.47720003      -3.21313419E-05
   7.48920012      -3.27501330E-05
   7.50120020      -3.33536555E-05
   7.51319981      -3.39322942E-05
   7.52519989      -3.44767250E-05
   7.53719997      -3.49779912E-05
   7.54920006      -3.54275762E-05
   7.56120014      -3.58175275E-05
   7.57320023      -3.61405582E-05
   7.58519983      -3.63902291E-05
   7.59719992      -3.65611049E-05
   7.60920000      -3.66489585E-05
   7.62120008      -3.66509121E-05
   7.63320017      -3.65656524E-05
   7.64519978      -3.63935396E-05
   7.65719986      -3.61366838E-05
   7.66919994      -3.57990284E-05
   7.68120003      -3.53862742E-05
   7.69320011      -3.49058391E-05
   7.70520020      -3.43666834E-05
   7.71719980      -3.37791280E-05
   7.72919989      -3.31546034E-05
   7.74119997      -3.25053952E-05
   7.75320005      -3.18443526E-05
   7.76520014      -3.11845833E-05
   7.77720022      -3.05391841E-05
   7.78919983      -2.99209241E-05
   7.80119991      -2.93420035E-05
   7.81320000      -2.88137617E-05
   7.82520008      -2.83464396E-05
   7.83720016      -2.79489359E-05
   7.84919977      -2.76285846E-05
   7.86119986      -2.73909391E-05
   7.87319994      -2.72396028E-05
   7.88520002      -2.71760728E-05
   7.89720011      -2.71996378E-05
   7.90920019      -2.73073274E-05
   7.92119980      -2.74939157E-05
   7.93319988      -2.77519939E-05
   7.94519997      -2.80721197E-05
   7.95720005      -2.84430334E-05
   7.96920013      -2.88519459E-05
   7.98120022      -2.92848945E-05
   7.99319983      -2.97271581E-05
   8.00520039      -3.01637137E-05
   8.01720047      -3.05797366E-05
   8.02919960      -3.09610987E-05
   8.04119968      -3.12948468E-05
   8.05319977      -3.15696707E-05
   8.06519985      -3.17763006E-05
   8.07719994      -3.19078281E-05
   8.08920002      -3.19599203E-05
   8.10120010      -3.19309474E-05
   8.11320019      -3.18219900E-05
   8.12520027      -3.16367150E-05
   8.13720036      -3.13812125E-05
   8.14920044      -3.10636497E-05
   8.16119957      -3.06939692E-05
   8.17319965      -3.02834651E-05
   8.18519974      -2.98443811E-05
   8.19719982      -2.93894973E-05
   8.20919991      -2.89317595E-05
   8.22119999      -2.84839389E-05
   8.23320007      -2.80583499E-05
   8.24520016      -2.76666324E-05
   8.25720024      -2.73195765E-05
   8.26920033      -2.70270102E-05
   8.28120041      -2.67977048E-05
   8.29319954      -2.66393181E-05
   8.30519962      -2.65583403E-05
   8.31719971      -2.65600229E-05
   8.32919979      -2.66482803E-05
   8.34119987      -2.68255844E-05
   8.35319996      -2.70927940E-05
   8.36520004      -2.74489848E-05
   8.37720013      -2.78912357E-05
   8.38920021      -2.84144262E-05
   8.40120029      -2.90110347E-05
   8.41320038      -2.96710095E-05
   8.42520046      -3.03816851E-05
   8.43719959      -3.11278018E-05
   8.44919968      -3.18916573E-05
   8.46119976      -3.26533882E-05
   8.47319984      -3.33913886E-05
   8.48519993      -3.40828992E-05
   8.49720001      -3.47046953E-05
   8.50920010      -3.52339121E-05
   8.52120018      -3.56489181E-05
   8.53320026      -3.59302176E-05
   8.54520035      -3.60613631E-05
   8.55720043      -3.60297563E-05
   8.56919956      -3.58273537E-05
   8.58119965      -3.54512013E-05
   8.59319973      -3.49037509E-05
   8.60519981      -3.41930026E-05
   8.61719990      -3.33323442E-05
   8.62919998      -3.23402128E-05
   8.64120007      -3.12395059E-05
   8.65320015      -3.00567935E-05
   8.66520023      -2.88214142E-05
   8.67720032      -2.75644288E-05
   8.68920040      -2.63175334E-05
   8.70119953      -2.51119782E-05
   8.71319962      -2.39775291E-05
   8.72519970      -2.29415455E-05
   8.73719978      -2.20281618E-05
   8.74919987      -2.12576706E-05
   8.76119995      -2.06460700E-05
   8.77320004      -2.02047904E-05
   8.78520012      -1.99406186E-05
   8.79720020      -1.98557882E-05
   8.80920029      -1.99481965E-05
   8.82120037      -2.02117717E-05
   8.83320045      -2.06369059E-05
   8.84519958      -2.12109571E-05
   8.85719967      -2.19187878E-05
   8.86919975      -2.27433156E-05
   8.88119984      -2.36660326E-05
   8.89319992      -2.46675099E-05
   8.90520000      -2.57278516E-05
   8.91720009      -2.68271051E-05
   8.92920017      -2.79456108E-05
   8.94120026      -2.90643165E-05
   8.95320034      -3.01650362E-05
   8.96520042      -3.12306656E-05
   8.97719955      -3.22453889E-05
   8.98919964      -3.31948249E-05
   9.00119972      -3.40661791E-05
   9.01319981      -3.48483663E-05
   9.02519989      -3.55321208E-05
   9.03719997      -3.61100902E-05
   9.04920006      -3.65769047E-05
   9.06120014      -3.69292356E-05
   9.07320023      -3.71658389E-05
   9.08520031      -3.72875511E-05
   9.09720039      -3.72973009E-05
   9.10919952      -3.72000250E-05
   9.12119961      -3.70026100E-05
   9.13319969      -3.67137436E-05
   9.14519978      -3.63437466E-05
   9.15719986      -3.59043479E-05
   9.16919994      -3.54084113E-05
   9.18120003      -3.48696049E-05
   9.19320011      -3.43020547E-05
   9.20520020      -3.37199235E-05
   9.21720028      -3.31370211E-05
   9.22920036      -3.25663495E-05
   9.24120045      -3.20197032E-05
   9.25319958      -3.15073084E-05
   9.26519966      -3.10374635E-05
   9.27719975      -3.06162983E-05
   9.28919983      -3.02476110E-05
   9.30119991      -2.99327712E-05
   9.31320000      -2.96707694E-05
   9.32520008      -2.94583569E-05
   9.33720016      -2.92903133E-05
   9.34920025      -2.91597935E-05
   9.36120033      -2.90587868E-05
   9.37320042      -2.89786167E-05
   9.38519955      -2.89105028E-05
   9.39719963      -2.88461142E-05
   9.40919971      -2.87781113E-05
   9.42119980      -2.87006260E-05
   9.43319988      -2.86096474E-05
   9.44519997      -2.85033111E-05
