 -0.622799993       0.00000000    
 -0.610800028       0.00000000    
 -0.598800004       0.00000000    
 -0.586799979       0.00000000    
 -0.574800014       0.00000000    
 -0.562799990       0.00000000    
 -0.550800025       0.00000000    
 -0.538800001       0.00000000    
 -0.526799977       0.00000000    
 -0.514800012       0.00000000    
 -0.502799988       0.00000000    
 -0.490799993       0.00000000    
 -0.478799999      -0.00000000    
 -0.466800004      -3.36055726E-38
 -0.454800010       1.13296842E-37
 -0.442799985       2.02392286E-36
 -0.430799991       1.41531931E-35
 -0.418799996       6.52338466E-35
 -0.406800002       2.19691973E-34
 -0.394800007       5.50873984E-34
 -0.382800013       9.48095887E-34
 -0.370799989       5.90985479E-34
 -0.358799994      -2.84059349E-33
 -0.346799999      -1.32642209E-32
 -0.334800005      -3.30650750E-32
 -0.322800010      -5.32819439E-32
 -0.310799986      -3.70854274E-32
 -0.298799992       9.07556224E-32
 -0.286799997       4.13467913E-31
 -0.274800003       8.99533886E-31
 -0.262800008       1.16495195E-30
 -0.250800014       2.23271704E-31
 -0.238800004      -3.43963189E-30
 -0.226799995      -1.09023072E-29
 -0.214800000      -2.04857888E-29
 -0.202800006      -2.44551199E-29
 -0.190799996      -6.96779261E-30
 -0.178800002       5.22389659E-29
 -0.166800007       1.63106513E-28
 -0.154799998       2.97749997E-28
 -0.142800003       3.59009351E-28
 -0.130799994       1.70197643E-28
 -0.118799999      -4.74797439E-28
 -0.106799997      -1.66598891E-27
  -9.48000029E-02  -3.14150124E-27
  -8.28000009E-02  -4.05008815E-27
  -7.07999989E-02  -2.90557636E-27
  -5.88000007E-02   2.00827924E-27
  -4.67999987E-02   1.15921076E-26
  -3.48000005E-02   2.43367133E-26
  -2.28000004E-02   3.47690228E-26
  -1.08000003E-02   3.30795139E-26
   1.20000006E-03   7.34422338E-27
   1.31999999E-02  -5.06885933E-26
   2.52000000E-02  -1.36749790E-25
   3.72000001E-02  -2.25035836E-25
   4.91999984E-02  -2.64461921E-25
   6.12000003E-02  -1.86823710E-25
   7.32000023E-02   6.83220042E-26
   8.51999968E-02   5.13239117E-25
   9.71999988E-02   1.06683153E-24
  0.109200001       1.52570807E-24
  0.121200003       1.57818842E-24
  0.133200005       8.83267735E-25
  0.145199999      -7.82172203E-25
  0.157199994      -3.33587899E-24
  0.169200003      -6.22572458E-24
  0.181199998      -8.37620319E-24
  0.193200007      -8.33217055E-24
  0.205200002      -4.64691532E-24
  0.217199996       3.51375923E-24
  0.229200006       1.56757264E-23
  0.241200000       2.94824362E-23
  0.253199995       4.05078150E-23
  0.265199989       4.27123783E-23
  0.277200013       2.97165291E-23
  0.289200008      -3.09211978E-24
  0.301200002      -5.58336437E-23
  0.313199997      -1.21317858E-22
  0.325199991      -1.83029639E-22
  0.337199986      -2.15180782E-22
  0.349200010      -1.86288165E-22
  0.361200005      -6.74819386E-23
  0.373199999       1.54304904E-22
  0.385199994       4.60178185E-22
  0.397199988       7.84978902E-22
  0.409200013       1.01257954E-21
  0.421200007       9.89912848E-22
  0.433200002       5.66745543E-22
  0.445199996      -3.38962373E-22
  0.457199991      -1.66248541E-21
  0.469199985      -3.12744913E-21
  0.481200010      -4.23265088E-21
  0.493200004      -4.32854769E-21
  0.505200028      -2.80325451E-21
  0.517199993       6.40412479E-22
  0.529200017       5.68710259E-21
  0.541199982       1.12090098E-20
  0.553200006       1.53028155E-20
  0.565199971       1.56705199E-20
  0.577199996       1.03545718E-20
  0.589200020      -1.31119355E-21
  0.601199985      -1.78328944E-20
  0.613200009      -3.51711833E-20
  0.625199974      -4.72149201E-20
  0.637199998      -4.72904455E-20
  0.649200022      -3.05222990E-20
  0.661199987       3.57083167E-21
  0.673200011       4.92047612E-20
  0.685199976       9.42142691E-20
  0.697200000       1.22387265E-19
  0.709200025       1.18186713E-19
  0.721199989       7.27980331E-20
  0.733200014      -1.04662129E-20
  0.745199978      -1.13760211E-19
  0.757200003      -2.07179740E-19
  0.769200027      -2.56586256E-19
  0.781199992      -2.35188205E-19
  0.793200016      -1.35273486E-19
  0.805199981       2.46054712E-20
  0.817200005       2.01097895E-19
  0.829200029       3.37742006E-19
  0.841199994       3.84506171E-19
  0.853200018       3.18784422E-19
  0.865199983       1.59103435E-19
  0.877200007      -3.63113451E-20
  0.889199972      -1.89261755E-19
  0.901199996      -2.35225506E-19
  0.913200021      -1.58778159E-19
  0.925199986      -1.41361354E-20
  0.937200010       8.39814181E-20
  0.949199975       4.54617778E-21
  0.961199999      -3.30224899E-19
  0.973200023      -8.75274651E-19
  0.985199988      -1.42752297E-18
  0.997200012      -1.65583733E-18
   1.00919998      -1.20767770E-18
   1.02119994       1.27296505E-19
   1.03320003       2.24967339E-18
   1.04519999       4.65304356E-18
   1.05719995       6.46716934E-18
   1.06920004       6.67559487E-18
   1.08120000       4.47895265E-18
   1.09319997      -2.96007901E-19
   1.10520005      -6.89391265E-18
   1.11720002      -1.35927116E-17
   1.12919998      -1.80308449E-17
   1.14119995      -1.78852794E-17
   1.15320003      -1.17432242E-17
   1.16520000       1.10503291E-19
   1.17719996       1.53130719E-17
   1.18920004       2.97033146E-17
   1.20120001       3.83288265E-17
   1.21319997       3.69893663E-17
   1.22520006       2.38771590E-17
   1.23720002       7.35443232E-19
   1.24919999      -2.69950806E-17
   1.26119995      -5.13118762E-17
   1.27320004      -6.39197069E-17
   1.28520000      -5.90337230E-17
   1.29719996      -3.57997946E-17
   1.30920005       6.20416737E-19
   1.32120001       3.99359061E-17
   1.33319998       6.96037082E-17
   1.34519994       7.89771336E-17
   1.35720003       6.34005352E-17
   1.36919999       2.67138988E-17
   1.38119996      -1.90370374E-17
   1.39320004      -5.70394567E-17
   1.40520000      -7.15191673E-17
   1.41719997      -5.40923611E-17
   1.42920005      -8.31400309E-18
   1.44120002       4.96516188E-17
   1.45319998       9.51966565E-17
   1.46519995       1.03552888E-16
   1.47720003       5.97711314E-17
   1.48920000      -3.31086749E-17
   1.50119996      -1.51154604E-16
   1.51320004      -2.54010596E-16
   1.52520001      -2.96466243E-16
   1.53719997      -2.44181308E-16
   1.54920006      -8.85802175E-17
   1.56120002       1.44617641E-16
   1.57319999       3.97390139E-16
   1.58519995       5.92994849E-16
   1.59720004       6.58268426E-16
   1.60920000       5.48278180E-16
   1.62119997       2.65226927E-16
   1.63320005      -1.35598977E-16
   1.64520001      -5.56521134E-16
   1.65719998      -8.83221371E-16
   1.66919994      -1.01863695E-15
   1.68120003      -9.14524003E-16
   1.69319999      -5.89893385E-16
   1.70519996      -1.28914907E-16
   1.71720004       3.42808872E-16
   1.72920001       6.97365614E-16
   1.74119997       8.46920768E-16
   1.75320005       7.74961614E-16
   1.76520002       5.44503748E-16
   1.77719998       2.78241985E-16
   1.78919995       1.14936706E-16
   1.80120003       1.55074924E-16
   1.81320000       4.13989523E-16
   1.82519996       8.00071588E-16
   1.83720005       1.12911864E-15
   1.84920001       1.17489685E-15
   1.86119998       7.43902080E-16
   1.87320006      -2.47044518E-16
   1.88520002      -1.71507252E-15
   1.89719999      -3.39795525E-15
   1.90919995      -4.89285151E-15
   1.92120004      -5.74206176E-15
   1.93320000      -5.54658985E-15
   1.94519997      -4.07896212E-15
   1.95720005      -1.36516597E-15
   1.96920002       2.28754821E-15
   1.98119998       6.32681053E-15
   1.99319994       1.00487347E-14
   2.00519991       1.27281108E-14
   2.01719999       1.37556990E-14
   2.02920008       1.27525715E-14
   2.04119992       9.63873265E-15
   2.05320001       4.64574871E-15
   2.06520009      -1.72279778E-15
   2.07719994      -8.76780406E-15
   2.08920002      -1.56870671E-14
   2.10120010      -2.16633521E-14
   2.11319995      -2.59344294E-14
   2.12520003      -2.78410938E-14
   2.13720012      -2.68587473E-14
   2.14919996      -2.26246634E-14
   2.16120005      -1.49745007E-14
   2.17319989      -3.99776512E-15
   2.18519998       9.88679557E-15
   2.19720006       2.58460059E-14
   2.20919991       4.25592043E-14
   2.22119999       5.81885817E-14
   2.23320007       7.04288177E-14
   2.24519992       7.66692143E-14
   2.25720000       7.42893431E-14
   2.26920009       6.10866202E-14
   2.28119993       3.58018499E-14
   2.29320002      -1.32935669E-15
   2.30520010      -4.81074023E-14
   2.31719995      -1.00113975E-13
   2.32920003      -1.50803374E-13
   2.34120011      -1.92037412E-13
   2.35319996      -2.15090193E-13
   2.36520004      -2.12047692E-13
   2.37719989      -1.77413666E-13
   2.38919997      -1.09635533E-13
   2.40120006      -1.22114165E-14
   2.41319990       1.05938804E-13
   2.42519999       2.31052536E-13
   2.43720007       3.46089992E-13
   2.44919991       4.33106350E-13
   2.46120000       4.76047153E-13
   2.47320008       4.63449212E-13
   2.48519993       3.90512086E-13
   2.49720001       2.60119183E-13
   2.50920010       8.26201290E-14
   2.52119994      -1.25528318E-13
   2.53320003      -3.43899171E-13
   2.54520011      -5.50487770E-13
   2.55719995      -7.23840259E-13
   2.56920004      -8.44568827E-13
   2.58119988      -8.96200052E-13
   2.59319997      -8.65614167E-13
   2.60520005      -7.43554795E-13
   2.61719990      -5.25710714E-13
   2.62919998      -2.14651634E-13
   2.64120007       1.77522222E-13
   2.65319991       6.26462966E-13
   2.66520000       1.09385461E-12
   2.67720008       1.52790270E-12
   2.68919992       1.86700785E-12
   2.70120001       2.04695896E-12
   2.71320009       2.01105690E-12
   2.72519994       1.72160842E-12
   2.73720002       1.17048916E-12
   2.74920011       3.86233227E-13
   2.76119995      -5.64492843E-13
   2.77320004      -1.58214858E-12
   2.78520012      -2.54600225E-12
   2.79719996      -3.33044117E-12
   2.80920005      -3.82297536E-12
   2.82119989      -3.94053540E-12
   2.83319998      -3.64104103E-12
   2.84520006      -2.92835157E-12
   2.85719991      -1.85028837E-12
   2.86919999      -4.91031857E-13
   2.88120008       1.03968342E-12
   2.89319992       2.61779118E-12
   2.90520000       4.11428660E-12
   2.91720009       5.40178145E-12
   2.92919993       6.35871087E-12
   2.94120002       6.87294275E-12
   2.95320010       6.84708106E-12
   2.96519995       6.20729379E-12
   2.97720003       4.91621674E-12
   2.98920012       2.98856296E-12
   3.00119996       5.06331739E-13
   3.01320004      -2.37063841E-12
   3.02519989      -5.40301788E-12
   3.03719997      -8.28224902E-12
   3.04920006      -1.06535353E-11
   3.06119990      -1.21498280E-11
   3.07319999      -1.24328360E-11
   3.08520007      -1.12359046E-11
   3.09719992      -8.40371175E-12
   3.10920000      -3.92507814E-12
   3.12120008       2.04279974E-12
   3.13319993       9.15848820E-12
   3.14520001       1.68877690E-11
   3.15720010       2.45020445E-11
   3.16919994       3.10856479E-11
   3.18120003       3.55575361E-11
   3.19320011       3.67161926E-11
   3.20519996       3.33186603E-11
   3.21720004       2.42038091E-11
   3.22919989       8.46545056E-12
   3.24119997      -1.43277057E-11
   3.25320005      -4.38797609E-11
   3.26519990      -7.89110513E-11
   3.27719998      -1.16938015E-10
   3.28920007      -1.54139715E-10
   3.30119991      -1.85365417E-10
   3.31320000      -2.04334077E-10
   3.32520008      -2.04064876E-10
   3.33719993      -1.77557843E-10
   3.34920001      -1.18716412E-10
   3.36120009      -2.34718009E-11
   3.37319994       1.08964553E-10
   3.38520002       2.74826495E-10
   3.39720011       4.64627919E-10
   3.40919995       6.62252975E-10
   3.42120004       8.44449510E-10
   3.43319988       9.80855952E-10
   3.44519997       1.03465003E-09
   3.45720005       9.63853442E-10
   3.46919990       7.23237026E-10
   3.48119998       2.66677014E-10
   3.49320006      -4.50302629E-10
   3.50519991      -1.46817580E-09
   3.51719999      -2.82173107E-09
   3.52920008      -4.53961402E-09
   3.54119992      -6.64570088E-09
   3.55320001      -9.16287934E-09
   3.56520009      -1.21197576E-08
   3.57719994      -1.55606372E-08
   3.58920002      -1.95588896E-08
   3.60120010      -2.42335609E-08
   3.61319995      -2.97686729E-08
   3.62520003      -3.64343116E-08
   3.63720012      -4.46082247E-08
   3.64919996      -5.47962102E-08
   3.66120005      -6.76494025E-08
   3.67319989      -8.39762748E-08
   3.68519998      -1.04747194E-07
   3.69720006      -1.31089379E-07
   3.70919991      -1.64270560E-07
   3.72119999      -2.05669934E-07
   3.73320007      -2.56735859E-07
   3.74519992      -3.18930290E-07
   3.75720000      -3.93661168E-07
   3.76920009      -4.82204484E-07
   3.78119993      -5.85619432E-07
   3.79320002      -7.04660238E-07
   3.80520010      -8.39689108E-07
   3.81719995      -9.90596163E-07
   3.82920003      -1.15673072E-06
   3.84120011      -1.33685012E-06
   3.85319996      -1.52909047E-06
   3.86520004      -1.73096373E-06
   3.87719989      -1.93938376E-06
   3.88919997      -2.15072237E-06
   3.90120006      -2.36089659E-06
   3.91319990      -2.56548242E-06
   3.92519999      -2.75985485E-06
   3.93720007      -2.93934545E-06
   3.94919991      -3.09940970E-06
   3.96120000      -3.23580252E-06
   3.97320008      -3.34474362E-06
   3.98519993      -3.42307203E-06
   3.99720001      -3.46837555E-06
   4.00920010      -3.47909213E-06
   4.02120018      -3.45457352E-06
   4.03319979      -3.39510848E-06
   4.04519987      -3.30190460E-06
   4.05719995      -3.17702825E-06
   4.06920004      -3.02330295E-06
   4.08120012      -2.84417843E-06
   4.09320021      -2.64356868E-06
   4.10519981      -2.42567512E-06
   4.11719990      -2.19479966E-06
   4.12919998      -1.95516100E-06
   4.14120007      -1.71072315E-06
   4.15320015      -1.46504442E-06
   4.16520023      -1.22115398E-06
   4.17719984      -9.81465178E-07
   4.18919992      -7.47724584E-07
   4.20120001      -5.20999890E-07
   4.21320009      -3.01704461E-07
   4.22520018      -8.96545558E-08
   4.23719978       1.15846163E-07
   4.24919987       3.15902895E-07
   4.26119995       5.11914550E-07
   4.27320004       7.05455875E-07
   4.28520012       8.98164899E-07
   4.29720020       1.09164341E-06
   4.30919981       1.28737474E-06
   4.32119989       1.48666504E-06
   4.33319998       1.69060831E-06
   4.34520006       1.90007586E-06
   4.35720015       2.11572660E-06
   4.36920023       2.33803644E-06
   4.38119984       2.56733938E-06
   4.39319992       2.80387576E-06
   4.40520000       3.04783862E-06
   4.41720009       3.29941508E-06
   4.42920017       3.55881411E-06
   4.44119978       3.82628014E-06
   4.45319986       4.10208349E-06
   4.46519995       4.38649840E-06
   4.47720003       4.67975269E-06
   4.48920012       4.98197232E-06
   4.50120020       5.29310682E-06
   4.51319981       5.61285560E-06
   4.52519989       5.94059247E-06
   4.53719997       6.27529971E-06
   4.54920006       6.61551667E-06
   4.56120014       6.95930930E-06
   4.57320023       7.30426291E-06
   4.58519983       7.64750166E-06
   4.59719992       7.98573728E-06
   4.60920000       8.31534544E-06
   4.62120008       8.63246169E-06
   4.63320017       8.93310062E-06
   4.64519978       9.21329047E-06
   4.65719986       9.46920318E-06
   4.66919994       9.69729899E-06
   4.68120003       9.89445380E-06
   4.69320011       1.00580728E-05
   4.70520020       1.01861906E-05
   4.71719980       1.02775366E-05
   4.72919989       1.03315824E-05
   4.74119997       1.03485518E-05
   4.75320005       1.03294115E-05
   4.76520014       1.02758240E-05
   4.77720022       1.01900832E-05
   4.78919983       1.00750285E-05
   4.80119991       9.93393496E-06
   4.81320000       9.77040418E-06
   4.82520008       9.58824330E-06
   4.83720016       9.39133679E-06
   4.84919977       9.18353635E-06
   4.86119986       8.96854363E-06
   4.87319994       8.74981924E-06
   4.88520002       8.53049823E-06
   4.89720011       8.31333000E-06
   4.90920019       8.10062465E-06
   4.92119980       7.89424757E-06
   4.93319988       7.69560393E-06
   4.94519997       7.50567006E-06
   4.95720005       7.32502440E-06
   4.96920013       7.15391116E-06
   4.98120022       6.99230804E-06
   4.99319983       6.84000452E-06
   5.00519991       6.69669043E-06
   5.01719999       6.56204111E-06
   5.02920008       6.43579688E-06
   5.04120016       6.31783678E-06
   5.05319977       6.20823403E-06
   5.06519985       6.10729603E-06
   5.07719994       6.01557849E-06
   5.08920002       5.93388359E-06
   5.10120010       5.86322585E-06
   5.11320019       5.80478354E-06
   5.12519979       5.75982313E-06
   5.13719988       5.72961289E-06
   5.14919996       5.71532246E-06
   5.16120005       5.71792043E-06
   5.17320013       5.73807392E-06
   5.18520021       5.77605715E-06
   5.19719982       5.83167457E-06
   5.20919991       5.90420768E-06
   5.22119999       5.99238729E-06
   5.23320007       6.09439348E-06
   5.24520016       6.20788842E-06
   5.25719976       6.33007312E-06
   5.26919985       6.45777527E-06
   5.28119993       6.58755835E-06
   5.29320002       6.71584394E-06
   5.30520010       6.83904591E-06
   5.31720018       6.95370591E-06
   5.32919979       7.05662569E-06
   5.34119987       7.14498765E-06
   5.35319996       7.21645256E-06
   5.36520004       7.26924009E-06
   5.37720013       7.30218335E-06
   5.38920021       7.31474347E-06
   5.40119982       7.30700822E-06
   5.41319990       7.27965198E-06
   5.42519999       7.23386938E-06
   5.43720007       7.17128842E-06
   5.44920015       7.09385949E-06
   5.46120024       7.00373084E-06
   5.47319984       6.90311799E-06
   5.48519993       6.79417053E-06
   5.49720001       6.67883842E-06
   5.50920010       6.55875692E-06
   5.52120018       6.43514159E-06
   5.53319979       6.30870954E-06
   5.54519987       6.17962360E-06
   5.55719995       6.04746992E-06
   5.56920004       5.91126627E-06
   5.58120012       5.76950151E-06
   5.59320021       5.62020978E-06
   5.60519981       5.46107321E-06
   5.61719990       5.28955206E-06
   5.62919998       5.10303380E-06
   5.64120007       4.89899639E-06
   5.65320015       4.67517657E-06
   5.66520023       4.42973578E-06
   5.67719984       4.16141302E-06
   5.68919992       3.86965394E-06
   5.70120001       3.55471457E-06
   5.71320009       3.21772313E-06
   5.72520018       2.86070031E-06
   5.73719978       2.48653510E-06
   5.74919987       2.09890982E-06
   5.76119995       1.70218414E-06
   5.77320004       1.30123453E-06
   5.78520012       9.01260762E-07
   5.79720020       5.07568188E-07
   5.80919981       1.25335603E-07
   5.82119989      -2.40619670E-07
   5.83319998      -5.86063834E-07
   5.84520006      -9.07546564E-07
   5.85720015      -1.20256550E-06
   5.86920023      -1.46968546E-06
   5.88119984      -1.70860528E-06
   5.89319992      -1.92016660E-06
   5.90520000      -2.10630242E-06
   5.91720009      -2.26992506E-06
   5.92920017      -2.41475891E-06
   5.94119978      -2.54512497E-06
   5.95319986      -2.66568236E-06
   5.96519995      -2.78114499E-06
   5.97720003      -2.89598120E-06
   5.98920012      -3.01411319E-06
   6.00120020      -3.13863234E-06
   6.01319981      -3.27154362E-06
   6.02519989      -3.41355644E-06
   6.03719997      -3.56393252E-06
   6.04920006      -3.72040336E-06
   6.06120014      -3.87916543E-06
   6.07320023      -4.03495687E-06
   6.08519983      -4.18121999E-06
   6.09719992      -4.31033914E-06
   6.10920000      -4.41395423E-06
   6.12120008      -4.48333276E-06
   6.13320017      -4.50978177E-06
   6.14519978      -4.48508899E-06
   6.15719986      -4.40195799E-06
   6.16919994      -4.25442477E-06
   6.18120003      -4.03822787E-06
   6.19320011      -3.75110585E-06
   6.20520020      -3.39301050E-06
   6.21719980      -2.96621374E-06
   6.22919989      -2.47530443E-06
   6.24119997      -1.92706852E-06
   6.25320005      -1.33025787E-06
   6.26520014      -6.95259132E-07
   6.27720022      -3.36786989E-08
   6.28919983       6.42132022E-07
   6.30119991       1.31958757E-06
   6.31320000       1.98638531E-06
   6.32520008       2.63100037E-06
   6.33720016       3.24313169E-06
   6.34919977       3.81407722E-06
   6.36119986       4.33702098E-06
   6.37319994       4.80721974E-06
   6.38520002       5.22208484E-06
   6.39720011       5.58116471E-06
   6.40920019       5.88603370E-06
   6.42119980       6.14010742E-06
   6.43319988       6.34839944E-06
   6.44519997       6.51724940E-06
   6.45720005       6.65403559E-06
   6.46920013       6.76690797E-06
   6.48120022       6.86454769E-06
   6.49319983       6.95598283E-06
   6.50519991       7.05045659E-06
   6.51719999       7.15736360E-06
   6.52920008       7.28624218E-06
   6.54120016       7.44682211E-06
   6.55319977       7.64910510E-06
   6.56519985       7.90346803E-06
   6.57719994       8.22076072E-06
   6.58920002       8.61237913E-06
   6.60120010       9.09030223E-06
   6.61320019       9.66705920E-06
   6.62519979       1.03556204E-05
   6.63719988       1.11692152E-05
   6.64919996       1.21210569E-05
   6.66120005       1.32239948E-05
   6.67320013       1.44900896E-05
   6.68520021       1.59301471E-05
   6.69719982       1.75532150E-05
   6.70919991       1.93660671E-05
   6.72119999       2.13727180E-05
   6.73320007       2.35739644E-05
   6.74520016       2.59670069E-05
   6.75719976       2.85451424E-05
   6.76919985       3.12975681E-05
   6.78119993       3.42092826E-05
   6.79320002       3.72611175E-05
   6.80520010       4.04298808E-05
   6.81720018       4.36885894E-05
   6.82919979       4.70068444E-05
   6.84119987       5.03512529E-05
   6.85319996       5.36859698E-05
   6.86520004       5.69732547E-05
   6.87720013       6.01741194E-05
   6.88920021       6.32489682E-05
   6.90119982       6.61583254E-05
   6.91319990       6.88634609E-05
   6.92519999       7.13271511E-05
   6.93720007       7.35143185E-05
   6.94920015       7.53927161E-05
   6.96120024       7.69335311E-05
   6.97319984       7.81120179E-05
   6.98519993       7.89080295E-05
   6.99720001       7.93065265E-05
   7.00920010       7.92979845E-05
   7.02120018       7.88787729E-05
   7.03319979       7.80513874E-05
   7.04519987       7.68246246E-05
   7.05719995       7.52136402E-05
   7.06920004       7.32398548E-05
   7.08120012       7.09307569E-05
   7.09320021       6.83195758E-05
   7.10519981       6.54448158E-05
   7.11719990       6.23496308E-05
   7.12919998       5.90811360E-05
   7.14120007       5.56895611E-05
   7.15320015       5.22273222E-05
   7.16520023       4.87480138E-05
   7.17719984       4.53053544E-05
   7.18919992       4.19521166E-05
   7.20120001       3.87390064E-05
   7.21320009       3.57136487E-05
   7.22520018       3.29195682E-05
   7.23719978       3.03952984E-05
   7.24919987       2.81735665E-05
   7.26119995       2.62806570E-05
   7.27320004       2.47359003E-05
   7.28520012       2.35513580E-05
   7.29720020       2.27316687E-05
   7.30919981       2.22740928E-05
   7.32119989       2.21687387E-05
   7.33319998       2.23989537E-05
   7.34520006       2.29418893E-05
   7.35720015       2.37691929E-05
   7.36920023       2.48478391E-05
   7.38119984       2.61410314E-05
   7.39319992       2.76091887E-05
   7.40520000       2.92109562E-05
   7.41720009       3.09042116E-05
   7.42920017       3.26470872E-05
   7.44119978       3.43988904E-05
   7.45319986       3.61209677E-05
   7.46519995       3.77774850E-05
   7.47720003       3.93360351E-05
   7.48920012       4.07681764E-05
   7.50120020       4.20497381E-05
   7.51319981       4.31610388E-05
   7.52519989       4.40868971E-05
   7.53719997       4.48165119E-05
   7.54920006       4.53431894E-05
   7.56120014       4.56639427E-05
   7.57320023       4.57789902E-05
   7.58519983       4.56911876E-05
   7.59719992       4.54054098E-05
   7.60920000       4.49279396E-05
   7.62120008       4.42658784E-05
   7.63320017       4.34266331E-05
   7.64519978       4.24174941E-05
   7.65719986       4.12453810E-05
   7.66919994       3.99166820E-05
   7.68120003       3.84372579E-05
   7.69320011       3.68126603E-05
   7.70520020       3.50483970E-05
   7.71719980       3.31503834E-05
   7.72919989       3.11254335E-05
   7.74119997       2.89817945E-05
   7.75320005       2.67296709E-05
   7.76520014       2.43816830E-05
   7.77720022       2.19531921E-05
   7.78919983       1.94624899E-05
   7.80119991       1.69307859E-05
   7.81320000       1.43819634E-05
   7.82520008       1.18421322E-05
   7.83720016       9.33895899E-06
   7.84919977       6.90079423E-06
   7.86119986       4.55566487E-06
   7.87319994       2.33015999E-06
   7.88520002       2.48284607E-07
   7.89720011      -1.66965197E-06
   7.90920019      -3.40803876E-06
   7.92119980      -4.95678887E-06
   7.93319988      -6.31192552E-06
   7.94519997      -7.47588501E-06
   7.95720005      -8.45750401E-06
   7.96920013      -9.27167548E-06
   7.98120022      -9.93868434E-06
   7.99319983      -1.04832607E-05
   8.00520039      -1.09333787E-05
   8.01720047      -1.13188989E-05
   8.02919960      -1.16700994E-05
   8.04119968      -1.20162022E-05
   8.05319977      -1.23839745E-05
   8.06519985      -1.27964904E-05
   8.07719994      -1.32721179E-05
   8.08920002      -1.38237920E-05
   8.10120010      -1.44586111E-05
   8.11320019      -1.51777758E-05
   8.12520027      -1.59768570E-05
   8.13720036      -1.68463703E-05
   8.14920044      -1.77726124E-05
   8.16119957      -1.87386904E-05
   8.17319965      -1.97256813E-05
   8.18519974      -2.07138346E-05
   8.19719982      -2.16837489E-05
   8.20919991      -2.26174507E-05
   8.22119999      -2.34992967E-05
   8.23320007      -2.43166887E-05
   8.24520016      -2.50605317E-05
   8.25720024      -2.57254505E-05
   8.26920033      -2.63097427E-05
   8.28120041      -2.68151252E-05
   8.29319954      -2.72462603E-05
   8.30519962      -2.76101418E-05
   8.31719971      -2.79153901E-05
   8.32919979      -2.81714510E-05
   8.34119987      -2.83878471E-05
   8.35319996      -2.85734259E-05
   8.36520004      -2.87357107E-05
   8.37720013      -2.88803622E-05
   8.38920021      -2.90107764E-05
   8.40120029      -2.91278284E-05
   8.41320038      -2.92297736E-05
   8.42520046      -2.93123012E-05
   8.43719959      -2.93687481E-05
   8.44919968      -2.93904322E-05
   8.46119976      -2.93671146E-05
   8.47319984      -2.92875666E-05
   8.48519993      -2.91402048E-05
   8.49720001      -2.89137897E-05
   8.50920010      -2.85981478E-05
   8.52120018      -2.81848934E-05
   8.53320026      -2.76681094E-05
   8.54520035      -2.70449691E-05
   8.55720043      -2.63162492E-05
   8.56919956      -2.54867173E-05
   8.58119965      -2.45653500E-05
   8.59319973      -2.35653679E-05
   8.60519981      -2.25040530E-05
   8.61719990      -2.14023712E-05
   8.62919998      -2.02843657E-05
   8.64120007      -1.91763484E-05
   8.65320015      -1.81059331E-05
   8.66520023      -1.71009106E-05
   8.67720032      -1.61880525E-05
   8.68920040      -1.53918772E-05
   8.70119953      -1.47334431E-05
   8.71319962      -1.42292574E-05
   8.72519970      -1.38903279E-05
   8.73719978      -1.37214356E-05
   8.74919987      -1.37206753E-05
   8.76119995      -1.38792866E-05
   8.77320004      -1.41817936E-05
   8.78520012      -1.46064485E-05
   8.79720020      -1.51259665E-05
   8.80920029      -1.57085069E-05
   8.82120037      -1.63188452E-05
   8.83320045      -1.69196992E-05
   8.84519958      -1.74731122E-05
   8.85719967      -1.79418403E-05
   8.86919975      -1.82906842E-05
   8.88119984      -1.84876935E-05
   8.89319992      -1.85052104E-05
   8.90520000      -1.83207067E-05
   8.91720009      -1.79174003E-05
   8.92920017      -1.72846394E-05
   8.94120026      -1.64180765E-05
   8.95320034      -1.53196161E-05
   8.96520042      -1.39972117E-05
   8.97719955      -1.24644821E-05
   8.98919964      -1.07402348E-05
   9.00119972      -8.84789097E-06
   9.01319981      -6.81485335E-06
   9.02519989      -4.67183463E-06
   9.03719997      -2.45216256E-06
   9.04920006      -1.91072303E-07
   9.06120014       2.07500943E-06
   9.07320023       4.30918953E-06
   9.08520031       6.47483830E-06
   9.09720039       8.53632264E-06
   9.10919952       1.04597439E-05
   9.12119961       1.22136589E-05
   9.13319969       1.37697889E-05
   9.14519978       1.51036820E-05
   9.15719986       1.61953121E-05
   9.16919994       1.70295934E-05
   9.18120003       1.75967925E-05
   9.19320011       1.78927821E-05
   9.20520020       1.79191702E-05
   9.21720028       1.76832436E-05
   9.22920036       1.71977408E-05
   9.24120045       1.64804587E-05
   9.25319958       1.55537164E-05
   9.26519966       1.44436535E-05
   9.27719975       1.31794577E-05
   9.28919983       1.17924965E-05
   9.30119991       1.03154234E-05
   9.31320000       8.78129504E-06
   9.32520008       7.22271807E-06
   9.33720016       5.67107918E-06
   9.34920025       4.15586601E-06
   9.36120033       2.70411329E-06
   9.37320042       1.33996991E-06
   9.38519955       8.43981240E-08
   9.39719963      -1.04500441E-06
   9.40919971      -2.03407149E-06
   9.42119980      -2.87204216E-06
   9.43319988      -3.55145744E-06
   9.44519997      -4.06800518E-06
