 -0.622799993       0.00000000    
 -0.610800028       0.00000000    
 -0.598800004       0.00000000    
 -0.586799979       0.00000000    
 -0.574800014       0.00000000    
 -0.562799990       5.35931955E-22
 -0.550800025       3.81248918E-21
 -0.538800001       1.23211848E-20
 -0.526799977       1.94565482E-20
 -0.514800012      -5.58398774E-21
 -0.502799988      -1.14065518E-19
 -0.490799993      -3.11256717E-19
 -0.478799999      -4.08680576E-19
 -0.466800004       1.18601130E-19
 -0.454800010       2.02954843E-18
 -0.442799985       5.66390542E-18
 -0.430799991       9.65675545E-18
 -0.418799996       9.56208629E-18
 -0.406800002      -2.24875253E-18
 -0.394800007      -3.36277043E-17
 -0.382800013      -8.56549362E-17
 -0.370799989      -1.43172047E-16
 -0.358799994      -1.68127464E-16
 -0.346799999      -1.03927250E-16
 -0.334800005       1.01899857E-16
 -0.322800010       4.56524765E-16
 -0.310799986       8.74943318E-16
 -0.298799992       1.15438849E-15
 -0.286799997       1.00352250E-15
 -0.274800003       1.49223316E-16
 -0.262800008      -1.48851387E-15
 -0.250800014      -3.61041737E-15
 -0.238800004      -5.44025715E-15
 -0.226799995      -5.82582400E-15
 -0.214800000      -3.60276062E-15
 -0.202800006       1.82117229E-15
 -0.190799996       9.84347237E-15
 -0.178800002       1.83017867E-14
 -0.166800007       2.36780064E-14
 -0.154799998       2.20486386E-14
 -0.142800003       1.06763268E-14
 -0.130799994      -1.02137367E-14
 -0.118799999      -3.62054035E-14
 -0.106799997      -5.87852588E-14
  -9.48000029E-02  -6.72332741E-14
  -8.28000009E-02  -5.21646562E-14
  -7.07999989E-02  -9.81015179E-15
  -5.88000007E-02   5.44956536E-14
  -4.67999987E-02   1.25300066E-13
  -3.48000005E-02   1.79660310E-13
  -2.28000004E-02   1.93439530E-13
  -1.08000003E-02   1.49842432E-13
   1.20000006E-03   4.75191751E-14
   1.31999999E-02  -9.49105771E-14
   2.52000000E-02  -2.40417820E-13
   3.72000001E-02  -3.41976203E-13
   4.91999984E-02  -3.56232432E-13
   6.12000003E-02  -2.58652502E-13
   7.32000023E-02  -5.51927990E-14
   8.51999968E-02   2.14021929E-13
   9.71999988E-02   4.81444745E-13
  0.109200001       6.68525294E-13
  0.121200003       7.07779050E-13
  0.133200005       5.64247650E-13
  0.145199999       2.49720709E-13
  0.157199994      -1.75190103E-13
  0.169200003      -6.12694465E-13
  0.181199998      -9.50812454E-13
  0.193200007      -1.09199531E-12
  0.205200002      -9.79915584E-13
  0.217199996      -6.17259282E-13
  0.229200006      -6.95464330E-14
  0.241200000       5.46585238E-13
  0.253199995       1.08846287E-12
  0.265199989       1.42046336E-12
  0.277200013       1.44770329E-12
  0.289200008       1.14241093E-12
  0.301200002       5.56119170E-13
  0.313199997      -1.86611889E-13
  0.325199991      -9.13417345E-13
  0.337199986      -1.44424533E-12
  0.349200010      -1.63792623E-12
  0.361200005      -1.43364379E-12
  0.373199999      -8.75159483E-13
  0.385199994      -1.08406312E-13
  0.397199988       6.50780265E-13
  0.409200013       1.17362576E-12
  0.421200007       1.28650476E-12
  0.433200002       9.30959953E-13
  0.445199996       1.96048418E-13
  0.457199991      -6.90722219E-13
  0.469199985      -1.41642329E-12
  0.481200010      -1.66873557E-12
  0.493200004      -1.23240480E-12
  0.505200028      -6.79469773E-14
  0.517199993       1.65264807E-12
  0.529200017       3.56724784E-12
  0.541199982       5.19951833E-12
  0.553200006       6.07049610E-12
  0.565199971       5.81559020E-12
  0.577199996       4.27492937E-12
  0.589200020       1.53321518E-12
  0.601199985      -2.09881136E-12
  0.613200009      -6.15098814E-12
  0.625199974      -1.00838921E-11
  0.637199998      -1.33728428E-11
  0.649200022      -1.55619267E-11
  0.661199987      -1.62792974E-11
  0.673200011      -1.52237858E-11
  0.685199976      -1.21482182E-11
  0.697200000      -6.87021013E-12
  0.709200025       6.66798919E-13
  0.721199989       1.02799297E-11
  0.733200014       2.14052387E-11
  0.745199978       3.29771870E-11
  0.757200003       4.33907597E-11
  0.769200027       5.06010824E-11
  0.781199992       5.23878926E-11
  0.793200016       4.67687729E-11
  0.805199981       3.24960614E-11
  0.817200005       9.53218234E-12
  0.829200029      -2.06206146E-11
  0.841199994      -5.48485493E-11
  0.853200018      -8.86832760E-11
  0.865199983      -1.16894175E-10
  0.877200007      -1.34350600E-10
  0.889199972      -1.37026321E-10
  0.901199996      -1.22980140E-10
  0.913200021      -9.31389549E-11
  0.925199986      -5.17319972E-11
  0.937200010      -6.26931189E-12
  0.949199975       3.29929348E-11
  0.961199999       5.41113057E-11
  0.973200023       4.50138364E-11
  0.985199988      -4.49569765E-12
  0.997200012      -1.00361428E-10
   1.00919998      -2.41641235E-10
   1.02119994      -4.17759743E-10
   1.03320003      -6.05842043E-10
   1.04519999      -7.68340780E-10
   1.05719995      -8.51142712E-10
   1.06920004      -7.82237941E-10
   1.08120000      -4.70826100E-10
   1.09319997       1.93610336E-10
   1.10520005       1.34317113E-09
   1.11720002       3.13581805E-09
   1.12919998       5.76410653E-09
   1.14119995       9.47096357E-09
   1.15320003       1.45757042E-08
   1.16520000       2.15137295E-08
   1.17719996       3.08937302E-08
   1.18920004       4.35759091E-08
   1.20120001       6.07745747E-08
   1.21319997       8.41875050E-08
   1.22520006       1.16153579E-07
   1.23720002       1.59837981E-07
   1.24919999       2.19442910E-07
   1.26119995       3.00438529E-07
   1.27320004       4.09806376E-07
   1.28520000       5.56284590E-07
   1.29719996       7.50600805E-07
   1.30920005       1.00567706E-06
   1.32120001       1.33678714E-06
   1.33319998       1.76164690E-06
   1.34519994       2.30041996E-06
   1.35720003       2.97561655E-06
   1.36919999       3.81187192E-06
   1.38119996       4.83559279E-06
   1.39320004       6.07446555E-06
   1.40520000       7.55682640E-06
   1.41719997       9.31090472E-06
   1.42920005       1.13639526E-05
   1.44120002       1.37412862E-05
   1.45319998       1.64652720E-05
   1.46519995       1.95543107E-05
   1.47720003       2.30218302E-05
   1.48920000       2.68753647E-05
   1.50119996       3.11157564E-05
   1.51320004       3.57365243E-05
   1.52520001       4.07234584E-05
   1.53719997       4.60544179E-05
   1.54920006       5.16994332E-05
   1.56120002       5.76210768E-05
   1.57319999       6.37750854E-05
   1.58519995       7.01113167E-05
   1.59720004       7.65748337E-05
   1.60920000       8.31073266E-05
   1.62119997       8.96485362E-05
   1.63320005       9.61378537E-05
   1.64520001       1.02515973E-04
   1.65719998       1.08726366E-04
   1.66919994       1.14716815E-04
   1.68120003       1.20440658E-04
   1.69319999       1.25857841E-04
   1.70519996       1.30935732E-04
   1.71720004       1.35649636E-04
   1.72920001       1.39982934E-04
   1.74119997       1.43927129E-04
   1.75320005       1.47481303E-04
   1.76520002       1.50651613E-04
   1.77719998       1.53450383E-04
   1.78919995       1.55895206E-04
   1.80120003       1.58007766E-04
   1.81320000       1.59812815E-04
   1.82519996       1.61337070E-04
   1.83720005       1.62608194E-04
   1.84920001       1.63653996E-04
   1.86119998       1.64501660E-04
   1.87320006       1.65177291E-04
   1.88520002       1.65705584E-04
   1.89719999       1.66109719E-04
   1.90919995       1.66411337E-04
   1.92120004       1.66630736E-04
   1.93320000       1.66787198E-04
   1.94519997       1.66899204E-04
   1.95720005       1.66984872E-04
   1.96920002       1.67062230E-04
   1.98119998       1.67149396E-04
   1.99319994       1.67264792E-04
   2.00519991       1.67427192E-04
   2.01719999       1.67655584E-04
   2.02920008       1.67969047E-04
   2.04119992       1.68386425E-04
   2.05320001       1.68925922E-04
   2.06520009       1.69604740E-04
   2.07719994       1.70438463E-04
   2.08920002       1.71440697E-04
   2.10120010       1.72622502E-04
   2.11319995       1.73991910E-04
   2.12520003       1.75553636E-04
   2.13720012       1.77308611E-04
   2.14919996       1.79253868E-04
   2.16120005       1.81382231E-04
   2.17319989       1.83682438E-04
   2.18519998       1.86139063E-04
   2.19720006       1.88732767E-04
   2.20919991       1.91440500E-04
   2.22119999       1.94235967E-04
   2.23320007       1.97090136E-04
   2.24519992       1.99971822E-04
   2.25720000       2.02848518E-04
   2.26920009       2.05687174E-04
   2.28119993       2.08455167E-04
   2.29320002       2.11121340E-04
   2.30520010       2.13657040E-04
   2.31719995       2.16037181E-04
   2.32920003       2.18241257E-04
   2.34120011       2.20254369E-04
   2.35319996       2.22067945E-04
   2.36520004       2.23680472E-04
   2.37719989       2.25097887E-04
   2.38919997       2.26333810E-04
   2.40120006       2.27409415E-04
   2.41319990       2.28353048E-04
   2.42519999       2.29199562E-04
   2.43720007       2.29989324E-04
   2.44919991       2.30767051E-04
   2.46120000       2.31580227E-04
   2.47320008       2.32477629E-04
   2.48519993       2.33507439E-04
   2.49720001       2.34715524E-04
   2.50920010       2.36143576E-04
   2.52119994       2.37827451E-04
   2.53320003       2.39795627E-04
   2.54520011       2.42067734E-04
   2.55719995       2.44653493E-04
   2.56920004       2.47551798E-04
   2.58119988       2.50750280E-04
   2.59319997       2.54224986E-04
   2.60520005       2.57940526E-04
   2.61719990       2.61850568E-04
   2.62919998       2.65898532E-04
   2.64120007       2.70018558E-04
   2.65319991       2.74136895E-04
   2.66520000       2.78173364E-04
   2.67720008       2.82043096E-04
   2.68919992       2.85658258E-04
   2.70120001       2.88930110E-04
   2.71320009       2.91770906E-04
   2.72519994       2.94095953E-04
   2.73720002       2.95825565E-04
   2.74920011       2.96886981E-04
   2.76119995       2.97216029E-04
   2.77320004       2.96758750E-04
   2.78520012       2.95472739E-04
   2.79719996       2.93328281E-04
   2.80920005       2.90308933E-04
   2.82119989       2.86412338E-04
   2.83319998       2.81650107E-04
   2.84520006       2.76047824E-04
   2.85719991       2.69644457E-04
   2.86919999       2.62491551E-04
   2.88120008       2.54652346E-04
   2.89319992       2.46200303E-04
   2.90520000       2.37217726E-04
   2.91720009       2.27794095E-04
   2.92919993       2.18024361E-04
   2.94120002       2.08007070E-04
   2.95320010       1.97842688E-04
   2.96519995       1.87631624E-04
   2.97720003       1.77472510E-04
   2.98920012       1.67460443E-04
   3.00119996       1.57685223E-04
   3.01320004       1.48229796E-04
   3.02519989       1.39168566E-04
   3.03719997       1.30566026E-04
   3.04920006       1.22475351E-04
   3.06119990       1.14937306E-04
   3.07319999       1.07979155E-04
   3.08520007       1.01614096E-04
   3.09719992       9.58408709E-05
   3.10920000       9.06438509E-05
   3.12120008       8.59935462E-05
   3.13319993       8.18477056E-05
   3.14520001       7.81528215E-05
   3.15720010       7.48462626E-05
   3.16919994       7.18588199E-05
   3.18120003       6.91176901E-05
   3.19320011       6.65496846E-05
   3.20519996       6.40846338E-05
   3.21720004       6.16586913E-05
   3.22919989       5.92174802E-05
   3.24119997       5.67187453E-05
   3.25320005       5.41345107E-05
   3.26519990       5.14524145E-05
   3.27719998       4.86763020E-05
   3.28920007       4.58258037E-05
   3.30119991       4.29350803E-05
   3.31320000       4.00506833E-05
   3.32520008       3.72286850E-05
   3.33719993       3.45312219E-05
   3.34920001       3.20226500E-05
   3.36120009       2.97655988E-05
   3.37319994       2.78171065E-05
   3.38520002       2.62251215E-05
   3.39720011       2.50255689E-05
   3.40919995       2.42401838E-05
   3.42120004       2.38752127E-05
   3.43319988       2.39211004E-05
   3.44519997       2.43531158E-05
   3.45720005       2.51328966E-05
   3.46919990       2.62107842E-05
   3.48119998       2.75287457E-05
   3.49320006       2.90237349E-05
   3.50519991       3.06312140E-05
   3.51719999       3.22886081E-05
   3.52920008       3.39384860E-05
   3.54119992       3.55312623E-05
   3.55320001       3.70272355E-05
   3.56520009       3.83979204E-05
   3.57719994       3.96265459E-05
   3.58920002       4.07077459E-05
   3.60120010       4.16465773E-05
   3.61319995       4.24568207E-05
   3.62520003       4.31588742E-05
   3.63720012       4.37773015E-05
   3.64919996       4.43382960E-05
   3.66120005       4.48671999E-05
   3.67319989       4.53862849E-05
   3.68519998       4.59129296E-05
   3.69720006       4.64583391E-05
   3.70919991       4.70268242E-05
   3.72119999       4.76157038E-05
   3.73320007       4.82158102E-05
   3.74519992       4.88125188E-05
   3.75720000       4.93871958E-05
   3.76920009       4.99189955E-05
   3.78119993       5.03867668E-05
   3.79320002       5.07710211E-05
   3.80520010       5.10557729E-05
   3.81719995       5.12301085E-05
   3.82920003       5.12894039E-05
   3.84120011       5.12361075E-05
   3.85319996       5.10800382E-05
   3.86520004       5.08381927E-05
   3.87719989       5.05340395E-05
   3.88919997       5.01964278E-05
   3.90120006       4.98581212E-05
   3.91319990       4.95540662E-05
   3.92519999       4.93195475E-05
   3.93720007       4.91882674E-05
   3.94919991       4.91905193E-05
   3.96120000       4.93515618E-05
   3.97320008       4.96902394E-05
   3.98519993       5.02179610E-05
   3.99720001       5.09380734E-05
   4.00920010       5.18456218E-05
   4.02120018       5.29275967E-05
   4.03319979       5.41634690E-05
   4.04519987       5.55261940E-05
   4.05719995       5.69834374E-05
   4.06920004       5.84990739E-05
   4.08120012       6.00347994E-05
   4.09320021       6.15518875E-05
   4.10519981       6.30128561E-05
   4.11719990       6.43830863E-05
   4.12919998       6.56323318E-05
   4.14120007       6.67359418E-05
   4.15320015       6.76758937E-05
   4.16520023       6.84414626E-05
   4.17719984       6.90296874E-05
   4.18919992       6.94453993E-05
   4.20120001       6.97010328E-05
   4.21320009       6.98160511E-05
   4.22520018       6.98161675E-05
   4.23719978       6.97322830E-05
   4.24919987       6.95991694E-05
   4.26119995       6.94540358E-05
   4.27320004       6.93349430E-05
   4.28520012       6.92791582E-05
   4.29720020       6.93214679E-05
   4.30919981       6.94926057E-05
   4.32119989       6.98177246E-05
   4.33319998       7.03151309E-05
   4.34520006       7.09952437E-05
   4.35720015       7.18599040E-05
   4.36920023       7.29020685E-05
   4.38119984       7.41058902E-05
   4.39319992       7.54473440E-05
   4.40520000       7.68951941E-05
   4.41720009       7.84124713E-05
   4.42920017       7.99582704E-05
   4.44119978       8.14898231E-05
   4.45319986       8.29647615E-05
   4.46519995       8.43434755E-05
   4.47720003       8.55912294E-05
   4.48920012       8.66801638E-05
   4.50120020       8.75908445E-05
   4.51319981       8.83132525E-05
   4.52519989       8.88472641E-05
   4.53719997       8.92023672E-05
   4.54920006       8.93967372E-05
   4.56120014       8.94557015E-05
   4.57320023       8.94096447E-05
   4.58519983       8.92914904E-05
   4.59719992       8.91340387E-05
   4.60920000       8.89671865E-05
   4.62120008       8.88153954E-05
   4.63320017       8.86955750E-05
   4.64519978       8.86154594E-05
   4.65719986       8.85727859E-05
   4.66919994       8.85552072E-05
   4.68120003       8.85410627E-05
   4.69320011       8.85009431E-05
   4.70520020       8.83999382E-05
   4.71719980       8.82004679E-05
   4.72919989       8.78653591E-05
   4.74119997       8.73611571E-05
   4.75320005       8.66611808E-05
   4.76520014       8.57482737E-05
   4.77720022       8.46169060E-05
   4.78919983       8.32746300E-05
   4.80119991       8.17425025E-05
   4.81320000       8.00547277E-05
   4.82520008       7.82573261E-05
   4.83720016       7.64060096E-05
   4.84919977       7.45633733E-05
   4.86119986       7.27956576E-05
   4.87319994       7.11692192E-05
   4.88520002       6.97469513E-05
   4.89720011       6.85849882E-05
   4.90920019       6.77297794E-05
   4.92119980       6.72157039E-05
   4.93319988       6.70634909E-05
   4.94519997       6.72793394E-05
   4.95720005       6.78548167E-05
   4.96920013       6.87675638E-05
   4.98120022       6.99826342E-05
   4.99319983       7.14543712E-05
   5.00519991       7.31286855E-05
   5.01719999       7.49456158E-05
   5.02920008       7.68419195E-05
   5.04120016       7.87536555E-05
   5.05319977       8.06185781E-05
   5.06519985       8.23782757E-05
   5.07719994       8.39799686E-05
   5.08920002       8.53779493E-05
   5.10120010       8.65346592E-05
   5.11320019       8.74213802E-05
   5.12519979       8.80185835E-05
   5.13719988       8.83160174E-05
   5.14919996       8.83124376E-05
   5.16120005       8.80151929E-05
   5.17320013       8.74395337E-05
   5.18520021       8.66077535E-05
   5.19719982       8.55482140E-05
   5.20919991       8.42942100E-05
   5.22119999       8.28827178E-05
   5.23320007       8.13531078E-05
   5.24520016       7.97457687E-05
   5.25719976       7.81008639E-05
   5.26919985       7.64569559E-05
   5.28119993       7.48499078E-05
   5.29320002       7.33119014E-05
   5.30520010       7.18706215E-05
   5.31720018       7.05488492E-05
   5.32919979       6.93641850E-05
   5.34119987       6.83291946E-05
   5.35319996       6.74518524E-05
   5.36520004       6.67361091E-05
   5.37720013       6.61828308E-05
   5.38920021       6.57907149E-05
   5.40119982       6.55572949E-05
   5.41319990       6.54798423E-05
   5.42519999       6.55561307E-05
   5.43720007       6.57848723E-05
   5.44920015       6.61659578E-05
   5.46120024       6.67002314E-05
   5.47319984       6.73890609E-05
   5.48519993       6.82335376E-05
   5.49720001       6.92334143E-05
   5.50920010       7.03860205E-05
   5.52120018       7.16850336E-05
   5.53319979       7.31194596E-05
   5.54519987       7.46727383E-05
   5.55719995       7.63222852E-05
   5.56920004       7.80393602E-05
   5.58120012       7.97894609E-05
   5.59320021       8.15331732E-05
   5.60519981       8.32275036E-05
   5.61719990       8.48275304E-05
   5.62919998       8.62884408E-05
   5.64120007       8.75675687E-05
   5.65320015       8.86266134E-05
   5.66520023       8.94335681E-05
   5.67719984       8.99644874E-05
   5.68919992       9.02047614E-05
   5.70120001       9.01499661E-05
   5.71320009       8.98061917E-05
   5.72520018       8.91897580E-05
   5.73719978       8.83264438E-05
   5.74919987       8.72503224E-05
   5.76119995       8.60021100E-05
   5.77320004       8.46273470E-05
   5.78520012       8.31745056E-05
   5.79720020       8.16930115E-05
   5.80919981       8.02314680E-05
   5.82119989       7.88360776E-05
   5.83319998       7.75493900E-05
   5.84520006       7.64092838E-05
   5.85720015       7.54483917E-05
   5.86920023       7.46937731E-05
   5.88119984       7.41667973E-05
   5.89319992       7.38832314E-05
   5.90520000       7.38534800E-05
   5.91720009       7.40827672E-05
   5.92920017       7.45713405E-05
   5.94119978       7.53146014E-05
   5.95319986       7.63031494E-05
   5.96519995       7.75227600E-05
   5.97720003       7.89542537E-05
   5.98920012       8.05734744E-05
   6.00120020       8.23512455E-05
   6.01319981       8.42534864E-05
   6.02519989       8.62415181E-05
   6.03719997       8.82726526E-05
   6.04920006       9.03009204E-05
   6.06120014       9.22782419E-05
   6.07320023       9.41557373E-05
   6.08519983       9.58851888E-05
   6.09719992       9.74207578E-05
   6.10920000       9.87205640E-05
   6.12120008       9.97482712E-05
   6.13320017       1.00474484E-04
   6.14519978       1.00877842E-04
   6.15719986       1.00945814E-04
   6.16919994       1.00675083E-04
   6.18120003       1.00071542E-04
   6.19320011       9.91499328E-05
   6.20520020       9.79331526E-05
   6.21719980       9.64512874E-05
   6.22919989       9.47404915E-05
   6.24119997       9.28417503E-05
   6.25320005       9.07996582E-05
   6.26520014       8.86612179E-05
   6.27720022       8.64748145E-05
   6.28919983       8.42892841E-05
   6.30119991       8.21531139E-05
   6.31320000       8.01137576E-05
   6.32520008       7.82170609E-05
   6.33720016       7.65066288E-05
   6.34919977       7.50231920E-05
   6.36119986       7.38038361E-05
   6.37319994       7.28811356E-05
   6.38520002       7.22821133E-05
   6.39720011       7.20270764E-05
   6.40920019       7.21284378E-05
   6.42119980       7.25894715E-05
   6.43319988       7.34032874E-05
   6.44519997       7.45519574E-05
   6.45720005       7.60060648E-05
   6.46920013       7.77246823E-05
   6.48120022       7.96559107E-05
   6.49319983       8.17380205E-05
   6.50519991       8.39011554E-05
   6.51719999       8.60696018E-05
   6.52920008       8.81645246E-05
   6.54120016       9.01070525E-05
   6.55319977       9.18214500E-05
   6.56519985       9.32383409E-05
   6.57719994       9.42976694E-05
   6.58920002       9.49512687E-05
   6.60120010       9.51648472E-05
   6.61320019       9.49193200E-05
   6.62519979       9.42113620E-05
   6.63719988       9.30532697E-05
   6.64919996       9.14719785E-05
   6.66120005       8.95076082E-05
   6.67320013       8.72113887E-05
   6.68520021       8.46433468E-05
   6.69719982       8.18698172E-05
   6.70919991       7.89609840E-05
   6.72119999       7.59886316E-05
   6.73320007       7.30241518E-05
   6.74520016       7.01369936E-05
   6.75719976       6.73935065E-05
   6.76919985       6.48561909E-05
   6.78119993       6.25832254E-05
   6.79320002       6.06283029E-05
   6.80520010       5.90404707E-05
   6.81720018       5.78639847E-05
   6.82919979       5.71379896E-05
   6.84119987       5.68959258E-05
   6.85319996       5.71646306E-05
   6.86520004       5.79631051E-05
   6.87720013       5.93010045E-05
   6.88920021       6.11769792E-05
   6.90119982       6.35769393E-05
   6.91319990       6.64724939E-05
   6.92519999       6.98197691E-05
   6.93720007       7.35587091E-05
   6.94920015       7.76131346E-05
   6.96120024       8.18916160E-05
   6.97319984       8.62893285E-05
   6.98519993       9.06907590E-05
   6.99720001       9.49733512E-05
   7.00920010       9.90118206E-05
   7.02120018       1.02683058E-04
   7.03319979       1.05871179E-04
   7.04519987       1.08472661E-04
   7.05719995       1.10401044E-04
   7.06920004       1.11590998E-04
   7.08120012       1.12001493E-04
   7.09320021       1.11617781E-04
   7.10519981       1.10452194E-04
   7.11719990       1.08543500E-04
   7.12919998       1.05955063E-04
   7.14120007       1.02771774E-04
   7.15320015       9.90959597E-05
   7.16520023       9.50426547E-05
   7.17719984       9.07343565E-05
   7.18919992       8.62957240E-05
   7.20120001       8.18485059E-05
   7.21320009       7.75068911E-05
   7.22520018       7.33737033E-05
   7.23719978       6.95374547E-05
   7.24919987       6.60704536E-05
   7.26119995       6.30279756E-05
   7.27320004       6.04484194E-05
   7.28520012       5.83543915E-05
   7.29720020       5.67544666E-05
   7.30919981       5.56454543E-05
   7.32119989       5.50149161E-05
   7.33319998       5.48437092E-05
   7.34520006       5.51083140E-05
   7.35720015       5.57827952E-05
   7.36920023       5.68402138E-05
   7.38119984       5.82534667E-05
   7.39319992       5.99955165E-05
   7.40520000       6.20390711E-05
   7.41720009       6.43557869E-05
   7.42920017       6.69152068E-05
   7.44119978       6.96835632E-05
   7.45319986       7.26226572E-05
   7.46519995       7.56889713E-05
   7.47720003       7.88332109E-05
   7.48920012       8.20003843E-05
   7.50120020       8.51304867E-05
   7.51319981       8.81598098E-05
   7.52519989       9.10227973E-05
   7.53719997       9.36544093E-05
   7.54920006       9.59927711E-05
   7.56120014       9.79819670E-05
   7.57320023       9.95747687E-05
   7.58519983       1.00735029E-04
   7.59719992       1.01439648E-04
   7.60920000       1.01679856E-04
   7.62120008       1.01461679E-04
   7.63320017       1.00805672E-04
   7.64519978       9.97456664E-05
   7.65719986       9.83268765E-05
   7.66919994       9.66032967E-05
   7.68120003       9.46346336E-05
   7.69320011       9.24830165E-05
   7.70520020       9.02097236E-05
   7.71719980       8.78720966E-05
   7.72919989       8.55209801E-05
   7.74119997       8.31987854E-05
   7.75320005       8.09383127E-05
   7.76520014       7.87624667E-05
   7.77720022       7.66847588E-05
   7.78919983       7.47106096E-05
   7.80119991       7.28392260E-05
   7.81320000       7.10659588E-05
   7.82520008       6.93848197E-05
   7.83720016       6.77909993E-05
   7.84919977       6.62829989E-05
   7.86119986       6.48644418E-05
   7.87319994       6.35450560E-05
   7.88520002       6.23409651E-05
   7.89720011       6.12742369E-05
   7.90920019       6.03715234E-05
   7.92119980       5.96622158E-05
   7.93319988       5.91760181E-05
   7.94519997       5.89402916E-05
   7.95720005       5.89774063E-05
   7.96920013       5.93023178E-05
   7.98120022       5.99205887E-05
   7.99319983       6.08271002E-05
   8.00520039       6.20055289E-05
   8.01720047       6.34286771E-05
   8.02919960       6.50596194E-05
   8.04119968       6.68536377E-05
   8.05319977       6.87607171E-05
   8.06519985       7.07284198E-05
   8.07719994       7.27049774E-05
   8.08920002       7.46422884E-05
   8.10120010       7.64985016E-05
   8.11320019       7.82402349E-05
   8.12520027       7.98439069E-05
   8.13720036       8.12964790E-05
   8.14920044       8.25952011E-05
   8.16119957       8.37467451E-05
   8.17319965       8.47655247E-05
   8.18519974       8.56716579E-05
   8.19719982       8.64885151E-05
   8.20919991       8.72402525E-05
   8.22119999       8.79494983E-05
   8.23320007       8.86353228E-05
   8.24520016       8.93117976E-05
   8.25720024       8.99870502E-05
   8.26920033       9.06630594E-05
   8.28120041       9.13360636E-05
   8.29319954       9.19974773E-05
   8.30519962       9.26352877E-05
   8.31719971       9.32357289E-05
   8.32919979       9.37850200E-05
   8.34119987       9.42710394E-05
   8.35319996       9.46847867E-05
   8.36520004       9.50213944E-05
   8.37720013       9.52807095E-05
   8.38920021       9.54672869E-05
   8.40120029       9.55899086E-05
   8.41320038       9.56605872E-05
   8.42520046       9.56931544E-05
   8.43719959       9.57016891E-05
   8.44919968       9.56987642E-05
   8.46119976       9.56938966E-05
   8.47319984       9.56921795E-05
   8.48519993       9.56933072E-05
   8.49720001       9.56911535E-05
   8.50920010       9.56738877E-05
   8.52120018       9.56245931E-05
   8.53320026       9.55225696E-05
   8.54520035       9.53448834E-05
   8.55720043       9.50683461E-05
   8.56919956       9.46715809E-05
   8.58119965       9.41370818E-05
   8.59319973       9.34530763E-05
   8.60519981       9.26150460E-05
   8.61719990       9.16266945E-05
   8.62919998       9.05004272E-05
   8.64120007       8.92570897E-05
   8.65320015       8.79251529E-05
   8.66520023       8.65392722E-05
   8.67720032       8.51383229E-05
   8.68920040       8.37631742E-05
   8.70119953       8.24542221E-05
   8.71319962       8.12489234E-05
   8.72519970       8.01795395E-05
   8.73719978       7.92712890E-05
   8.74919987       7.85409065E-05
   8.76119995       7.79958937E-05
   8.77320004       7.76343513E-05
   8.78520012       7.74455330E-05
   8.79720020       7.74108994E-05
   8.80920029       7.75057342E-05
   8.82120037       7.77010573E-05
   8.83320045       7.79657421E-05
   8.84519958       7.82686184E-05
   8.85719967       7.85804732E-05
   8.86919975       7.88756734E-05
   8.88119984       7.91334096E-05
   8.89319992       7.93384606E-05
   8.90520000       7.94813677E-05
   8.91720009       7.95581800E-05
   8.92920017       7.95697124E-05
   8.94120026       7.95204542E-05
   8.95320034       7.94173684E-05
   8.96520042       7.92685096E-05
   8.97719955       7.90818376E-05
   8.98919964       7.88641992E-05
   9.00119972       7.86206510E-05
   9.01319981       7.83541691E-05
   9.02519989       7.80657356E-05
   9.03719997       7.77548412E-05
   9.04920006       7.74201835E-05
   9.06120014       7.70606857E-05
   9.07320023       7.66764715E-05
   9.08520031       7.62698182E-05
   9.09720039       7.58459209E-05
   9.10919952       7.54132925E-05
   9.12119961       7.49838509E-05
   9.13319969       7.45725119E-05
   9.14519978       7.41963959E-05
   9.15719986       7.38737290E-05
   9.16919994       7.36223592E-05
   9.18120003       7.34582645E-05
   9.19320011       7.33939742E-05
   9.20520020       7.34372443E-05
   9.21720028       7.35900030E-05
   9.22920036       7.38477320E-05
   9.24120045       7.41993790E-05
   9.25319958       7.46278165E-05
   9.26519966       7.51108309E-05
   9.27719975       7.56225418E-05
   9.28919983       7.61351766E-05
   9.30119991       7.66210505E-05
   9.31320000       7.70545448E-05
   9.32520008       7.74139335E-05
   9.33720016       7.76829329E-05
   9.34920025       7.78517060E-05
   9.36120033       7.79174006E-05
   9.37320042       7.78840622E-05
   9.38519955       7.77618625E-05
   9.39719963       7.75659064E-05
   9.40919971       7.73144784E-05
   9.42119980       7.70271072E-05
   9.43319988       7.67224046E-05
   9.44519997       7.64161159E-05
