 -0.622799993       0.00000000    
 -0.610800028       0.00000000    
 -0.598800004       0.00000000    
 -0.586799979       0.00000000    
 -0.574800014       0.00000000    
 -0.562799990       0.00000000    
 -0.550800025       0.00000000    
 -0.538800001       0.00000000    
 -0.526799977       0.00000000    
 -0.514800012       0.00000000    
 -0.502799988       0.00000000    
 -0.490799993       0.00000000    
 -0.478799999       0.00000000    
 -0.466800004      -0.00000000    
 -0.454800010       0.00000000    
 -0.442799985      -0.00000000    
 -0.430799991      -8.39382881E-38
 -0.418799996      -6.96768600E-37
 -0.406800002      -3.88986140E-36
 -0.394800007      -1.62295649E-35
 -0.382800013      -5.20925315E-35
 -0.370799989      -1.19301461E-34
 -0.358799994      -1.39336040E-34
 -0.346799999       3.00582033E-34
 -0.334800005       2.44999141E-33
 -0.322800010       8.93833415E-33
 -0.310799986       2.31834978E-32
 -0.298799992       4.46629784E-32
 -0.286799997       5.52161788E-32
 -0.274800003      -6.89002496E-33
 -0.262800008      -2.76604635E-31
 -0.250800014      -9.56957914E-31
 -0.238800004      -2.19297687E-30
 -0.226799995      -3.70010338E-30
 -0.214800000      -4.06732706E-30
 -0.202800006       9.65070694E-32
 -0.190799996       1.44442384E-29
 -0.178800002       4.50514405E-29
 -0.166800007       9.22761124E-29
 -0.154799998       1.38719064E-28
 -0.142800003       1.32983946E-28
 -0.130799994      -2.18425387E-29
 -0.118799999      -4.55624228E-28
 -0.106799997      -1.26627082E-27
  -9.48000029E-02  -2.37729378E-27
  -8.28000009E-02  -3.32222415E-27
  -7.07999989E-02  -3.02853023E-27
  -5.88000007E-02   2.23139014E-28
  -4.67999987E-02   8.38675391E-27
  -3.48000005E-02   2.24883028E-26
  -2.28000004E-02   4.05935896E-26
  -1.08000003E-02   5.52707998E-26
   1.20000006E-03   5.17117120E-26
   1.31999999E-02   8.59350403E-27
   2.52000000E-02  -9.56917306E-26
   3.72000001E-02  -2.69402014E-25
   4.91999984E-02  -4.86895058E-25
   6.12000003E-02  -6.66498324E-25
   7.32000023E-02  -6.58607151E-25
   8.51999968E-02  -2.61582825E-25
   9.71999988E-02   7.16007382E-25
  0.109200001       2.33709155E-24
  0.121200003       4.37446091E-24
  0.133200005       6.15414216E-24
  0.145199999       6.49271810E-24
  0.157199994       3.84559199E-24
  0.169200003      -3.22670103E-24
  0.181199998      -1.52405119E-23
  0.193200007      -3.07361129E-23
  0.205200002      -4.53178660E-23
  0.217199996      -5.13300684E-23
  0.229200006      -3.88256449E-23
  0.241200000       1.62992162E-24
  0.253199995       7.42338054E-23
  0.265199989       1.72042801E-22
  0.277200013       2.71710479E-22
  0.289200008       3.31682992E-22
  0.301200002       2.97087693E-22
  0.313199997       1.13805340E-22
  0.325199991      -2.48120837E-22
  0.337199986      -7.65514964E-22
  0.349200010      -1.33612772E-21
  0.361200005      -1.76849377E-21
  0.373199999      -1.80171065E-21
  0.385199994      -1.16553494E-21
  0.397199988       3.19070962E-22
  0.409200013       2.61509859E-21
  0.421200007       5.35555947E-21
  0.433200002       7.79121177E-21
  0.445199996       8.85454517E-21
  0.457199991       7.37903106E-21
  0.469199985       2.47355175E-21
  0.481200010      -6.00713586E-21
  0.493200004      -1.70212364E-20
  0.505200028      -2.81043887E-20
  0.517199993      -3.55253846E-20
  0.529200017      -3.49633057E-20
  0.541199982      -2.27074843E-20
  0.553200006       2.80426647E-21
  0.565199971       3.94939904E-20
  0.577199996       8.07296354E-20
  0.589200020       1.15538339E-19
  0.601199985       1.30330577E-19
  0.613200009       1.12155804E-19
  0.625199974       5.30079341E-20
  0.637199998      -4.58215763E-20
  0.649200022      -1.70707693E-19
  0.661199987      -2.95370584E-19
  0.673200011      -3.84254630E-19
  0.685199976      -3.99740718E-19
  0.697200000      -3.12188639E-19
  0.709200025      -1.10676688E-19
  0.721199989       1.88453496E-19
  0.733200014       5.38201343E-19
  0.745199978       8.64817279E-19
  0.757200003       1.07959788E-18
  0.769200027       1.09713369E-18
  0.781199992       8.56668361E-19
  0.793200016       3.41987950E-19
  0.805199981      -4.04913078E-19
  0.817200005      -1.28015940E-18
  0.829200029      -2.12623488E-18
  0.841199994      -2.75191161E-18
  0.853200018      -2.96178243E-18
  0.865199983      -2.59216236E-18
  0.877200007      -1.54956706E-18
  0.889199972       1.52399278E-19
  0.901199996       2.36282074E-18
  0.913200021       4.77677903E-18
  0.925199986       6.94137131E-18
  0.937200010       8.29505900E-18
  0.949199975       8.24936968E-18
  0.961199999       6.31519145E-18
  0.973200023       2.26289712E-18
  0.985199988      -3.71216242E-18
  0.997200012      -1.08651356E-17
   1.00919998      -1.78752936E-17
   1.02119994      -2.29707924E-17
   1.03320003      -2.42325108E-17
   1.04519999      -2.00588255E-17
   1.05719995      -9.71374406E-18
   1.06920004       6.17593022E-18
   1.08120000       2.53421091E-17
   1.09319997       4.39727890E-17
   1.10520005       5.72771289E-17
   1.11720002       6.04937034E-17
   1.12919998       5.01742018E-17
   1.14119995       2.54428928E-17
   1.15320003      -1.11392740E-17
   1.16520000      -5.34517064E-17
   1.17719996      -9.26373465E-17
   1.18920004      -1.18840615E-16
   1.20120001      -1.23550767E-16
   1.21319997      -1.02002249E-16
   1.22520006      -5.49672204E-17
   1.23720002       1.06569822E-17
   1.24919999       8.28017058E-17
   1.26119995       1.46653537E-16
   1.27320004       1.88043644E-16
   1.28520000       1.96947747E-16
   1.29719996       1.70123391E-16
   1.30920005       1.12079638E-16
   1.32120001       3.40088758E-17
   1.33319998      -4.90968784E-17
   1.34519994      -1.22354465E-16
   1.35720003      -1.74771974E-16
   1.36919999      -2.01743700E-16
   1.38119996      -2.05464028E-16
   1.39320004      -1.93117570E-16
   1.40520000      -1.73435475E-16
   1.41719997      -1.52777559E-16
   1.42920005      -1.32099817E-16
   1.44120002      -1.05913066E-16
   1.45319998      -6.36993592E-17
   1.46519995       6.55688701E-18
   1.47720003       1.13762481E-16
   1.48920000       2.59405878E-16
   1.50119996       4.34767401E-16
   1.51320004       6.20313515E-16
   1.52520001       7.87212834E-16
   1.53719997       9.00336731E-16
   1.54920006       9.21945918E-16
   1.56120002       8.15596378E-16
   1.57319999       5.50440708E-16
   1.58519995       1.06685838E-16
   1.59720004      -5.16968348E-16
   1.60920000      -1.29382642E-15
   1.62119997      -2.15908656E-15
   1.63320005      -3.00244465E-15
   1.64520001      -3.66816046E-15
   1.65719998      -3.96740576E-15
   1.66919994      -3.70584157E-15
   1.68120003      -2.72547928E-15
   1.69319999      -9.54755845E-16
   1.70519996       1.54416446E-15
   1.71720004       4.54476163E-15
   1.72920001       7.65544397E-15
   1.74119997       1.03570606E-14
   1.75320005       1.20783510E-14
   1.76520002       1.22987176E-14
   1.77719998       1.06585502E-14
   1.78919995       7.05238023E-15
   1.80120003       1.68152663E-15
   1.81320000      -4.94888359E-15
   1.82519996      -1.20904754E-14
   1.83720005      -1.88569575E-14
   1.84920001      -2.43498255E-14
   1.86119998      -2.77753674E-14
   1.87320006      -2.85283746E-14
   1.88520002      -2.62306419E-14
   1.89719999      -2.07294797E-14
   1.90919995      -1.20770330E-14
   1.92120004      -5.19360263E-16
   1.93320000       1.34795985E-14
   1.94519997       2.91700495E-14
   1.95720005       4.54199192E-14
   1.96920002       6.06307471E-14
   1.98119998       7.27233080E-14
   1.99319994       7.92500763E-14
   2.00519991       7.76702040E-14
   2.01719999       6.57826590E-14
   2.02920008       4.22632747E-14
   2.04119992       7.20458781E-15
   2.05320001      -3.74703252E-14
   2.06520009      -8.78478537E-14
   2.07719994      -1.38209444E-13
   2.08920002      -1.81590488E-13
   2.10120010      -2.10660238E-13
   2.11319995      -2.18794858E-13
   2.12520003      -2.01165460E-13
   2.13720012      -1.55649229E-13
   2.14919996      -8.34027400E-14
   2.16120005       1.09972219E-14
   2.17319989       1.19856273E-13
   2.18519998       2.33039120E-13
   2.19720006       3.38897421E-13
   2.20919991       4.25309744E-13
   2.22119999       4.80718655E-13
   2.23320007       4.95099458E-13
   2.24519992       4.60850704E-13
   2.25720000       3.73630380E-13
   2.26920009       2.33163098E-13
   2.28119993       4.39979372E-14
   2.29320002      -1.83873411E-13
   2.30520010      -4.34707581E-13
   2.31719995      -6.87227456E-13
   2.32920003      -9.15578811E-13
   2.34120011      -1.09116102E-12
   2.35319996      -1.18532126E-12
   2.36520004      -1.17272175E-12
   2.37719989      -1.03501084E-12
   2.38919997      -7.64294064E-13
   2.40120006      -3.65866761E-13
   2.41319990       1.40276977E-13
   2.42519999       7.19484314E-13
   2.43720007       1.32414771E-12
   2.44919991       1.89696327E-12
   2.46120000       2.37545227E-12
   2.47320008       2.69734300E-12
   2.48519993       2.80638381E-12
   2.49720001       2.65819094E-12
   2.50920010       2.22577989E-12
   2.52119994       1.50446279E-12
   2.53320003       5.15761153E-13
   2.54520011      -6.90109916E-13
   2.55719995      -2.03373429E-12
   2.56920004      -3.40857507E-12
   2.58119988      -4.68620845E-12
   2.59319997      -5.72503329E-12
   2.60520005      -6.38236035E-12
   2.61719990      -6.52919602E-12
   2.62919998      -6.06641170E-12
   2.64120007      -4.94043955E-12
   2.65319991      -3.15633479E-12
   2.66520000      -7.86091515E-13
   2.67720008       2.02946492E-12
   2.68919992       5.08613160E-12
   2.70120001       8.12907033E-12
   2.71320009       1.08718069E-11
   2.72519994       1.30196973E-11
   2.73720002       1.42956029E-11
   2.74920011       1.44655225E-11
   2.76119995       1.33621621E-11
   2.77320004       1.09050260E-11
   2.78520012       7.11599876E-12
   2.79719996       2.12979829E-12
   2.80920005      -3.80141058E-12
   2.82119989      -1.03101087E-11
   2.83319998      -1.69235546E-11
   2.84520006      -2.30835056E-11
   2.85719991      -2.81769746E-11
   2.86919999      -3.15787292E-11
   2.88120008      -3.27048874E-11
   2.89319992      -3.10749274E-11
   2.90520000      -2.63773690E-11
   2.91720009      -1.85323059E-11
   2.92919993      -7.74262425E-12
   2.94120002       5.47450149E-12
   2.95320010       2.02834000E-11
   2.96519995       3.55582855E-11
   2.97720003       4.99464567E-11
   2.98920012       6.19647458E-11
   3.00119996       7.01239553E-11
   3.01320004       7.30723745E-11
   3.02519989       6.97469651E-11
   3.03719997       5.95186470E-11
   3.04920006       4.23174100E-11
   3.06119990       1.87228635E-11
   3.07319999      -9.99330219E-12
   3.08520007      -4.18842738E-11
   3.09719992      -7.44127537E-11
   3.10920000      -1.04606816E-10
   3.12120008      -1.29284236E-10
   3.13319993      -1.45335244E-10
   3.14520001      -1.50044505E-10
   3.15720010      -1.41425371E-10
   3.16919994      -1.18531532E-10
   3.18120003      -8.17073492E-11
   3.19320011      -3.27374100E-11
   3.20519996       2.51388077E-11
   3.21720004       8.73705691E-11
   3.22919989       1.48405704E-10
   3.24119997       2.02154876E-10
   3.25320005       2.42577847E-10
   3.26519990       2.64339217E-10
   3.27719998       2.63466277E-10
   3.28920007       2.37932202E-10
   3.30119991       1.88087254E-10
   3.31320000       1.16870361E-10
   3.32520008       2.97500531E-11
   3.33719993      -6.56296614E-11
   3.34920001      -1.60092384E-10
   3.36120009      -2.43821768E-10
   3.37319994      -3.07430942E-10
   3.38520002      -3.43108320E-10
   3.39720011      -3.45717954E-10
   3.40919995      -3.13722909E-10
   3.42120004      -2.49801235E-10
   3.43319988      -1.61041278E-10
   3.44519997      -5.86322865E-11
   3.45720005       4.29899762E-11
   3.46919990       1.27530389E-10
   3.48119998       1.78682194E-10
   3.49320006       1.82304033E-10
   3.50519991       1.28739519E-10
   3.51719999       1.50510576E-11
   3.52920008      -1.53084531E-10
   3.54119992      -3.60073693E-10
   3.55320001      -5.79927495E-10
   3.56520009      -7.76787967E-10
   3.57719994      -9.06568209E-10
   3.58920002      -9.19723298E-10
   3.60120010      -7.65069896E-10
   3.61319995      -3.94459687E-10
   3.62520003       2.31979422E-10
   3.63720012       1.14041698E-09
   3.64919996       2.33815456E-09
   3.66120005       3.80921650E-09
   3.67319989       5.51119861E-09
   3.68519998       7.37388417E-09
   3.69720006       9.30006827E-09
   3.70919991       1.11690017E-08
   3.72119999       1.28427375E-08
   3.73320007       1.41755940E-08
   3.74519992       1.50267923E-08
   3.75720000       1.52761999E-08
   3.76920009       1.48429757E-08
   3.78119993       1.37067255E-08
   3.79320002       1.19306849E-08
   3.80520010       9.68620917E-09
   3.81719995       7.27773042E-09
   3.82920003       5.16723597E-09
   3.84120011       3.99711153E-09
   3.85319996       4.61005989E-09
   3.86520004       8.06488032E-09
   3.87719989       1.56465205E-08
   3.88919997       2.88690423E-08
   3.90120006       4.94702057E-08
   3.91319990       7.93961590E-08
   3.92519999       1.20775240E-07
   3.93720007       1.75880231E-07
   3.94919991       2.47078219E-07
   3.96120000       3.36768494E-07
   3.97320008       4.47308992E-07
   3.98519993       5.80932408E-07
   3.99720001       7.39654013E-07
   4.00920010       9.25174163E-07
   4.02120018       1.13877718E-06
   4.03319979       1.38123289E-06
   4.04519987       1.65270296E-06
   4.05719995       1.95265716E-06
   4.06920004       2.27980422E-06
   4.08120012       2.63204151E-06
   4.09320021       3.00642796E-06
   4.10519981       3.39918233E-06
   4.11719990       3.80571009E-06
   4.12919998       4.22066023E-06
   4.14120007       4.63801280E-06
   4.15320015       5.05119351E-06
   4.16520023       5.45321564E-06
   4.17719984       5.83684687E-06
   4.18919992       6.19478897E-06
   4.20120001       6.51987375E-06
   4.21320009       6.80526546E-06
   4.22520018       7.04465765E-06
   4.23719978       7.23246649E-06
   4.24919987       7.36400352E-06
   4.26119995       7.43563487E-06
   4.27320004       7.44490399E-06
   4.28520012       7.39062989E-06
   4.29720020       7.27296356E-06
   4.30919981       7.09341339E-06
   4.32119989       6.85482564E-06
   4.33319998       6.56133034E-06
   4.34520006       6.21824802E-06
   4.35720015       5.83196561E-06
   4.36920023       5.40977908E-06
   4.38119984       4.95971153E-06
   4.39319992       4.49031540E-06
   4.40520000       4.01045418E-06
   4.41720009       3.52908387E-06
   4.42920017       3.05502658E-06
   4.44119978       2.59675517E-06
   4.45319986       2.16218359E-06
   4.46519995       1.75847788E-06
   4.47720003       1.39188865E-06
   4.48920012       1.06760706E-06
   4.50120020       7.89655871E-07
   4.51319981       5.60810065E-07
   4.52519989       3.82554902E-07
   4.53719997       2.55079300E-07
   4.54920006       1.77306134E-07
   4.56120014       1.46957234E-07
   4.57320023       1.60651410E-07
   4.58519983       2.14031644E-07
   4.59719992       3.01917595E-07
   4.60920000       4.18478379E-07
   4.62120008       5.57419526E-07
   4.63320017       7.12177325E-07
   4.64519978       8.76115280E-07
   4.65719986       1.04271453E-06
   4.66919994       1.20575362E-06
   4.68120003       1.35947062E-06
   4.69320011       1.49870255E-06
   4.70520020       1.61900016E-06
   4.71719980       1.71671297E-06
   4.72919989       1.78904497E-06
   4.74119997       1.83407940E-06
   4.75320005       1.85077477E-06
   4.76520014       1.83893542E-06
   4.77720022       1.79915662E-06
   4.78919983       1.73275191E-06
   4.80119991       1.64166454E-06
   4.81320000       1.52836890E-06
   4.82520008       1.39576480E-06
   4.83720016       1.24707196E-06
   4.84919977       1.08572328E-06
   4.86119986       9.15264366E-07
   4.87319994       7.39258212E-07
   4.88520002       5.61198419E-07
   4.89720011       3.84430336E-07
   4.90920019       2.12080650E-07
   4.92119980       4.69953605E-08
   4.93319988      -1.08314126E-07
   4.94519997      -2.51717069E-07
   4.95720005      -3.81501764E-07
   4.96920013      -4.96406130E-07
   4.98120022      -5.95639449E-07
   4.99319983      -6.78895219E-07
   5.00519991      -7.46353237E-07
   5.01719999      -7.98670158E-07
   5.02920008      -8.36957497E-07
   5.04120016      -8.62745480E-07
   5.05319977      -8.77933701E-07
   5.06519985      -8.84727399E-07
   5.07719994      -8.85560610E-07
   5.08920002      -8.83008624E-07
   5.10120010      -8.79691470E-07
   5.11320019      -8.78172443E-07
   5.12519979      -8.80855055E-07
   5.13719988      -8.89883381E-07
   5.14919996      -9.07050890E-07
   5.16120005      -9.33720173E-07
   5.17320013      -9.70760198E-07
   5.18520021      -1.01850208E-06
   5.19719982      -1.07671758E-06
   5.20919991      -1.14462080E-06
   5.22119999      -1.22089307E-06
   5.23320007      -1.30373132E-06
   5.24520016      -1.39091594E-06
   5.25719976      -1.47989647E-06
   5.26919985      -1.56789145E-06
   5.28119993      -1.65199526E-06
   5.29320002      -1.72929163E-06
   5.30520010      -1.79696247E-06
   5.31720018      -1.85239332E-06
   5.32919979      -1.89326522E-06
   5.34119987      -1.91763343E-06
   5.35319996      -1.92398738E-06
   5.36520004      -1.91128743E-06
   5.37720013      -1.87898354E-06
   5.38920021      -1.82700785E-06
   5.40119982      -1.75574758E-06
   5.41319990      -1.66599705E-06
   5.42519999      -1.55889245E-06
   5.43720007      -1.43583384E-06
   5.44920015      -1.29839657E-06
   5.46120024      -1.14823843E-06
   5.47319984      -9.87007752E-07
   5.48519993      -8.16256772E-07
   5.49720001      -6.37366099E-07
   5.50920010      -4.51484510E-07
   5.52120018      -2.59488445E-07
   5.53319979      -6.19633624E-08
   5.54519987       1.40790831E-07
   5.55719995       3.48730254E-07
   5.56920004       5.62014691E-07
   5.58120012       7.80936148E-07
   5.59320021       1.00583054E-06
   5.60519981       1.23698067E-06
   5.61719990       1.47451374E-06
   5.62919998       1.71830277E-06
   5.64120007       1.96787732E-06
   5.65320015       2.22235008E-06
   5.66520023       2.48036463E-06
   5.67719984       2.74007061E-06
   5.68919992       2.99912836E-06
   5.70120001       3.25474275E-06
   5.71320009       3.50372920E-06
   5.72520018       3.74260571E-06
   5.73719978       3.96771384E-06
   5.74919987       4.17535193E-06
   5.76119995       4.36192977E-06
   5.77320004       4.52411950E-06
   5.78520012       4.65900803E-06
   5.79720020       4.76424384E-06
   5.80919981       4.83815847E-06
   5.82119989       4.87987063E-06
   5.83319998       4.88935893E-06
   5.84520006       4.86750105E-06
   5.85720015       4.81607958E-06
   5.86920023       4.73775071E-06
   5.88119984       4.63597416E-06
   5.89319992       4.51491042E-06
   5.90520000       4.37928293E-06
   5.91720009       4.23421625E-06
   5.92920017       4.08504593E-06
   5.94119978       3.93711480E-06
   5.95319986       3.79555718E-06
   5.96519995       3.66508289E-06
   5.97720003       3.54976146E-06
   5.98920012       3.45282729E-06
   6.00120020       3.37650090E-06
   6.01319981       3.32184572E-06
   6.02519989       3.28866054E-06
   6.03719997       3.27541807E-06
   6.04920006       3.27925204E-06
   6.06120014       3.29599925E-06
   6.07320023       3.32029663E-06
   6.08519983       3.34573360E-06
   6.09719992       3.36505377E-06
   6.10920000       3.37040865E-06
   6.12120008       3.35364348E-06
   6.13320017       3.30661896E-06
   6.14519978       3.22154642E-06
   6.15719986       3.09132838E-06
   6.16919994       2.90988919E-06
   6.18120003       2.67247924E-06
   6.19320011       2.37594372E-06
   6.20520020       2.01893477E-06
   6.21719980       1.60206321E-06
   6.22919989       1.12797659E-06
   6.24119997       6.01359091E-07
   6.25320005       2.88508417E-08
   6.26520014      -5.81113113E-07
   6.27720022      -1.21854032E-06
   6.28919983      -1.87218609E-06
   6.30119991      -2.52991731E-06
   6.31320000      -3.17911918E-06
   6.32520008      -3.80713277E-06
   6.33720016      -4.40170243E-06
   6.34919977      -4.95141876E-06
   6.36119986      -5.44613886E-06
   6.37319994      -5.87736577E-06
   6.38520002      -6.23857159E-06
   6.39720011      -6.52545805E-06
   6.40920019      -6.73612840E-06
   6.42119980      -6.87118472E-06
   6.43319988      -6.93372294E-06
   6.44519997      -6.92924596E-06
   6.45720005      -6.86548492E-06
   6.46920013      -6.75213323E-06
   6.48120022      -6.60051455E-06
   6.49319983      -6.42318582E-06
   6.50519991      -6.23349342E-06
   6.51719999      -6.04509842E-06
   6.52920008      -5.87148452E-06
   6.54120016      -5.72547151E-06
   6.55319977      -5.61874685E-06
   6.56519985      -5.56143277E-06
   6.57719994      -5.56170698E-06
   6.58920002      -5.62548530E-06
   6.60120010      -5.75618606E-06
   6.61320019      -5.95457595E-06
   6.62519979      -6.21870595E-06
   6.63719988      -6.54395217E-06
   6.64919996      -6.92313779E-06
   6.66120005      -7.34675587E-06
   6.67320013      -7.80326718E-06
   6.68520021      -8.27948315E-06
   6.69719982      -8.76099512E-06
   6.70919991      -9.23266089E-06
   6.72119999      -9.67911728E-06
   6.73320007      -1.00853003E-05
   6.74520016      -1.04369656E-05
   6.75719976      -1.07211745E-05
   6.76919985      -1.09267457E-05
   6.78119993      -1.10446381E-05
   6.79320002      -1.10682677E-05
   6.80520010      -1.09937373E-05
   6.81720018      -1.08199638E-05
   6.82919979      -1.05487297E-05
   6.84119987      -1.01846026E-05
   6.85319996      -9.73478654E-06
   6.86520004      -9.20886123E-06
   6.87720013      -8.61845274E-06
   6.88920021      -7.97682787E-06
   6.90119982      -7.29843850E-06
   6.91319990      -6.59843181E-06
   6.92519999      -5.89213823E-06
   6.93720007      -5.19457217E-06
   6.94920015      -4.51994310E-06
   6.96120024      -3.88121816E-06
   6.97319984      -3.28973647E-06
   6.98519993      -2.75489128E-06
   6.99720001      -2.28390104E-06
   7.00920010      -1.88166075E-06
   7.02120018      -1.55068835E-06
   7.03319979      -1.29115961E-06
   7.04519987      -1.10102940E-06
   7.05719995      -9.76228193E-07
   7.06920004      -9.10926531E-07
   7.08120012      -8.97848793E-07
   7.09320021      -9.28624559E-07
   7.10519981      -9.94158654E-07
   7.11719990      -1.08500353E-06
   7.12919998      -1.19171818E-06
   7.14120007      -1.30519686E-06
   7.15320015      -1.41695682E-06
   7.16520023      -1.51937456E-06
   7.17719984      -1.60586262E-06
   7.18919992      -1.67098369E-06
   7.20120001      -1.71050283E-06
   7.21320009      -1.72137902E-06
   7.22520018      -1.70170449E-06
   7.23719978      -1.65059600E-06
   7.24919987      -1.56805129E-06
   7.26119995      -1.45477986E-06
   7.27320004      -1.31202228E-06
   7.28520012      -1.14136822E-06
   7.29720020      -9.44584372E-07
   7.30919981      -7.23462506E-07
   7.32119989      -4.79695245E-07
   7.33319998      -2.14788884E-07
   7.34520006       6.99879621E-08
   7.35720015       3.73613034E-07
   7.36920023       6.95277834E-07
   7.38119984       1.03431887E-06
   7.39319992       1.39011433E-06
   7.40520000       1.76195431E-06
   7.41720009       2.14889292E-06
   7.42920017       2.54958854E-06
   7.44119978       2.96214580E-06
   7.45319986       3.38396671E-06
   7.46519995       3.81162477E-06
   7.47720003       4.24076916E-06
   7.48920012       4.66607435E-06
   7.50120020       5.08123594E-06
   7.51319981       5.47902710E-06
   7.52519989       5.85141788E-06
   7.53719997       6.18975673E-06
   7.54920006       6.48501646E-06
   7.56120014       6.72809301E-06
   7.57320023       6.91015566E-06
   7.58519983       7.02303259E-06
   7.59719992       7.05961975E-06
   7.60920000       7.01428507E-06
   7.62120008       6.88326372E-06
   7.63320017       6.66500591E-06
   7.64519978       6.36047389E-06
   7.65719986       5.97334974E-06
   7.66919994       5.51015455E-06
   7.68120003       4.98024974E-06
   7.69320011       4.39572477E-06
   7.70520020       3.77114975E-06
   7.71719980       3.12321299E-06
   7.72919989       2.47023581E-06
   7.74119997       1.83158841E-06
   7.75320005       1.22702045E-06
   7.76520014       6.75935155E-07
   7.77720022       1.96633621E-07
   7.78919983      -1.94436439E-07
   7.80119991      -4.83394501E-07
   7.81320000      -6.59568968E-07
   7.82520008      -7.16035913E-07
   7.83720016      -6.50024504E-07
   7.84919977      -4.63166856E-07
   7.86119986      -1.61576750E-07
   7.87319994       2.44257222E-07
   7.88520002       7.39761447E-07
   7.89720011       1.30674653E-06
   7.90920019       1.92404241E-06
   7.92119980       2.56827525E-06
   7.93319988       3.21475750E-06
   7.94519997       3.83845691E-06
   7.95720005       4.41500379E-06
   7.96920013       4.92169693E-06
   7.98120022       5.33845696E-06
   7.99319983       5.64869333E-06
   8.00520039       5.84003647E-06
   8.01720047       5.90490663E-06
   8.02919960       5.84088139E-06
   8.04119968       5.65084838E-06
   8.05319977       5.34293213E-06
   8.06519985       4.93018752E-06
   8.07719994       4.43007730E-06
   8.08920002       3.86375041E-06
   8.10120010       3.25515339E-06
   8.11320019       2.63001266E-06
   8.12520027       2.01473358E-06
   8.13720036       1.43526677E-06
   8.14920044       9.15993894E-07
   8.16119957       4.78684456E-07
   8.17319965       1.41570453E-07
   8.18519974      -8.14178804E-08
   8.19719982      -1.81221623E-07
   8.20919991      -1.54004624E-07
   8.22119999      -1.27163469E-09
   8.23320007       2.70246574E-07
   8.24520016       6.48932144E-07
   8.25720024       1.11882207E-06
   8.26920033       1.66032180E-06
   8.28120041       2.25105214E-06
   8.29319954       2.86678824E-06
   8.30519962       3.48244089E-06
   8.31719971       4.07303469E-06
   8.32919979       4.61464015E-06
   8.34119987       5.08522135E-06
   8.35319996       5.46536330E-06
   8.36520004       5.73885745E-06
   8.37720013       5.89313322E-06
   8.38920021       5.91952312E-06
   8.40120029       5.81336690E-06
   8.41320038       5.57396288E-06
   8.42520046       5.20439107E-06
   8.43719959       4.71121257E-06
   8.44919968       4.10408666E-06
   8.46119976       3.39532266E-06
   8.47319984       2.59939156E-06
   8.48519993       1.73242586E-06
   8.49720001       8.11722430E-07
   8.50920010      -1.44729142E-07
   8.52120018      -1.11868587E-06
   8.53320026      -2.09204813E-06
   8.54520035      -3.04721220E-06
   8.55720043      -3.96737687E-06
   8.56919956      -4.83681015E-06
   8.58119965      -5.64107995E-06
   8.59319973      -6.36725190E-06
   8.60519981      -7.00406508E-06
   8.61719990      -7.54208531E-06
   8.62919998      -7.97383836E-06
   8.64120007      -8.29392775E-06
   8.65320015      -8.49913522E-06
   8.66520023      -8.58848853E-06
   8.67720032      -8.56332099E-06
   8.68920040      -8.42727513E-06
   8.70119953      -8.18628723E-06
   8.71319962      -7.84851181E-06
   8.72519970      -7.42420480E-06
   8.73719978      -6.92554931E-06
   8.74919987      -6.36643335E-06
   8.76119995      -5.76217008E-06
   8.77320004      -5.12917586E-06
   8.78520012      -4.48460651E-06
   8.79720020      -3.84596706E-06
   8.80920029      -3.23069844E-06
   8.82120037      -2.65576318E-06
   8.83320045      -2.13723479E-06
   8.84519958      -1.68991210E-06
   8.85719967      -1.32696391E-06
   8.86919975      -1.05962329E-06
   8.88119984      -8.96935774E-07
   8.89319992      -8.45573254E-07
   8.90520000      -9.09716221E-07
   8.91720009      -1.09100813E-06
   8.92920017      -1.38858059E-06
   8.94120026      -1.79914673E-06
   8.95320034      -2.31715649E-06
   8.96520042      -2.93500511E-06
   8.97719955      -3.64328548E-06
   8.98919964      -4.43107501E-06
   9.00119972      -5.28624287E-06
   9.01319981      -6.19576758E-06
   9.02519989      -7.14605312E-06
   9.03719997      -8.12323651E-06
   9.04920006      -9.11347524E-06
   9.06120014      -1.01032056E-05
   9.07320023      -1.10793762E-05
   9.08520031      -1.20296381E-05
   9.09720039      -1.29425007E-05
   9.10919952      -1.38074474E-05
   9.12119961      -1.46150123E-05
   9.13319969      -1.53568290E-05
   9.14519978      -1.60256404E-05
   9.15719986      -1.66152786E-05
   9.16919994      -1.71206375E-05
   9.18120003      -1.75376226E-05
   9.19320011      -1.78630999E-05
   9.20520020      -1.80948464E-05
   9.21720028      -1.82314852E-05
   9.22920036      -1.82724780E-05
   9.24120045      -1.82180756E-05
   9.25319958      -1.80693369E-05
   9.26519966      -1.78281280E-05
   9.27719975      -1.74971537E-05
   9.28919983      -1.70799995E-05
   9.30119991      -1.65811707E-05
   9.31320000      -1.60061300E-05
   9.32520008      -1.53613400E-05
   9.33720016      -1.46542716E-05
   9.34920025      -1.38933910E-05
   9.36120033      -1.30881117E-05
   9.37320042      -1.22487118E-05
   9.38519955      -1.13862097E-05
   9.39719963      -1.05121881E-05
   9.40919971      -9.63858292E-06
   9.42119980      -8.77743423E-06
   9.43319988      -7.94060543E-06
   9.44519997      -7.13948248E-06
