 -0.622799993       0.00000000    
 -0.610800028       0.00000000    
 -0.598800004       0.00000000    
 -0.586799979       0.00000000    
 -0.574800014       0.00000000    
 -0.562799990       2.87234685E-28
 -0.550800025       4.24370805E-27
 -0.538800001       3.77083309E-26
 -0.526799977       2.29265314E-25
 -0.514800012       1.02204947E-24
 -0.502799988       3.53900436E-24
 -0.490799993       9.95506175E-24
 -0.478799999       2.35709793E-23
 -0.466800004       4.84535975E-23
 -0.454800010       8.91438256E-23
 -0.442799985       1.51362819E-22
 -0.430799991       2.43296770E-22
 -0.418799996       3.72912094E-22
 -0.406800002       5.32326166E-22
 -0.394800007       6.63273189E-22
 -0.382800013       6.17498203E-22
 -0.370799989       1.62142231E-22
 -0.358799994      -8.90883314E-22
 -0.346799999      -2.37953124E-21
 -0.334800005      -3.38787128E-21
 -0.322800010      -2.04180548E-21
 -0.310799986       4.01355021E-21
 -0.298799992       1.60594369E-20
 -0.286799997       3.18555009E-20
 -0.274800003       4.35260693E-20
 -0.262800008       3.80249015E-20
 -0.250800014       2.46262331E-21
 -0.238800004      -6.53239393E-20
 -0.226799995      -1.44590253E-19
 -0.214800000      -1.86151917E-19
 -0.202800006      -1.23771552E-19
 -0.190799996       9.16678841E-20
 -0.178800002       4.41870164E-19
 -0.166800007       7.98794411E-19
 -0.154799998       9.27258817E-19
 -0.142800003       5.64949107E-19
 -0.130799994      -4.18834735E-19
 -0.118799999      -1.83851231E-18
 -0.106799997      -3.08921022E-18
  -9.48000029E-02  -3.25073502E-18
  -8.28000009E-02  -1.46841350E-18
  -7.07999989E-02   2.45713794E-18
  -5.88000007E-02   7.51889475E-18
  -4.67999987E-02   1.13673732E-17
  -3.48000005E-02   1.09301057E-17
  -2.28000004E-02   3.85325834E-18
  -1.08000003E-02  -9.64242041E-18
   1.20000006E-03  -2.53891078E-17
   1.31999999E-02  -3.54909816E-17
   2.52000000E-02  -3.08928963E-17
   3.72000001E-02  -6.05994088E-18
   4.91999984E-02   3.58537598E-17
   6.12000003E-02   8.01153011E-17
   7.32000023E-02   1.02685480E-16
   8.51999968E-02   7.90381399E-17
   9.71999988E-02  -2.13237174E-18
  0.109200001      -1.25576737E-16
  0.121200003      -2.44187528E-16
  0.133200005      -2.88675711E-16
  0.145199999      -1.94309292E-16
  0.157199994       6.14658656E-17
  0.169200003       4.25443368E-16
  0.181199998       7.58808325E-16
  0.193200007       8.67312134E-16
  0.205200002       5.74441651E-16
  0.217199996      -1.79997744E-16
  0.229200006      -1.25384932E-15
  0.241200000      -2.27707571E-15
  0.253199995      -2.72528552E-15
  0.265199989      -2.09914415E-15
  0.277200013      -1.69209707E-16
  0.289200008       2.80058569E-15
  0.301200002       5.96107399E-15
  0.313199997       8.00974853E-15
  0.325199991       7.57279812E-15
  0.337199986       3.76367867E-15
  0.349200010      -3.25682114E-15
  0.361200005      -1.19535204E-14
  0.373199999      -1.95366438E-14
  0.385199994      -2.26265387E-14
  0.397199988      -1.83710858E-14
  0.409200013      -5.71581856E-15
  0.421200007       1.36194182E-14
  0.433200002       3.49142441E-14
  0.445199996       5.12659644E-14
  0.457199991       5.54308017E-14
  0.469199985       4.22831698E-14
  0.481200010       1.11653876E-14
  0.493200004      -3.27287500E-14
  0.505200028      -7.86415678E-14
  0.517199993      -1.12481767E-13
  0.529200017      -1.20654531E-13
  0.541199982      -9.45367645E-14
  0.553200006      -3.42457555E-14
  0.565199971       4.96584585E-14
  0.577199996       1.37452319E-13
  0.589200020       2.04605742E-13
  0.601199985       2.28337070E-13
  0.613200009       1.94652996E-13
  0.625199974       1.03761577E-13
  0.637199998      -2.80310612E-14
  0.649200022      -1.70975837E-13
  0.661199987      -2.88835552E-13
  0.673200011      -3.48521965E-13
  0.685199976      -3.29780501E-13
  0.697200000      -2.31984706E-13
  0.709200025      -7.56901459E-14
  0.721199989       1.02007277E-13
  0.733200014       2.57412201E-13
  0.745199978       3.52807654E-13
  0.757200003       3.67903109E-13
  0.769200027       3.06377618E-13
  0.781199992       1.94962468E-13
  0.793200016       7.47074115E-14
  0.805199981      -1.33501795E-14
  0.817200005      -4.37417640E-14
  0.829200029      -1.80188404E-14
  0.841199994       3.25255942E-14
  0.853200018       5.51303930E-14
  0.865199983      -6.35253026E-15
  0.877200007      -1.88305643E-13
  0.889199972      -4.86348375E-13
  0.901199996      -8.44190549E-13
  0.913200021      -1.15805802E-12
  0.925199986      -1.29830337E-12
  0.937200010      -1.14460589E-12
  0.949199975      -6.26350317E-13
  0.961199999       2.43109325E-13
  0.973200023       1.34945657E-12
  0.985199988       2.48540533E-12
  0.997200012       3.38535189E-12
   1.00919998       3.78122837E-12
   1.02119994       3.46781436E-12
   1.03320003       2.36215279E-12
   1.04519999       5.41890534E-13
   1.05719995      -1.74851041E-12
   1.06920004      -4.12766436E-12
   1.08120000      -6.13896347E-12
   1.09319997      -7.33249572E-12
   1.10520005      -7.35113793E-12
   1.11720002      -6.00428344E-12
   1.12919998      -3.31610911E-12
   1.14119995       4.58423555E-13
   1.15320003       4.84946415E-12
   1.16520000       9.21372006E-12
   1.17719996       1.27921458E-11
   1.18920004       1.47752331E-11
   1.20120001       1.43709229E-11
   1.21319997       1.08748227E-11
   1.22520006       3.74519339E-12
   1.23720002      -7.31659264E-12
   1.24919999      -2.22874965E-11
   1.26119995      -4.07673791E-11
   1.27320004      -6.19846327E-11
   1.28520000      -8.49153942E-11
   1.29719996      -1.08574393E-10
   1.30920005      -1.32527128E-10
   1.32120001      -1.57646854E-10
   1.33319998      -1.87098448E-10
   1.34519994      -2.27479688E-10
   1.35720003      -2.90003577E-10
   1.36919999      -3.91573690E-10
   1.38119996      -5.55605451E-10
   1.39320004      -8.12489631E-10
   1.40520000      -1.19968691E-09
   1.41719997      -1.76157644E-09
   1.42920005      -2.54935673E-09
   1.44120002      -3.62148911E-09
   1.45319998      -5.04538011E-09
   1.46519995      -6.90118629E-09
   1.47720003      -9.28880617E-09
   1.48920000      -1.23392567E-08
   1.50119996      -1.62317573E-08
   1.51320004      -2.12178755E-08
   1.52520001      -2.76540888E-08
   1.53719997      -3.60440282E-08
   1.54920006      -4.70914046E-08
   1.56120002      -6.17643536E-08
   1.57319999      -8.13711765E-08
   1.58519995      -1.07647132E-07
   1.59720004      -1.42850553E-07
   1.60920000      -1.89865986E-07
   1.62119997      -2.52310770E-07
   1.63320005      -3.34640163E-07
   1.64520001      -4.42245579E-07
   1.65719998      -5.81538757E-07
   1.66919994      -7.60015610E-07
   1.68120003      -9.86290388E-07
   1.69319999      -1.27009412E-06
   1.70519996      -1.62222955E-06
   1.71720004      -2.05447395E-06
   1.72920001      -2.57942884E-06
   1.74119997      -3.21030734E-06
   1.75320005      -3.96066253E-06
   1.76520002      -4.84405291E-06
   1.77719998      -5.87365275E-06
   1.78919995      -7.06181072E-06
   1.80120003      -8.41956535E-06
   1.81320000      -9.95613846E-06
   1.82519996      -1.16784095E-05
   1.83720005      -1.35903974E-05
   1.84920001      -1.56927781E-05
   1.86119998      -1.79824383E-05
   1.87320006      -2.04521257E-05
   1.88520002      -2.30901715E-05
   1.89719999      -2.58803520E-05
   1.90919995      -2.88018819E-05
   1.92120004      -3.18295643E-05
   1.93320000      -3.49341171E-05
   1.94519997      -3.80826423E-05
   1.95720005      -4.12393019E-05
   1.96920002      -4.43661011E-05
   1.98119998      -4.74238659E-05
   1.99319994      -5.03732517E-05
   2.00519991      -5.31758960E-05
   2.01719999      -5.57955209E-05
   2.02920008      -5.81990753E-05
   2.04119992      -6.03577537E-05
   2.05320001      -6.22479201E-05
   2.06520009      -6.38518177E-05
   2.07719994      -6.51581358E-05
   2.08920002      -6.61622616E-05
   2.10120010      -6.68663270E-05
   2.11319995      -6.72789611E-05
   2.12520003      -6.74147668E-05
   2.13720012      -6.72936585E-05
   2.14919996      -6.69398942E-05
   2.16120005      -6.63810570E-05
   2.17319989      -6.56469492E-05
   2.18519998      -6.47683919E-05
   2.19720006      -6.37761696E-05
   2.20919991      -6.27000263E-05
   2.22119999      -6.15678291E-05
   2.23320007      -6.04049274E-05
   2.24519992      -5.92337201E-05
   2.25720000      -5.80734668E-05
   2.26920009      -5.69402946E-05
   2.28119993      -5.58474239E-05
   2.29320002      -5.48055104E-05
   2.30520010      -5.38231543E-05
   2.31719995      -5.29073986E-05
   2.32920003      -5.20642825E-05
   2.34120011      -5.12993283E-05
   2.35319996      -5.06179204E-05
   2.36520004      -5.00255774E-05
   2.37719989      -4.95280583E-05
   2.38919997      -4.91313149E-05
   2.40120006      -4.88413243E-05
   2.41319990      -4.86637364E-05
   2.42519999      -4.86034696E-05
   2.43720007      -4.86642566E-05
   2.44919991      -4.88481382E-05
   2.46120000      -4.91550454E-05
   2.47320008      -4.95824097E-05
   2.48519993      -5.01249524E-05
   2.49720001      -5.07745608E-05
   2.50920010      -5.15203828E-05
   2.52119994      -5.23490417E-05
   2.53320003      -5.32450613E-05
   2.54520011      -5.41913905E-05
   2.55719995      -5.51700468E-05
   2.56920004      -5.61628440E-05
   2.58119988      -5.71521123E-05
   2.59319997      -5.81214190E-05
   2.60520005      -5.90561613E-05
   2.61719990      -5.99440900E-05
   2.62919998      -6.07756228E-05
   2.64120007      -6.15440076E-05
   2.65319991      -6.22452280E-05
   2.66520000      -6.28777561E-05
   2.67720008      -6.34420649E-05
   2.68919992      -6.39399877E-05
   2.70120001      -6.43739768E-05
   2.71320009      -6.47462803E-05
   2.72519994      -6.50580696E-05
   2.73720002      -6.53087263E-05
   2.74920011      -6.54951873E-05
   2.76119995      -6.56115371E-05
   2.77320004      -6.56488628E-05
   2.78520012      -6.55954209E-05
   2.79719996      -6.54371252E-05
   2.80920005      -6.51584414E-05
   2.82119989      -6.47436027E-05
   2.83319998      -6.41780425E-05
   2.84520006      -6.34501775E-05
   2.85719991      -6.25532775E-05
   2.86919999      -6.14873061E-05
   2.88120008      -6.02607724E-05
   2.89319992      -5.88922885E-05
   2.90520000      -5.74117912E-05
   2.91720009      -5.58612992E-05
   2.92919993      -5.42950766E-05
   2.94120002      -5.27791599E-05
   2.95320010      -5.13901214E-05
   2.96519995      -5.02131952E-05
   2.97720003      -4.93396401E-05
   2.98920012      -4.88635196E-05
   3.00119996      -4.88779624E-05
   3.01320004      -4.94710403E-05
   3.02519989      -5.07214972E-05
   3.03719997      -5.26944532E-05
   3.04920006      -5.54373473E-05
   3.06119990      -5.89763076E-05
   3.07319999      -6.33131494E-05
   3.08520007      -6.84232073E-05
   3.09719992      -7.42541233E-05
   3.10920000      -8.07256656E-05
   3.12120008      -8.77306884E-05
   3.13319993      -9.51372131E-05
   3.14520001      -1.02791593E-04
   3.15720010      -1.10522611E-04
   3.16919994      -1.18146403E-04
   3.18120003      -1.25472056E-04
   3.19320011      -1.32307483E-04
   3.20519996      -1.38465621E-04
   3.21720004      -1.43770405E-04
   3.22919989      -1.48062434E-04
   3.24119997      -1.51204076E-04
   3.25320005      -1.53083849E-04
   3.26519990      -1.53619781E-04
   3.27719998      -1.52761786E-04
   3.28920007      -1.50492837E-04
   3.30119991      -1.46829145E-04
   3.31320000      -1.41819110E-04
   3.32520008      -1.35541253E-04
   3.33719993      -1.28101368E-04
   3.34920001      -1.19628778E-04
   3.36120009      -1.10272071E-04
   3.37319994      -1.00194455E-04
   3.38520002      -8.95688572E-05
   3.39720011      -7.85730299E-05
   3.40919995      -6.73847680E-05
   3.42120004      -5.61773777E-05
   3.43319988      -4.51156156E-05
   3.44519997      -3.43520405E-05
   3.45720005      -2.40239733E-05
   3.46919990      -1.42510544E-05
   3.48119998      -5.13342366E-06
   3.49320006       3.24945245E-06
   3.50519991       1.08393360E-05
   3.51719999       1.75991790E-05
   3.52920008       2.35125062E-05
   3.54119992       2.85822880E-05
   3.55320001       3.28293390E-05
   3.56520009       3.62902829E-05
   3.57719994       3.90151909E-05
   3.58920002       4.10649263E-05
   3.60120010       4.25083163E-05
   3.61319995       4.34191970E-05
   3.62520003       4.38734824E-05
   3.63720012       4.39463038E-05
   3.64919996       4.37093913E-05
   3.66120005       4.32287598E-05
   3.67319989       4.25627622E-05
   3.68519998       4.17607080E-05
   3.69720006       4.08619126E-05
   3.70919991       3.98954144E-05
   3.72119999       3.88802109E-05
   3.73320007       3.78260374E-05
   3.74519992       3.67346329E-05
   3.75720000       3.56013916E-05
   3.76920009       3.44172622E-05
   3.78119993       3.31707924E-05
   3.79320002       3.18501698E-05
   3.80520010       3.04451187E-05
   3.81719995       2.89485088E-05
   3.82920003       2.73576170E-05
   3.84120011       2.56749172E-05
   3.85319996       2.39083984E-05
   3.86520004       2.20713900E-05
   3.87719989       2.01819403E-05
   3.88919997       1.82618169E-05
   3.90120006       1.63352306E-05
   3.91319990       1.44274209E-05
   3.92519999       1.25631968E-05
   3.93720007       1.07655960E-05
   3.94919991       9.05476918E-06
   3.96120000       7.44715680E-06
   3.97320008       5.95504298E-06
   3.98519993       4.58648674E-06
   3.99720001       3.34562765E-06
   4.00920010       2.23328993E-06
   4.02120018       1.24781582E-06
   4.03319979       3.86009418E-07
   4.04519987      -3.55926034E-07
   4.05719995      -9.81578182E-07
   4.06920004      -1.49375035E-06
   4.08120012      -1.89420018E-06
   4.09320021      -2.18374498E-06
   4.10519981      -2.36273809E-06
   4.11719990      -2.43189220E-06
   4.12919998      -2.39336759E-06
   4.14120007      -2.25202689E-06
   4.15320015      -2.01672333E-06
   4.16520023      -1.70147246E-06
   4.17719984      -1.32637081E-06
   4.18919992      -9.18118076E-07
   4.20120001      -5.10048551E-07
   4.21320009      -1.41596985E-07
   4.22520018       1.42819843E-07
   4.23719978       2.95478259E-07
   4.24919987       2.67503879E-07
   4.26119995       1.13863621E-08
   4.27320004      -5.16303317E-07
   4.28520012      -1.35217454E-06
   4.29720020      -2.52344853E-06
   4.30919981      -4.04574575E-06
   4.32119989      -5.92139168E-06
   4.33319998      -8.13838233E-06
   4.34520006      -1.06700863E-05
   4.35720015      -1.34757456E-05
   4.36920023      -1.65017373E-05
   4.38119984      -1.96835645E-05
   4.39319992      -2.29484467E-05
   4.40520000      -2.62183785E-05
   4.41720009      -2.94134825E-05
   4.42920017      -3.24554749E-05
   4.44119978      -3.52710485E-05
   4.45319986      -3.77950055E-05
   4.46519995      -3.99729543E-05
   4.47720003      -4.17635056E-05
   4.48920012      -4.31397821E-05
   4.50120020      -4.40902659E-05
   4.51319981      -4.46189333E-05
   4.52519989      -4.47446691E-05
   4.53719997      -4.45000878E-05
   4.54920006      -4.39297510E-05
   4.56120014      -4.30879554E-05
   4.57320023      -4.20361575E-05
   4.58519983      -4.08402084E-05
   4.59719992      -3.95674433E-05
   4.60920000      -3.82838589E-05
   4.62120008      -3.70514063E-05
   4.63320017      -3.59255137E-05
   4.64519978      -3.49530055E-05
   4.65719986      -3.41703671E-05
   4.66919994      -3.36025478E-05
   4.68120003      -3.32622367E-05
   4.69320011      -3.31496885E-05
   4.70520020      -3.32530908E-05
   4.71719980      -3.35494442E-05
   4.72919989      -3.40059341E-05
   4.74119997      -3.45817025E-05
   4.75320005      -3.52300412E-05
   4.76520014      -3.59007645E-05
   4.77720022      -3.65428423E-05
   4.78919983      -3.71069982E-05
   4.80119991      -3.75483251E-05
   4.81320000      -3.78286204E-05
   4.82520008      -3.79185039E-05
   4.83720016      -3.77990691E-05
   4.84919977      -3.74630181E-05
   4.86119986      -3.69152513E-05
   4.87319994      -3.61727871E-05
   4.88520002      -3.52640527E-05
   4.89720011      -3.42275380E-05
   4.90920019      -3.31098745E-05
   4.92119980      -3.19634382E-05
   4.93319988      -3.08435301E-05
   4.94519997      -2.98053837E-05
   4.95720005      -2.89010914E-05
   4.96920013      -2.81766133E-05
   4.98120022      -2.76691226E-05
   4.99319983      -2.74047652E-05
   5.00519991      -2.73970509E-05
   5.01719999      -2.76459323E-05
   5.02920008      -2.81376888E-05
   5.04120016      -2.88456104E-05
   5.05319977      -2.97314655E-05
   5.06519985      -3.07476839E-05
   5.07719994      -3.18400998E-05
   5.08920002      -3.29511313E-05
   5.10120010      -3.40231709E-05
   5.11320019      -3.50019473E-05
   5.12519979      -3.58397047E-05
   5.13719988      -3.64979423E-05
   5.14919996      -3.69495174E-05
   5.16120005      -3.71800052E-05
   5.17320013      -3.71882306E-05
   5.18520021      -3.69858717E-05
   5.19719982      -3.65962478E-05
   5.20919991      -3.60523372E-05
   5.22119999      -3.53941687E-05
   5.23320007      -3.46658053E-05
   5.24520016      -3.39121289E-05
   5.25719976      -3.31756564E-05
   5.26919985      -3.24936627E-05
   5.28119993      -3.18957427E-05
   5.29320002      -3.14021054E-05
   5.30520010      -3.10225769E-05
   5.31720018      -3.07564987E-05
   5.32919979      -3.05934591E-05
   5.34119987      -3.05147460E-05
   5.35319996      -3.04954592E-05
   5.36520004      -3.05070207E-05
   5.37720013      -3.05199137E-05
   5.38920021      -3.05064023E-05
   5.40119982      -3.04429614E-05
   5.41319990      -3.03122451E-05
   5.42519999      -3.01044402E-05
   5.43720007      -2.98178365E-05
   5.44920015      -2.94586425E-05
   5.46120024      -2.90400167E-05
   5.47319984      -2.85804617E-05
   5.48519993      -2.81016819E-05
   5.49720001      -2.76261508E-05
   5.50920010      -2.71746248E-05
   5.52120018      -2.67637752E-05
   5.53319979      -2.64042592E-05
   5.54519987      -2.60993347E-05
   5.55719995      -2.58442251E-05
   5.56920004      -2.56262683E-05
   5.58120012      -2.54258866E-05
   5.59320021      -2.52182963E-05
   5.60519981      -2.49758250E-05
   5.61719990      -2.46706586E-05
   5.62919998      -2.42777751E-05
   5.64120007      -2.37778277E-05
   5.65320015      -2.31597078E-05
   5.66520023      -2.24225823E-05
   5.67719984      -2.15771925E-05
   5.68919992      -2.06462792E-05
   5.70120001      -1.96640904E-05
   5.71320009      -1.86749585E-05
   5.72520018      -1.77310012E-05
   5.73719978      -1.68891565E-05
   5.74919987      -1.62076722E-05
   5.76119995      -1.57423547E-05
   5.77320004      -1.55428061E-05
   5.78520012      -1.56489223E-05
   5.79720020      -1.60878990E-05
   5.80919981      -1.68719635E-05
   5.82119989      -1.79969829E-05
   5.83319998      -1.94420390E-05
   5.84520006      -2.11700262E-05
   5.85720015      -2.31291997E-05
   5.86920023      -2.52556056E-05
   5.88119984      -2.74761969E-05
   5.89319992      -2.97124789E-05
   5.90520000      -3.18844104E-05
   5.91720009      -3.39143662E-05
   5.92920017      -3.57308818E-05
   5.94119978      -3.72720060E-05
   5.95319986      -3.84880586E-05
   5.96519995      -3.93436858E-05
   5.97720003      -3.98190969E-05
   5.98920012      -3.99104792E-05
   6.00120020      -3.96296309E-05
   6.01319981      -3.90028363E-05
   6.02519989      -3.80691854E-05
   6.03719997      -3.68783731E-05
   6.04920006      -3.54882104E-05
   6.06120014      -3.39619801E-05
   6.07320023      -3.23658132E-05
   6.08519983      -3.07661576E-05
   6.09719992      -2.92275126E-05
   6.10920000      -2.78104581E-05
   6.12120008      -2.65700473E-05
   6.13320017      -2.55545383E-05
   6.14519978      -2.48044835E-05
   6.15719986      -2.43521081E-05
   6.16919994      -2.42209426E-05
   6.18120003      -2.44256498E-05
   6.19320011      -2.49720033E-05
   6.20520020      -2.58569507E-05
   6.21719980      -2.70687724E-05
   6.22919989      -2.85873211E-05
   6.24119997      -3.03843426E-05
   6.25320005      -3.24239154E-05
   6.26520014      -3.46630368E-05
   6.27720022      -3.70524431E-05
   6.28919983      -3.95376082E-05
   6.30119991      -4.20600481E-05
   6.31320000      -4.45588666E-05
   6.32520008      -4.69725419E-05
   6.33720016      -4.92409381E-05
   6.34919977      -5.13074119E-05
   6.36119986      -5.31209807E-05
   6.37319994      -5.46383853E-05
   6.38520002      -5.58259817E-05
   6.39720011      -5.66612725E-05
   6.40920019      -5.71340206E-05
   6.42119980      -5.72468307E-05
   6.43319988      -5.70151351E-05
   6.44519997      -5.64665606E-05
   6.45720005      -5.56397099E-05
   6.46920013      -5.45823750E-05
   6.48120022      -5.33493294E-05
   6.49319983      -5.19997520E-05
   6.50519991      -5.05945245E-05
   6.51719999      -4.91934516E-05
   6.52920008      -4.78526817E-05
   6.54120016      -4.66223464E-05
   6.55319977      -4.55446570E-05
   6.56519985      -4.46525046E-05
   6.57719994      -4.39685682E-05
   6.58920002      -4.35050752E-05
   6.60120010      -4.32640336E-05
   6.61320019      -4.32380111E-05
   6.62519979      -4.34112953E-05
   6.63719988      -4.37613562E-05
   6.64919996      -4.42604724E-05
   6.66120005      -4.48774299E-05
   6.67320013      -4.55791669E-05
   6.68520021      -4.63322540E-05
   6.69719982      -4.71041749E-05
   6.70919991      -4.78643633E-05
   6.72119999      -4.85849268E-05
   6.73320007      -4.92411564E-05
   6.74520016      -4.98117588E-05
   6.75719976      -5.02789480E-05
   6.76919985      -5.06283504E-05
   6.78119993      -5.08489029E-05
   6.79320002      -5.09326746E-05
   6.80520010      -5.08747689E-05
   6.81720018      -5.06732176E-05
   6.82919979      -5.03289848E-05
   6.84119987      -4.98460213E-05
   6.85319996      -4.92313411E-05
   6.86520004      -4.84951561E-05
   6.87720013      -4.76509340E-05
   6.88920021      -4.67154532E-05
   6.90119982      -4.57087081E-05
   6.91319990      -4.46537124E-05
   6.92519999      -4.35761540E-05
   6.93720007      -4.25038852E-05
   6.94920015      -4.14662463E-05
   6.96120024      -4.04932580E-05
   6.97319984      -3.96147043E-05
   6.98519993      -3.88591325E-05
   6.99720001      -3.82528415E-05
   7.00920010      -3.78188706E-05
   7.02120018      -3.75760719E-05
   7.03319979      -3.75382951E-05
   7.04519987      -3.77137476E-05
   7.05719995      -3.81045320E-05
   7.06920004      -3.87063992E-05
   7.08120012      -3.95087554E-05
   7.09320021      -4.04948514E-05
   7.10519981      -4.16422336E-05
   7.11719990      -4.29233332E-05
   7.12919998      -4.43063000E-05
   7.14120007      -4.57558781E-05
   7.15320015      -4.72344218E-05
   7.16520023      -4.87029502E-05
   7.17719984      -5.01222130E-05
   7.18919992      -5.14537023E-05
   7.20120001      -5.26606673E-05
   7.21320009      -5.37090018E-05
   7.22520018      -5.45680414E-05
   7.23719978      -5.52113088E-05
   7.24919987      -5.56170744E-05
   7.26119995      -5.57688727E-05
   7.27320004      -5.56559025E-05
   7.28520012      -5.52732963E-05
   7.29720020      -5.46223346E-05
   7.30919981      -5.37105770E-05
   7.32119989      -5.25518044E-05
   7.33319998      -5.11659528E-05
   7.34520006      -4.95788445E-05
   7.35720015      -4.78218135E-05
   7.36920023      -4.59311341E-05
   7.38119984      -4.39472897E-05
   7.39319992      -4.19140342E-05
   7.40520000      -3.98772645E-05
   7.41720009      -3.78837249E-05
   7.42920017      -3.59795704E-05
   7.44119978      -3.42087915E-05
   7.45319986      -3.26116278E-05
   7.46519995      -3.12230259E-05
   7.47720003      -3.00711763E-05
   7.48920012      -2.91762826E-05
   7.50120020      -2.85496353E-05
   7.51319981      -2.81930370E-05
   7.52519989      -2.80986751E-05
   7.53719997      -2.82494930E-05
   7.54920006      -2.86200175E-05
   7.56120014      -2.91777033E-05
   7.57320023      -2.98846662E-05
   7.58519983      -3.06997863E-05
   7.59719992      -3.15809993E-05
   7.60920000      -3.24877074E-05
   7.62120008      -3.33831049E-05
   7.63320017      -3.42362619E-05
   7.64519978      -3.50238770E-05
   7.65719986      -3.57314821E-05
   7.66919994      -3.63540603E-05
   7.68120003      -3.68959700E-05
   7.69320011      -3.73702096E-05
   7.70520020      -3.77970100E-05
   7.71719980      -3.82018443E-05
   7.72919989      -3.86130268E-05
   7.74119997      -3.90590030E-05
   7.75320005      -3.95656025E-05
   7.76520014      -4.01533689E-05
   7.77720022      -4.08352935E-05
   7.78919983      -4.16150178E-05
   7.80119991      -4.24857535E-05
   7.81320000      -4.34299945E-05
   7.82520008      -4.44200523E-05
   7.83720016      -4.54194123E-05
   7.84919977      -4.63848810E-05
   7.86119986      -4.72692918E-05
   7.87319994      -4.80246963E-05
   7.88520002      -4.86056888E-05
   7.89720011      -4.89727572E-05
   7.90920019      -4.90952771E-05
   7.92119980      -4.89540289E-05
   7.93319988      -4.85429482E-05
   7.94519997      -4.78700640E-05
   7.95720005      -4.69574552E-05
   7.96920013      -4.58402719E-05
   7.98120022      -4.45648620E-05
   7.99319983      -4.31861154E-05
   8.00520039      -4.17642732E-05
   8.01720047      -4.03613194E-05
   8.02919960      -3.90373207E-05
   8.04119968      -3.78469013E-05
   8.05319977      -3.68361179E-05
   8.06519985      -3.60399317E-05
   8.07719994      -3.54804433E-05
   8.08920002      -3.51660092E-05
   8.10120010      -3.50912378E-05
   8.11320019      -3.52378884E-05
   8.12520027      -3.55765224E-05
   8.13720036      -3.60688391E-05
   8.14920044      -3.66704189E-05
   8.16119957      -3.73337643E-05
   8.17319965      -3.80113597E-05
   8.18519974      -3.86585525E-05
   8.19719982      -3.92361035E-05
   8.20919991      -3.97122130E-05
   8.22119999      -4.00639510E-05
   8.23320007      -4.02780133E-05
   8.24520016      -4.03508056E-05
   8.25720024      -4.02878759E-05
   8.26920033      -4.01028119E-05
   8.28120041      -3.98156735E-05
   8.29319954      -3.94511007E-05
   8.30519962      -3.90362620E-05
   8.31719971      -3.85987732E-05
   8.32919979      -3.81646933E-05
   8.34119987      -3.77567922E-05
   8.35319996      -3.73930998E-05
   8.36520004      -3.70858870E-05
   8.37720013      -3.68410329E-05
   8.38920021      -3.66578788E-05
   8.40120029      -3.65295018E-05
   8.41320038      -3.64433763E-05
   8.42520046      -3.63823929E-05
   8.43719959      -3.63261133E-05
   8.44919968      -3.62522369E-05
   8.46119976      -3.61381572E-05
   8.47319984      -3.59624792E-05
   8.48519993      -3.57065219E-05
   8.49720001      -3.53555770E-05
   8.50920010      -3.49000074E-05
   8.52120018      -3.43359898E-05
   8.53320026      -3.36659868E-05
   8.54520035      -3.28988135E-05
   8.55720043      -3.20493891E-05
   8.56919956      -3.11381591E-05
   8.58119965      -3.01901946E-05
   8.59319973      -2.92340792E-05
   8.60519981      -2.83006102E-05
   8.61719990      -2.74214126E-05
   8.62919998      -2.66275292E-05
   8.64120007      -2.59480857E-05
   8.65320015      -2.54090755E-05
   8.66520023      -2.50323465E-05
   8.67720032      -2.48348442E-05
   8.68920040      -2.48281121E-05
   8.70119953      -2.50180801E-05
   8.71319962      -2.54051192E-05
   8.72519970      -2.59843546E-05
   8.73719978      -2.67461783E-05
   8.74919987      -2.76769115E-05
   8.76119995      -2.87595722E-05
   8.77320004      -2.99746807E-05
   8.78520012      -3.13010460E-05
   8.79720020      -3.27164998E-05
   8.80920029      -3.41985069E-05
   8.82120037      -3.57246790E-05
   8.83320045      -3.72731338E-05
   8.84519958      -3.88227163E-05
   8.85719967      -4.03531230E-05
   8.86919975      -4.18448944E-05
   8.88119984      -4.32793458E-05
   8.89319992      -4.46384911E-05
   8.90520000      -4.59049261E-05
   8.91720009      -4.70617560E-05
   8.92920017      -4.80925701E-05
   8.94120026      -4.89814920E-05
   8.95320034      -4.97133151E-05
   8.96520042      -5.02737494E-05
   8.97719955      -5.06497345E-05
   8.98919964      -5.08298326E-05
   9.00119972      -5.08047160E-05
   9.01319981      -5.05676726E-05
   9.02519989      -5.01151553E-05
   9.03719997      -4.94473061E-05
   9.04920006      -4.85684541E-05
   9.06120014      -4.74875560E-05
   9.07320023      -4.62185635E-05
   9.08520031      -4.47806124E-05
   9.09720039      -4.31981316E-05
   9.10919952      -4.15007598E-05
   9.12119961      -3.97230760E-05
   9.13319969      -3.79041157E-05
   9.14519978      -3.60867271E-05
   9.15719986      -3.43166394E-05
   9.16919994      -3.26414265E-05
   9.18120003      -3.11092190E-05
   9.19320011      -2.97672759E-05
   9.20520020      -2.86604627E-05
   9.21720028      -2.78296448E-05
   9.22920036      -2.73100886E-05
   9.24120045      -2.71298941E-05
   9.25319958      -2.73086007E-05
   9.26519966      -2.78559564E-05
   9.27719975      -2.87709936E-05
   9.28919983      -3.00414322E-05
   9.30119991      -3.16434853E-05
   9.31320000      -3.35420955E-05
   9.32520008      -3.56916753E-05
   9.33720016      -3.80372621E-05
   9.34920025      -4.05161518E-05
   9.36120033      -4.30599684E-05
   9.37320042      -4.55970039E-05
   9.38519955      -4.80548551E-05
   9.39719963      -5.03631927E-05
   9.40919971      -5.24565403E-05
   9.42119980      -5.42769267E-05
   9.43319988      -5.57762869E-05
   9.44519997      -5.69185140E-05
