 -0.622799993       0.00000000    
 -0.610800028       0.00000000    
 -0.598800004       0.00000000    
 -0.586799979       0.00000000    
 -0.574800014       0.00000000    
 -0.562799990       0.00000000    
 -0.550800025       0.00000000    
 -0.538800001       0.00000000    
 -0.526799977      -3.63362661E-38
 -0.514800012      -8.66087201E-37
 -0.502799988      -1.25740731E-35
 -0.490799993      -1.14627413E-34
 -0.478799999      -7.27067960E-34
 -0.466800004      -3.48808663E-33
 -0.454800010      -1.34300127E-32
 -0.442799985      -4.32061794E-32
 -0.430799991      -1.19154761E-31
 -0.418799996      -2.85036503E-31
 -0.406800002      -5.88641962E-31
 -0.394800007      -1.01640492E-30
 -0.382800013      -1.32188120E-30
 -0.370799989      -7.19650854E-31
 -0.358799994       2.42849591E-30
 -0.346799999       1.04609684E-29
 -0.334800005       2.49193593E-29
 -0.322800010       4.29142240E-29
 -0.310799986       5.20443387E-29
 -0.298799992       2.79818663E-29
 -0.286799997      -5.71442915E-29
 -0.274800003      -2.07388325E-28
 -0.262800008      -3.59176546E-28
 -0.250800014      -3.48327734E-28
 -0.238800004       5.58399313E-29
 -0.226799995       9.89586139E-28
 -0.214800000       2.21017544E-27
 -0.202800006       2.83792268E-27
 -0.190799996       1.44962628E-27
 -0.178800002      -3.11201525E-27
 -0.166800007      -1.01594584E-26
 -0.154799998      -1.55176274E-26
 -0.142800003      -1.14626166E-26
 -0.130799994       9.76724586E-27
 -0.118799999       4.81900860E-26
 -0.106799997       8.68124909E-26
  -9.48000029E-02   8.82891523E-26
  -8.28000009E-02   7.41619616E-27
  -7.07999989E-02  -1.74967685E-25
  -5.88000007E-02  -4.05284045E-25
  -4.67999987E-02  -5.27232178E-25
  -3.48000005E-02  -3.13184707E-25
  -2.28000004E-02   4.08377957E-25
  -1.08000003E-02   1.54537260E-24
   1.20000006E-03   2.55600183E-24
   1.31999999E-02   2.46426145E-24
   2.52000000E-02   2.55889221E-25
   3.72000001E-02  -4.31945403E-24
   4.91999984E-02  -9.82621315E-24
   6.12000003E-02  -1.27420837E-23
   7.32000023E-02  -8.36500767E-24
   8.51999968E-02   6.54175291E-24
   9.71999988E-02   2.99328664E-23
  0.109200001       5.14451190E-23
  0.121200003       5.31194637E-23
  0.133200005       1.64535859E-23
  0.145199999      -6.42942274E-23
  0.157199994      -1.67302984E-22
  0.169200003      -2.36462457E-22
  0.181199998      -1.93893844E-22
  0.193200007       2.22558077E-23
  0.205200002       4.01899211E-22
  0.217199996       8.13963444E-22
  0.229200006       1.00275838E-21
  0.241200000       6.65449890E-22
  0.253199995      -3.82277703E-22
  0.265199989      -1.99817311E-21
  0.277200013      -3.56773661E-21
  0.289200008      -4.05683825E-21
  0.301200002      -2.36441642E-21
  0.313199997       2.04251734E-21
  0.325199991       8.41388974E-21
  0.337199986       1.43012468E-20
  0.349200010       1.58812264E-20
  0.361200005       9.29332006E-21
  0.373199999      -7.15410417E-21
  0.385199994      -3.06407280E-20
  0.397199988      -5.25942242E-20
  0.409200013      -5.98977961E-20
  0.421200007      -3.93103983E-20
  0.433200002       1.54516983E-20
  0.445199996       9.62587688E-20
  0.457199991       1.76472844E-19
  0.469199985       2.14203447E-19
  0.481200010       1.65220099E-19
  0.493200004       4.10103385E-21
  0.505200028      -2.52694371E-19
  0.517199993      -5.32316160E-19
  0.529200017      -7.11111043E-19
  0.541199982      -6.47758882E-19
  0.553200006      -2.41775794E-19
  0.565199971       4.97950580E-19
  0.577199996       1.40197746E-18
  0.589200020       2.13866224E-18
  0.601199985       2.28633486E-18
  0.613200009       1.48095894E-18
  0.625199974      -3.92492238E-19
  0.637199998      -3.03062454E-18
  0.649200022      -5.64925936E-18
  0.661199987      -7.10338456E-18
  0.673200011      -6.21768754E-18
  0.685199976      -2.27684214E-18
  0.697200000       4.46551923E-18
  0.709200025       1.24673291E-17
  0.721199989       1.89824170E-17
  0.733200014       2.06812871E-17
  0.745199978       1.47711561E-17
  0.757200003       3.56849516E-19
  0.769200027      -2.04166241E-17
  0.781199992      -4.19887632E-17
  0.793200016      -5.62248824E-17
  0.805199981      -5.46049881E-17
  0.817200005      -3.14027837E-17
  0.829200029       1.30260060E-17
  0.841199994       7.00884162E-17
  0.853200018       1.23175028E-16
  0.865199983       1.51014963E-16
  0.877200007       1.33979635E-16
  0.889199972       6.19615454E-17
  0.901199996      -5.85974349E-17
  0.913200021      -2.01425917E-16
  0.925199986      -3.23316923E-16
  0.937200010      -3.74098877E-16
  0.949199975      -3.12267934E-16
  0.961199999      -1.22380485E-16
  0.973200023       1.71476275E-16
  0.985199988       5.02048657E-16
  0.997200012       7.69201843E-16
   1.00919998       8.64441910E-16
   1.02119994       7.05118400E-16
   1.03320003       2.69224525E-16
   1.04519999      -3.80805446E-16
   1.05719995      -1.09605047E-15
   1.06920004      -1.66686978E-15
   1.08120000      -1.87474353E-15
   1.09319997      -1.55949364E-15
   1.10520005      -6.83821927E-16
   1.11720002       6.25939719E-16
   1.12919998       2.08084528E-15
   1.14119995       3.28063441E-15
   1.15320003       3.80988898E-15
   1.16520000       3.35877638E-15
   1.17719996       1.83681593E-15
   1.18920004      -5.55563351E-16
   1.20120001      -3.32663254E-15
   1.21319997      -5.77716873E-15
   1.22520006      -7.15915381E-15
   1.23720002      -6.87687754E-15
   1.24919999      -4.68055753E-15
   1.26119995      -7.96718237E-16
   1.27320004       4.05132343E-15
   1.28520000       8.75596931E-15
   1.29719996       1.20604354E-14
   1.30920005       1.28705013E-14
   1.32120001       1.05690908E-14
   1.33319998       5.24850540E-15
   1.34519994      -2.21412083E-15
   1.35720003      -1.02794868E-14
   1.36919999      -1.70589691E-14
   1.38119996      -2.07558732E-14
   1.39320004      -2.01299887E-14
   1.40520000      -1.48616149E-14
   1.41719997      -5.70632205E-15
   1.42920005       5.61929746E-15
   1.44120002       1.68080813E-14
   1.45319998       2.54996609E-14
   1.46519995       2.98392496E-14
   1.47720003       2.88973218E-14
   1.48920000       2.28264774E-14
   1.50119996       1.27139696E-14
   1.51320004       1.92759275E-16
   1.52520001      -1.30354991E-14
   1.53719997      -2.55719111E-14
   1.54920006      -3.64269433E-14
   1.56120002      -4.48109940E-14
   1.57319999      -4.97089552E-14
   1.58519995      -4.94781252E-14
   1.59720004      -4.17729206E-14
   1.60920000      -2.40407500E-14
   1.62119997       5.35809749E-15
   1.63320005       4.56356720E-14
   1.64520001       9.21766800E-14
   1.65719998       1.35928161E-13
   1.66919994       1.64197499E-13
   1.68120003       1.63158332E-13
   1.69319999       1.21822460E-13
   1.70519996       3.66128501E-14
   1.71720004      -8.48273681E-14
   1.72920001      -2.22117355E-13
   1.74119997      -3.44116933E-13
   1.75320005      -4.14785637E-13
   1.76520002      -4.02148909E-13
   1.77719998      -2.88409379E-13
   1.78919995      -7.84116627E-14
   1.80120003       1.96456038E-13
   1.81320000       4.81072159E-13
   1.82519996       7.06663786E-13
   1.83720005       8.06655469E-13
   1.84920001       7.34800079E-13
   1.86119998       4.80835207E-13
   1.87320006       7.88533464E-14
   1.88520002      -3.95071698E-13
   1.89719999      -8.36889694E-13
   1.90919995      -1.13791984E-12
   1.92120004      -1.21231714E-12
   1.93320000      -1.02165097E-12
   1.94519997      -5.89585509E-13
   1.95720005      -1.63821180E-15
   1.96920002       6.11415812E-13
   1.98119998       1.10358044E-12
   1.99319994       1.35027655E-12
   2.00519991       1.28235280E-12
   2.01719999       9.08176854E-13
   2.02920008       3.16948019E-13
   2.04119992      -3.39169475E-13
   2.05320001      -8.81089960E-13
   2.06520009      -1.14903096E-12
   2.07719994      -1.04766651E-12
   2.08920002      -5.78363583E-13
   2.10120010       1.50998449E-13
   2.11319995       9.43240494E-13
   2.12520003       1.55440092E-12
   2.13720012       1.75343073E-12
   2.14919996       1.38597911E-12
   2.16120005       4.26897558E-13
   2.17319989      -9.92845888E-13
   2.18519998      -2.59467296E-12
   2.19720006      -3.99897520E-12
   2.20919991      -4.80381316E-12
   2.22119999      -4.68149304E-12
   2.23320007      -3.47263125E-12
   2.24519992      -1.25499155E-12
   2.25720000       1.63312636E-12
   2.26920009       4.62765807E-12
   2.28119993       7.03293110E-12
   2.29320002       8.16295729E-12
   2.30520010       7.50510504E-12
   2.31719995       4.87277926E-12
   2.32920003       5.11653545E-13
   2.34120011      -4.87036887E-12
   2.35319996      -1.01665881E-11
   2.36520004      -1.40279168E-11
   2.37719989      -1.50933727E-11
   2.38919997      -1.22603845E-11
   2.40120006      -4.95207608E-12
   2.41319990       6.66224367E-12
   2.42519999       2.15304684E-11
   2.43720007       3.76916831E-11
   2.44919991       5.23767314E-11
   2.46120000       6.22445984E-11
   2.47320008       6.37627104E-11
   2.48519993       5.37412510E-11
   2.49720001       3.00341939E-11
   2.50920010      -7.58571678E-12
   2.52119994      -5.63882968E-11
   2.53320003      -1.09529656E-10
   2.54520011      -1.54867161E-10
   2.55719995      -1.73885101E-10
   2.56920004      -1.40906745E-10
   2.58119988      -2.27704539E-11
   2.59319997       2.20894095E-10
   2.60520005       6.36755315E-10
   2.61719990       1.27638067E-09
   2.62919998       2.19470131E-09
   2.64120007       3.44898599E-09
   2.65319991       5.09922193E-09
   2.66520000       7.21111171E-09
   2.67720008       9.86307214E-09
   2.68919992       1.31588456E-08
   2.70120001       1.72473964E-08
   2.71320009       2.23517418E-08
   2.72519994       2.88082553E-08
   2.73720002       3.71177400E-08
   2.74920011       4.80091309E-08
   2.76119995       6.25160510E-08
   2.77320004       8.20656822E-08
   2.78520012       1.08578490E-07
   2.79719996       1.44575935E-07
   2.80920005       1.93291783E-07
   2.82119989       2.58781995E-07
   2.83319998       3.46025246E-07
   2.84520006       4.61005897E-07
   2.85719991       6.10769575E-07
   2.86919999       8.03440912E-07
   2.88120008       1.04819287E-06
   2.89319992       1.35515813E-06
   2.90520000       1.73527258E-06
   2.91720009       2.20004745E-06
   2.92919993       2.76126298E-06
   2.94120002       3.43058741E-06
   2.95320010       4.21912546E-06
   2.96519995       5.13690566E-06
   2.97720003       6.19232242E-06
   2.98920012       7.39155212E-06
   3.00119996       8.73796580E-06
   3.01320004       1.02315689E-05
   3.02519989       1.18685039E-05
   3.03719997       1.36406252E-05
   3.04920006       1.55352081E-05
   3.06119990       1.75347959E-05
   3.07319999       1.96172095E-05
   3.08520007       2.17557572E-05
   3.09719992       2.39196361E-05
   3.10920000       2.60745146E-05
   3.12120008       2.81833200E-05
   3.13319993       3.02071821E-05
   3.14520001       3.21065163E-05
   3.15720010       3.38421851E-05
   3.16919994       3.53767573E-05
   3.18120003       3.66756940E-05
   3.19320011       3.77085489E-05
   3.20519996       3.84500308E-05
   3.21720004       3.88809021E-05
   3.22919989       3.89886955E-05
   3.24119997       3.87682048E-05
   3.25320005       3.82217113E-05
   3.26519990       3.73589392E-05
   3.27719998       3.61967905E-05
   3.28920007       3.47587993E-05
   3.30119991       3.30743933E-05
   3.31320000       3.11779731E-05
   3.32520008       2.91078504E-05
   3.33719993       2.69050979E-05
   3.34920001       2.46123946E-05
   3.36120009       2.22728504E-05
   3.37319994       1.99289007E-05
   3.38520002       1.76213016E-05
   3.39720011       1.53882374E-05
   3.40919995       1.32645764E-05
   3.42120004       1.12812759E-05
   3.43319988       9.46493765E-06
   3.44519997       7.83751238E-06
   3.45720005       6.41613815E-06
   3.46919990       5.21308766E-06
   3.48119998       4.23582105E-06
   3.49320006       3.48711524E-06
   3.50519991       2.96526059E-06
   3.51719999       2.66430516E-06
   3.52920008       2.57434681E-06
   3.54119992       2.68185840E-06
   3.55320001       2.97005022E-06
   3.56520009       3.41926625E-06
   3.57719994       4.00741601E-06
   3.58920002       4.71044450E-06
   3.60120010       5.50283676E-06
   3.61319995       6.35815695E-06
   3.62520003       7.24961637E-06
   3.63720012       8.15065960E-06
   3.64919996       9.03555519E-06
   3.66120005       9.87997646E-06
   3.67319989       1.06615580E-05
   3.68519998       1.13603983E-05
   3.69720006       1.19594979E-05
   3.70919991       1.24451144E-05
   3.72119999       1.28070205E-05
   3.73320007       1.30386397E-05
   3.74519992       1.31370816E-05
   3.75720000       1.31030492E-05
   3.76920009       1.29406308E-05
   3.78119993       1.26570030E-05
   3.79320002       1.22620313E-05
   3.80520010       1.17678137E-05
   3.81719995       1.11881718E-05
   3.82920003       1.05381214E-05
   3.84120011       9.83334394E-06
   3.85319996       9.08968377E-06
   3.86520004       8.32268961E-06
   3.87719989       7.54721441E-06
   3.88919997       6.77709113E-06
   3.90120006       6.02488262E-06
   3.91319990       5.30171474E-06
   3.92519999       4.61717900E-06
   3.93720007       3.97930717E-06
   3.94919991       3.39459075E-06
   3.96120000       2.86804243E-06
   3.97320008       2.40327881E-06
   3.98519993       2.00260820E-06
   3.99720001       1.66711629E-06
   4.00920010       1.39673602E-06
   4.02120018       1.19030312E-06
   4.03319979       1.04559274E-06
   4.04519987       9.59346949E-07
   4.05719995       9.27299823E-07
   4.06920004       9.44212502E-07
   4.08120012       1.00393231E-06
   4.09320021       1.09948360E-06
   4.10519981       1.22320671E-06
   4.11719990       1.36694428E-06
   4.12919998       1.52228165E-06
   4.14120007       1.68083375E-06
   4.15320015       1.83457030E-06
   4.16520023       1.97616669E-06
   4.17719984       2.09936093E-06
   4.18919992       2.19929848E-06
   4.20120001       2.27284590E-06
   4.21320009       2.31884951E-06
   4.22520018       2.33832952E-06
   4.23719978       2.33458854E-06
   4.24919987       2.31323429E-06
   4.26119995       2.28210411E-06
   4.27320004       2.25110193E-06
   4.28520012       2.23194775E-06
   4.29720020       2.23785378E-06
   4.30919981       2.28313706E-06
   4.32119989       2.38278767E-06
   4.33319998       2.55200052E-06
   4.34520006       2.80569202E-06
   4.35720015       3.15800867E-06
   4.36920023       3.62184119E-06
   4.38119984       4.20835158E-06
   4.39319992       4.92652680E-06
   4.40520000       5.78276104E-06
   4.41720009       6.78048536E-06
   4.42920017       7.91985258E-06
   4.44119978       9.19748436E-06
   4.45319986       1.06063189E-05
   4.46519995       1.21355424E-05
   4.47720003       1.37706411E-05
   4.48920012       1.54935842E-05
   4.50120020       1.72831351E-05
   4.51319981       1.91152958E-05
   4.52519989       2.09638874E-05
   4.53719997       2.28012341E-05
   4.54920006       2.45989468E-05
   4.56120014       2.63287711E-05
   4.57320023       2.79634587E-05
   4.58519983       2.94776237E-05
   4.59719992       3.08485687E-05
   4.60920000       3.20569925E-05
   4.62120008       3.30875846E-05
   4.63320017       3.39294565E-05
   4.64519978       3.45763838E-05
   4.65719986       3.50268710E-05
   4.66919994       3.52840252E-05
   4.68120003       3.53551986E-05
   4.69320011       3.52515126E-05
   4.70520020       3.49872535E-05
   4.71719980       3.45791086E-05
   4.72919989       3.40454098E-05
   4.74119997       3.34053475E-05
   4.75320005       3.26782174E-05
   4.76520014       3.18827188E-05
   4.77720022       3.10363721E-05
   4.78919983       3.01550317E-05
   4.80119991       2.92525692E-05
   4.81320000       2.83406443E-05
   4.82520008       2.74286267E-05
   4.83720016       2.65236122E-05
   4.84919977       2.56305393E-05
   4.86119986       2.47523876E-05
   4.87319994       2.38904104E-05
   4.88520002       2.30444002E-05
   4.89720011       2.22129838E-05
   4.90920019       2.13939093E-05
   4.92119980       2.05843226E-05
   4.93319988       1.97810514E-05
   4.94519997       1.89808597E-05
   4.95720005       1.81807045E-05
   4.96920013       1.73779790E-05
   4.98120022       1.65707534E-05
   4.99319983       1.57580071E-05
   5.00519991       1.49398338E-05
   5.01719999       1.41176506E-05
   5.02920008       1.32943478E-05
   5.04120016       1.24743974E-05
   5.05319977       1.16638885E-05
   5.06519985       1.08704608E-05
   5.07719994       1.01031364E-05
   5.08920002       9.37201730E-06
   5.10120010       8.68785901E-06
   5.11320019       8.06150547E-06
   5.12519979       7.50322124E-06
   5.13719988       7.02191846E-06
   5.14919996       6.62433422E-06
   5.16120005       6.31418789E-06
   5.17320013       6.09136532E-06
   5.18520021       5.95118718E-06
   5.19719982       5.88380772E-06
   5.20919991       5.87379282E-06
   5.22119999       5.89991805E-06
   5.23320007       5.93522327E-06
   5.24520016       5.94734684E-06
   5.25719976       5.89915317E-06
   5.26919985       5.74964452E-06
   5.28119993       5.45515195E-06
   5.29320002       4.97075962E-06
   5.30520010       4.25193412E-06
   5.31720018       3.25629117E-06
   5.32919979       1.94543668E-06
   5.34119987       2.86815521E-07
   5.35319996      -1.74451759E-06
   5.36520004      -4.16427974E-06
   5.37720013      -6.97756559E-06
   5.38920021      -1.01777578E-05
   5.40119982      -1.37457964E-05
   5.41319990      -1.76498470E-05
   5.42519999      -2.18454406E-05
   5.43720007      -2.62760514E-05
   5.44920015      -3.08741583E-05
   5.46120024      -3.55627635E-05
   5.47319984      -4.02573023E-05
   5.48519993      -4.48679275E-05
   5.49720001      -4.93020852E-05
   5.50920010      -5.34672618E-05
   5.52120018      -5.72738281E-05
   5.53319979      -6.06378781E-05
   5.54519987      -6.34839162E-05
   5.55719995      -6.57473138E-05
   5.56920004      -6.73763789E-05
   5.58120012      -6.83340259E-05
   5.59320021      -6.85988780E-05
   5.60519981      -6.81658566E-05
   5.61719990      -6.70460868E-05
   5.62919998      -6.52662711E-05
   5.64120007      -6.28674607E-05
   5.65320015      -5.99033046E-05
   5.66520023      -5.64379043E-05
   5.67719984      -5.25432843E-05
   5.68919992      -4.82967043E-05
   5.70120001      -4.37778872E-05
   5.71320009      -3.90662935E-05
   5.72520018      -3.42386229E-05
   5.73719978      -2.93665944E-05
   5.74919987      -2.45151768E-05
   5.76119995      -1.97413137E-05
   5.77320004      -1.50931910E-05
   5.78520012      -1.06100561E-05
   5.79720020      -6.32259798E-06
   5.80919981      -2.25380791E-06
   5.82119989       1.57975148E-06
   5.83319998       5.16637601E-06
   5.84520006       8.49747994E-06
   5.85720015       1.15658158E-05
   5.86920023       1.43637963E-05
   5.88119984       1.68820461E-05
   5.89319992       1.91082927E-05
   5.90520000       2.10266935E-05
   5.91720009       2.26176362E-05
   5.92920017       2.38580724E-05
   5.94119978       2.47223306E-05
   5.95319986       2.51834044E-05
   5.96519995       2.52146056E-05
   5.97720003       2.47914941E-05
   5.98920012       2.38939610E-05
   6.00120020       2.25083131E-05
   6.01319981       2.06292225E-05
   6.02519989       1.82614149E-05
   6.03719997       1.54209520E-05
   6.04920006       1.21360154E-05
   6.06120014       8.44712940E-06
   6.07320023       4.40675922E-06
   6.08519983       7.82993155E-08
   6.09719992      -4.46553759E-06
   6.10920000      -9.14485190E-06
   6.12120008      -1.38751248E-05
   6.13320017      -1.85701083E-05
   6.14519978      -2.31448939E-05
   6.15719986      -2.75190159E-05
   6.16919994      -3.16194237E-05
   6.18120003      -3.53832183E-05
   6.19320011      -3.87599575E-05
   6.20520020      -4.17134652E-05
   6.21719980      -4.42230194E-05
   6.22919989      -4.62838761E-05
   6.24119997      -4.79071095E-05
   6.25320005      -4.91187493E-05
   6.26520014      -4.99582420E-05
   6.27720022      -5.04764103E-05
   6.28919983      -5.07328696E-05
   6.30119991      -5.07931327E-05
   6.31320000      -5.07255172E-05
   6.32520008      -5.05979806E-05
   6.33720016      -5.04750860E-05
   6.34919977      -5.04151794E-05
   6.36119986      -5.04679811E-05
   6.37319994      -5.06726683E-05
   6.38520002      -5.10565078E-05
   6.39720011      -5.16341643E-05
   6.40920019      -5.24076167E-05
   6.42119980      -5.33667189E-05
   6.43319988      -5.44903814E-05
   6.44519997      -5.57481944E-05
   6.45720005      -5.71025084E-05
   6.46920013      -5.85107264E-05
   6.48120022      -5.99277846E-05
   6.49319983      -6.13085722E-05
   6.50519991      -6.26102628E-05
   6.51719999      -6.37943012E-05
   6.52920008      -6.48281275E-05
   6.54120016      -6.56863485E-05
   6.55319977      -6.63515166E-05
   6.56519985      -6.68143621E-05
   6.57719994      -6.70735535E-05
   6.58920002      -6.71350426E-05
   6.60120010      -6.70110167E-05
   6.61320019      -6.67186032E-05
   6.62519979      -6.62783641E-05
   6.63719988      -6.57127457E-05
   6.64919996      -6.50445072E-05
   6.66120005      -6.42953310E-05
   6.67320013      -6.34845346E-05
   6.68520021      -6.26281690E-05
   6.69719982      -6.17382902E-05
   6.70919991      -6.08226219E-05
   6.72119999      -5.98845254E-05
   6.73320007      -5.89232150E-05
   6.74520016      -5.79342995E-05
   6.75719976      -5.69104668E-05
   6.76919985      -5.58422980E-05
   6.78119993      -5.47191776E-05
   6.79320002      -5.35302170E-05
   6.80520010      -5.22651098E-05
   6.81720018      -5.09148922E-05
   6.82919979      -4.94725755E-05
   6.84119987      -4.79336086E-05
   6.85319996      -4.62961871E-05
   6.86520004      -4.45613659E-05
   6.87720013      -4.27330306E-05
   6.88920021      -4.08177148E-05
   6.90119982      -3.88242916E-05
   6.91319990      -3.67636239E-05
   6.92519999      -3.46480883E-05
   6.93720007      -3.24911525E-05
   6.94920015      -3.03069010E-05
   6.96120024      -2.81096382E-05
   6.97319984      -2.59134886E-05
   6.98519993      -2.37320946E-05
   6.99720001      -2.15783584E-05
   7.00920010      -1.94642325E-05
   7.02120018      -1.74005563E-05
   7.03319979      -1.53969286E-05
   7.04519987      -1.34615993E-05
   7.05719995      -1.16013498E-05
   7.06920004      -9.82138863E-06
   7.08120012      -8.12521375E-06
   7.09320021      -6.51447635E-06
   7.10519981      -4.98883037E-06
   7.11719990      -3.54579106E-06
   7.12919998      -2.18061950E-06
   7.14120007      -8.86252451E-07
   7.15320015       3.46694520E-07
   7.16520023       1.52982818E-06
   7.17719984       2.67676182E-06
   7.18919992       3.80276902E-06
   7.20120001       4.92429899E-06
   7.21320009       6.05836158E-06
   7.22520018       7.22179811E-06
   7.23719978       8.43046018E-06
   7.24919987       9.69834673E-06
   7.26119995       1.10367364E-05
   7.27320004       1.24533672E-05
   7.28520012       1.39517306E-05
   7.29720020       1.55305042E-05
   7.30919981       1.71832016E-05
   7.32119989       1.88980393E-05
   7.33319998       2.06580753E-05
   7.34520006       2.24415962E-05
   7.35720015       2.42227634E-05
   7.36920023       2.59725075E-05
   7.38119984       2.76595838E-05
   7.39319992       2.92518271E-05
   7.40520000       3.07174523E-05
   7.41720009       3.20264153E-05
   7.42920017       3.31517476E-05
   7.44119978       3.40707375E-05
   7.45319986       3.47660098E-05
   7.46519995       3.52263596E-05
   7.47720003       3.54473486E-05
   7.48920012       3.54315816E-05
   7.50120020       3.51887429E-05
   7.51319981       3.47352907E-05
   7.52519989       3.40938859E-05
   7.53719997       3.32925483E-05
   7.54920006       3.23636486E-05
   7.56120014       3.13426499E-05
   7.57320023       3.02668177E-05
   7.58519983       2.91737979E-05
   7.59719992       2.81002431E-05
   7.60920000       2.70804630E-05
   7.62120008       2.61451933E-05
   7.63320017       2.53205126E-05
   7.64519978       2.46269574E-05
   7.65719986       2.40788413E-05
   7.66919994       2.36838332E-05
   7.68120003       2.34427698E-05
   7.69320011       2.33497212E-05
   7.70520020       2.33922819E-05
   7.71719980       2.35520947E-05
   7.72919989       2.38055327E-05
   7.74119997       2.41245743E-05
   7.75320005       2.44777711E-05
   7.76520014       2.48313172E-05
   7.77720022       2.51501751E-05
   7.78919983       2.53992202E-05
   7.80119991       2.55443974E-05
   7.81320000       2.55538162E-05
   7.82520008       2.53988183E-05
   7.83720016       2.50549474E-05
   7.84919977       2.45028114E-05
   7.86119986       2.37288205E-05
   7.87319994       2.27257606E-05
   7.88520002       2.14931952E-05
   7.89720011       2.00376617E-05
   7.90920019       1.83726497E-05
   7.92119980       1.65183537E-05
   7.93319988       1.45011845E-05
   7.94519997       1.23530554E-05
   7.95720005       1.01104379E-05
   7.96920013       7.81323160E-06
   7.98120022       5.50346704E-06
   7.99319983       3.22388200E-06
   8.00520039       1.01644571E-06
   8.01720047      -1.07913388E-06
   8.02919960      -3.02683475E-06
   8.04119968      -4.79561459E-06
   8.05319977      -6.36051254E-06
   8.06519985      -7.70349197E-06
   8.07719994      -8.81397773E-06
   8.08920002      -9.68906352E-06
   8.10120010      -1.03333514E-05
   8.11320019      -1.07584538E-05
   8.12520027      -1.09821704E-05
   8.13720036      -1.10273804E-05
   8.14920044      -1.09207331E-05
   8.16119957      -1.06911830E-05
   8.17319965      -1.03684888E-05
   8.18519974      -9.98173437E-06
   8.19719982      -9.55797896E-06
   8.20919991      -9.12109499E-06
   8.22119999      -8.69087671E-06
   8.23320007      -8.28243537E-06
   8.24520016      -7.90594095E-06
   8.25720024      -7.56668624E-06
   8.26920033      -7.26547569E-06
   8.28120041      -6.99928387E-06
   8.29319954      -6.76215359E-06
   8.30519962      -6.54624773E-06
   8.31719971      -6.34298931E-06
   8.32919979      -6.14420787E-06
   8.34119987      -5.94320545E-06
   8.35319996      -5.73567604E-06
   8.36520004      -5.52040819E-06
   8.37720013      -5.29972112E-06
   8.38920021      -5.07961022E-06
   8.40120029      -4.86958743E-06
   8.41320038      -4.68222470E-06
   8.42520046      -4.53244184E-06
   8.43719959      -4.43657882E-06
   8.44919968      -4.41131897E-06
   8.46119976      -4.47252614E-06
   8.47319984      -4.63408242E-06
   8.48519993      -4.90678030E-06
   8.49720001      -5.29735507E-06
   8.50920010      -5.80770347E-06
   8.52120018      -6.43433623E-06
   8.53320026      -7.16810973E-06
   8.54520035      -7.99423651E-06
   8.55720043      -8.89259627E-06
   8.56919956      -9.83832524E-06
   8.58119965      -1.08026552E-05
   8.59319973      -1.17539730E-05
   8.60519981      -1.26590394E-05
   8.61719990      -1.34843121E-05
   8.62919998      -1.41973278E-05
   8.64120007      -1.47680576E-05
   8.65320015      -1.51701925E-05
   8.66520023      -1.53823003E-05
   8.67720032      -1.53888141E-05
   8.68920040      -1.51808072E-05
   8.70119953      -1.47565243E-05
   8.71319962      -1.41216660E-05
   8.72519970      -1.32894029E-05
   8.73719978      -1.22801266E-05
   8.74919987      -1.11209474E-05
   8.76119995      -9.84495637E-06
   8.77320004      -8.49027310E-06
   8.78520012      -7.09891037E-06
   8.79720020      -5.71549663E-06
   8.80920029      -4.38588359E-06
   8.82120037      -3.15568946E-06
   8.83320045      -2.06882260E-06
   8.84519958      -1.16602166E-06
   8.85719967      -4.83467431E-07
   8.86919975      -5.15078504E-08
   8.88119984       1.06461613E-07
   8.89319992      -2.50814658E-08
   8.90520000      -4.53102075E-07
   8.91720009      -1.17559216E-06
   8.92920017      -2.18144714E-06
   8.94120026      -3.45065496E-06
   8.95320034      -4.95479844E-06
   8.96520042      -6.65786501E-06
   8.97719955      -8.51735149E-06
   8.98919964      -1.04856153E-05
   9.00119972      -1.25114420E-05
   9.01319981      -1.45417625E-05
   9.02519989      -1.65234505E-05
   9.03719997      -1.84051405E-05
   9.04920006      -2.01389630E-05
   9.06120014      -2.16821645E-05
   9.07320023      -2.29984817E-05
   9.08520031      -2.40592672E-05
   9.09720039      -2.48442921E-05
   9.10919952      -2.53421858E-05
   9.12119961      -2.55505165E-05
   9.13319969      -2.54755178E-05
   9.14519978      -2.51314796E-05
   9.15719986      -2.45398442E-05
   9.16919994      -2.37280619E-05
   9.18120003      -2.27282926E-05
   9.19320011      -2.15759792E-05
   9.20520020      -2.03084182E-05
   9.21720028      -1.89633556E-05
   9.22920036      -1.75776877E-05
   9.24120045      -1.61863118E-05
   9.25319958      -1.48211911E-05
   9.26519966      -1.35106238E-05
   9.27719975      -1.22787578E-05
   9.28919983      -1.11453310E-05
   9.30119991      -1.01256419E-05
   9.31320000      -9.23069547E-06
   9.32520008      -8.46750845E-06
   9.33720016      -7.83952692E-06
   9.34920025      -7.34710375E-06
   9.36120033      -6.98799749E-06
   9.37320042      -6.75785213E-06
   9.38519955      -6.65062726E-06
   9.39719963      -6.65895732E-06
   9.40919971      -6.77442495E-06
   9.42119980      -6.98775330E-06
   9.43319988      -7.28892292E-06
   9.44519997      -7.66722860E-06
