 -0.622799993       0.00000000    
 -0.610800028       0.00000000    
 -0.598800004       0.00000000    
 -0.586799979       0.00000000    
 -0.574800014       0.00000000    
 -0.562799990       0.00000000    
 -0.550800025       0.00000000    
 -0.538800001       0.00000000    
 -0.526799977       1.46015734E-38
 -0.514800012       7.39063419E-37
 -0.502799988       1.23417852E-35
 -0.490799993       1.18980347E-34
 -0.478799999       7.97924555E-34
 -0.466800004       4.04304596E-33
 -0.454800010       1.62425019E-32
 -0.442799985       5.33400957E-32
 -0.430799991       1.46017722E-31
 -0.418799996       3.36979224E-31
 -0.406800002       6.57627870E-31
 -0.394800007       1.07530631E-30
 -0.382800013       1.41602335E-30
 -0.370799989       1.26791454E-30
 -0.358799994      -1.86065474E-31
 -0.346799999      -4.56378854E-30
 -0.334800005      -1.50273904E-29
 -0.322800010      -3.68880344E-29
 -0.310799986      -7.60963449E-29
 -0.298799992      -1.31948337E-28
 -0.286799997      -1.81050018E-28
 -0.274800003      -1.56793484E-28
 -0.262800008       5.57337825E-29
 -0.250800014       5.72143327E-28
 -0.238800004       1.37279998E-27
 -0.226799995       2.09238480E-27
 -0.214800000       1.85916527E-27
 -0.202800006      -5.61901376E-28
 -0.190799996      -6.03935269E-27
 -0.178800002      -1.37149123E-26
 -0.166800007      -1.95631264E-26
 -0.154799998      -1.61899772E-26
 -0.142800003       4.43881978E-27
 -0.130799994       4.44968611E-26
 -0.118799999       9.17791037E-26
 -0.106799997       1.14692918E-25
  -9.48000029E-02   6.89430103E-26
  -8.28000009E-02  -7.79208268E-26
  -7.07999989E-02  -3.07450279E-25
  -5.88000007E-02  -5.15989974E-25
  -4.67999987E-02  -5.18794029E-25
  -3.48000005E-02  -1.25403640E-25
  -2.28000004E-02   7.10291838E-25
  -1.08000003E-02   1.72090342E-24
   1.20000006E-03   2.25872926E-24
   1.31999999E-02   1.47723000E-24
   2.52000000E-02  -1.16570006E-24
   3.72000001E-02  -5.20307015E-24
   4.91999984E-02  -8.63689095E-24
   6.12000003E-02  -8.16774512E-24
   7.32000023E-02  -6.41787847E-25
   8.51999968E-02   1.43640621E-23
   9.71999988E-02   3.18278870E-23
  0.109200001       4.03740116E-23
  0.121200003       2.53385720E-23
  0.133200005      -2.31832731E-23
  0.145199999      -9.90892348E-23
  0.157199994      -1.71265716E-22
  0.169200003      -1.84903203E-22
  0.181199998      -8.02349228E-23
  0.193200007       1.70704590E-22
  0.205200002       5.20315033E-22
  0.217199996       8.18284231E-22
  0.229200006       8.30765903E-22
  0.241200000       3.26819772E-22
  0.253199995      -7.74884562E-22
  0.265199989      -2.24828458E-21
  0.277200013      -3.47985877E-21
  0.289200008      -3.56636861E-21
  0.301200002      -1.64911996E-21
  0.313199997       2.55833069E-21
  0.325199991       8.23106021E-21
  0.337199986       1.31822354E-20
  0.349200010       1.42185869E-20
  0.361200005       8.26908871E-21
  0.373199999      -5.87466781E-21
  0.385199994      -2.57932040E-20
  0.397199988      -4.45793094E-20
  0.409200013      -5.18477971E-20
  0.421200007      -3.71221728E-20
  0.433200002       4.85712943E-21
  0.445199996       6.85855836E-20
  0.457199991       1.34687519E-19
  0.469199985       1.72074014E-19
  0.481200010       1.46998034E-19
  0.493200004       3.80558496E-20
  0.505200028      -1.47178760E-19
  0.517199993      -3.61075556E-19
  0.529200017      -5.18387317E-19
  0.541199982      -5.17526429E-19
  0.553200006      -2.79641202E-19
  0.565199971       2.04279180E-19
  0.577199996       8.36157952E-19
  0.589200020       1.40483165E-18
  0.601199985       1.62801697E-18
  0.613200009       1.24478130E-18
  0.625199974       1.39736228E-19
  0.637199998      -1.54177770E-18
  0.649200022      -3.34143289E-18
  0.661199987      -4.54768143E-18
  0.673200011      -4.38870848E-18
  0.685199976      -2.33162735E-18
  0.697200000       1.59470072E-18
  0.709200025       6.57844292E-18
  0.721199989       1.10371181E-17
  0.733200014       1.29500444E-17
  0.745199978       1.04994589E-17
  0.757200003       2.87909932E-18
  0.769200027      -8.99101154E-18
  0.781199992      -2.21632887E-17
  0.793200016      -3.20460390E-17
  0.805199981      -3.35698414E-17
  0.817200005      -2.29630450E-17
  0.829200029       3.34683661E-19
  0.841199994       3.23067432E-17
  0.853200018       6.42500166E-17
  0.865199983       8.43873051E-17
  0.877200007       8.11705188E-17
  0.889199972       4.75986558E-17
  0.901199996      -1.47181653E-17
  0.913200021      -9.33209219E-17
  0.925199986      -1.65875812E-16
  0.937200010      -2.04994282E-16
  0.949199975      -1.86328495E-16
  0.961199999      -9.80270436E-17
  0.973200023       5.13997393E-17
  0.985199988       2.30022491E-16
  0.997200012       3.86654764E-16
   1.00919998       4.62772269E-16
   1.02119994       4.10173164E-16
   1.03320003       2.09859004E-16
   1.04519999      -1.13949066E-16
   1.05719995      -4.90592166E-16
   1.06920004      -8.14268125E-16
   1.08120000      -9.69548110E-16
   1.09319997      -8.66010773E-16
   1.10520005      -4.72731629E-16
   1.11720002       1.58590455E-16
   1.12919998       8.91707688E-16
   1.14119995       1.53003458E-15
   1.15320003       1.86444996E-15
   1.16520000       1.73409879E-15
   1.17719996       1.08357082E-15
   1.18920004      -1.85480797E-18
   1.20120001      -1.29727183E-15
   1.21319997      -2.48073864E-15
   1.22520006      -3.21048802E-15
   1.23720002      -3.21826208E-15
   1.24919999      -2.39312473E-15
   1.26119995      -8.30210767E-16
   1.27320004       1.17297398E-15
   1.28520000       3.17576136E-15
   1.29719996       4.69575627E-15
   1.30920005       5.32608049E-15
   1.32120001       4.83664368E-15
   1.33319998       3.23223008E-15
   1.34519994       7.53512728E-16
   1.35720003      -2.17535489E-15
   1.36919999      -5.03334887E-15
   1.38119996      -7.29649851E-15
   1.39320004      -8.51535097E-15
   1.40520000      -8.36473580E-15
   1.41719997      -6.67087532E-15
   1.42920005      -3.43291252E-15
   1.44120002       1.14341158E-15
   1.45319998       6.59545465E-15
   1.46519995       1.21557114E-14
   1.47720003       1.67485231E-14
   1.48920000       1.90838200E-14
   1.50119996       1.78858528E-14
   1.51320004       1.22528356E-14
   1.52520001       2.08230789E-15
   1.53719997      -1.15635523E-14
   1.54920006      -2.63118435E-14
   1.56120002      -3.86943793E-14
   1.57319999      -4.47889745E-14
   1.58519995      -4.12222170E-14
   1.59720004      -2.63228058E-14
   1.60920000      -1.09822470E-15
   1.62119997       3.03280892E-14
   1.63320005       6.11033373E-14
   1.64520001       8.29460063E-14
   1.65719998       8.81798161E-14
   1.66919994       7.20466235E-14
   1.68120003       3.46572780E-14
   1.69319999      -1.80809466E-14
   1.70519996      -7.50364736E-14
   1.71720004      -1.22032863E-13
   1.72920001      -1.45275651E-13
   1.74119997      -1.35231100E-13
   1.75320005      -8.98992320E-14
   1.76520002      -1.64413364E-14
   1.77719998       6.95438919E-14
   1.78919995       1.47211033E-13
   1.80120003       1.95537027E-13
   1.81320000       1.99061606E-13
   1.82519996       1.52749382E-13
   1.83720005       6.44936714E-14
   1.84920001      -4.57162384E-14
   1.86119998      -1.50102356E-13
   1.87320006      -2.20049592E-13
   1.88520002      -2.34033333E-13
   1.89719999      -1.84396050E-13
   1.90919995      -8.09321956E-14
   1.92120004       5.00988309E-14
   1.93320000       1.71796225E-13
   1.94519997       2.46225945E-13
   1.95720005       2.45572632E-13
   1.96920002       1.61865055E-13
   1.98119998       1.22826943E-14
   1.99319994      -1.62159606E-13
   2.00519991      -3.05246334E-13
   2.01719999      -3.60273660E-13
   2.02920008      -2.87670360E-13
   2.04119992      -8.09535680E-14
   2.05320001       2.23953316E-13
   2.06520009       5.50113882E-13
   2.07719994       7.93532557E-13
   2.08920002       8.48320329E-13
   2.10120010       6.38237076E-13
   2.11319995       1.46922188E-13
   2.12520003      -5.62135787E-13
   2.13720012      -1.34382154E-12
   2.14919996      -1.99223147E-12
   2.16120005      -2.28307217E-12
   2.17319989      -2.03027547E-12
   2.18519998      -1.14408071E-12
   2.19720006       3.24969733E-13
   2.20919991       2.17056603E-12
   2.22119999       4.05275553E-12
   2.23320007       5.55788835E-12
   2.24519992       6.28633734E-12
   2.25720000       5.94900604E-12
   2.26920009       4.44874649E-12
   2.28119993       1.92402886E-12
   2.29320002      -1.26012525E-12
   2.30520010      -4.57615629E-12
   2.31719995      -7.44036603E-12
   2.32920003      -9.33640405E-12
   2.34120011      -9.92364784E-12
   2.35319996      -9.09979470E-12
   2.36520004      -6.99722355E-12
   2.37719989      -3.90946260E-12
   2.38919997      -1.63428990E-13
   2.40120006       4.03028175E-12
   2.41319990       8.70723719E-12
   2.42519999       1.42177711E-11
   2.43720007       2.12033117E-11
   2.44919991       3.04671392E-11
   2.46120000       4.27463412E-11
   2.47320008       5.84094717E-11
   2.48519993       7.71147243E-11
   2.49720001       9.74645434E-11
   2.50920010       1.16683566E-10
   2.52119994       1.30334146E-10
   2.53320003       1.32064484E-10
   2.54520011       1.13374123E-10
   2.55719995       6.33661526E-11
   2.56920004      -3.15484132E-11
   2.58119988      -1.88039584E-10
   2.59319997      -4.26409991E-10
   2.60520005      -7.71422370E-10
   2.61719990      -1.25358701E-09
   2.62919998      -1.91122673E-09
   2.64120007      -2.79378898E-09
   2.65319991      -3.96707334E-09
   2.66520000      -5.52130697E-09
   2.67720008      -7.58322205E-09
   2.68919992      -1.03335225E-08
   2.70120001      -1.40313023E-08
   2.71320009      -1.90470217E-08
   2.72519994      -2.59056296E-08
   2.73720002      -3.53411131E-08
   2.74920011      -4.83632974E-08
   2.76119995      -6.63372148E-08
   2.77320004      -9.10740283E-08
   2.78520012      -1.24932058E-07
   2.79719996      -1.70924594E-07
   2.80920005      -2.32830089E-07
   2.82119989      -3.15299133E-07
   2.83319998      -4.23950979E-07
   2.84520006      -5.65451103E-07
   2.85719991      -7.47561387E-07
   2.86919999      -9.79152219E-07
   2.88120008      -1.27016756E-06
   2.89319992      -1.63153402E-06
   2.90520000      -2.07500557E-06
   2.91720009      -2.61293849E-06
   2.92919993      -3.25799374E-06
   2.94120002      -4.02277010E-06
   2.95320010      -4.91936680E-06
   2.96519995      -5.95889378E-06
   2.97720003      -7.15093847E-06
   2.98920012      -8.50300694E-06
   3.00119996      -1.00199704E-05
   3.01320004      -1.17035379E-05
   3.02519989      -1.35517748E-05
   3.03719997      -1.55587149E-05
   3.04920006      -1.77140755E-05
   3.06119990      -2.00031081E-05
   3.07319999      -2.24066080E-05
   3.08520007      -2.49010791E-05
   3.09719992      -2.74590911E-05
   3.10920000      -3.00497959E-05
   3.12120008      -3.26396112E-05
   3.13319993      -3.51930612E-05
   3.14520001      -3.76737153E-05
   3.15720010      -4.00452373E-05
   3.16919994      -4.22724515E-05
   3.18120003      -4.43224308E-05
   3.19320011      -4.61655254E-05
   3.20519996      -4.77762987E-05
   3.21720004      -4.91343235E-05
   3.22919989      -5.02248186E-05
   3.24119997      -5.10390419E-05
   3.25320005      -5.15744978E-05
   3.26519990      -5.18348752E-05
   3.27719998      -5.18297929E-05
   3.28920007      -5.15742831E-05
   3.30119991      -5.10881073E-05
   3.31320000      -5.03949523E-05
   3.32520008      -4.95214663E-05
   3.33719993      -4.84962802E-05
   3.34920001      -4.73489927E-05
   3.36120009      -4.61092313E-05
   3.37319994      -4.48057726E-05
   3.38520002      -4.34657959E-05
   3.39720011      -4.21142795E-05
   3.40919995      -4.07735788E-05
   3.42120004      -3.94631497E-05
   3.43319988      -3.81994541E-05
   3.44519997      -3.69960144E-05
   3.45720005      -3.58635625E-05
   3.46919990      -3.48103240E-05
   3.48119998      -3.38423306E-05
   3.49320006      -3.29637660E-05
   3.50519991      -3.21773041E-05
   3.51719999      -3.14844365E-05
   3.52920008      -3.08857052E-05
   3.54119992      -3.03808920E-05
   3.55320001      -2.99691292E-05
   3.56520009      -2.96489288E-05
   3.57719994      -2.94181555E-05
   3.58920002      -2.92739514E-05
   3.60120010      -2.92126151E-05
   3.61319995      -2.92295044E-05
   3.62520003      -2.93189132E-05
   3.63720012      -2.94740021E-05
   3.64919996      -2.96867747E-05
   3.66120005      -2.99480962E-05
   3.67319989      -3.02477911E-05
   3.68519998      -3.05747890E-05
   3.69720006      -3.09173302E-05
   3.70919991      -3.12632510E-05
   3.72119999      -3.16002552E-05
   3.73320007      -3.19162536E-05
   3.74519992      -3.21997068E-05
   3.75720000      -3.24399334E-05
   3.76920009      -3.26274239E-05
   3.78119993      -3.27541165E-05
   3.79320002      -3.28135939E-05
   3.80520010      -3.28012538E-05
   3.81719995      -3.27143789E-05
   3.82920003      -3.25521905E-05
   3.84120011      -3.23157692E-05
   3.85319996      -3.20079853E-05
   3.86520004      -3.16333499E-05
   3.87719989      -3.11978620E-05
   3.88919997      -3.07087830E-05
   3.90120006      -3.01744967E-05
   3.91319990      -2.96042872E-05
   3.92519999      -2.90082189E-05
   3.93720007      -2.83969712E-05
   3.94919991      -2.77817253E-05
   3.96120000      -2.71740428E-05
   3.97320008      -2.65857543E-05
   3.98519993      -2.60288343E-05
   3.99720001      -2.55152372E-05
   4.00920010      -2.50567100E-05
   4.02120018      -2.46645523E-05
   4.03319979      -2.43493378E-05
   4.04519987      -2.41205908E-05
   4.05719995      -2.39864403E-05
   4.06920004      -2.39532656E-05
   4.08120012      -2.40253630E-05
   4.09320021      -2.42046372E-05
   4.10519981      -2.44903858E-05
   4.11719990      -2.48791548E-05
   4.12919998      -2.53647304E-05
   4.14120007      -2.59382305E-05
   4.15320015      -2.65883627E-05
   4.16520023      -2.73018013E-05
   4.17719984      -2.80636887E-05
   4.18919992      -2.88582487E-05
   4.20120001      -2.96694652E-05
   4.21320009      -3.04818313E-05
   4.22520018      -3.12810880E-05
   4.23719978      -3.20549334E-05
   4.24919987      -3.27937050E-05
   4.26119995      -3.34909128E-05
   4.27320004      -3.41436789E-05
   4.28520012      -3.47530076E-05
   4.29720020      -3.53239120E-05
   4.30919981      -3.58653087E-05
   4.32119989      -3.63897780E-05
   4.33319998      -3.69131376E-05
   4.34520006      -3.74538140E-05
   4.35720015      -3.80321217E-05
   4.36920023      -3.86693791E-05
   4.38119984      -3.93869668E-05
   4.39319992      -4.02053229E-05
   4.40520000      -4.11429646E-05
   4.41720009      -4.22155281E-05
   4.42920017      -4.34349131E-05
   4.44119978      -4.48086248E-05
   4.45319986      -4.63392171E-05
   4.46519995      -4.80240269E-05
   4.47720003      -4.98551526E-05
   4.48920012      -5.18196539E-05
   4.50120020      -5.39000539E-05
   4.51319981      -5.60750304E-05
   4.52519989      -5.83203255E-05
   4.53719997      -6.06098001E-05
   4.54920006      -6.29165443E-05
   4.56120014      -6.52140152E-05
   4.57320023      -6.74771363E-05
   4.58519983      -6.96832140E-05
   4.59719992      -7.18127558E-05
   4.60920000      -7.38499948E-05
   4.62120008      -7.57832167E-05
   4.63320017      -7.76048037E-05
   4.64519978      -7.93110448E-05
   4.65719986      -8.09017001E-05
   4.66919994      -8.23794326E-05
   4.68120003      -8.37490588E-05
   4.69320011      -8.50167198E-05
   4.70520020      -8.61890221E-05
   4.71719980      -8.72722449E-05
   4.72919989      -8.82714958E-05
   4.74119997      -8.91900636E-05
   4.75320005      -9.00288869E-05
   4.76520014      -9.07860740E-05
   4.77720022      -9.14567063E-05
   4.78919983      -9.20327439E-05
   4.80119991      -9.25030981E-05
   4.81320000      -9.28538939E-05
   4.82520008      -9.30689057E-05
   4.83720016      -9.31301402E-05
   4.84919977      -9.30185779E-05
   4.86119986      -9.27150904E-05
   4.87319994      -9.22014151E-05
   4.88520002      -9.14612974E-05
   4.89720011      -9.04815970E-05
   4.90920019      -8.92534736E-05
   4.92119980      -8.77734783E-05
   4.93319988      -8.60445434E-05
   4.94519997      -8.40767534E-05
   4.95720005      -8.18879125E-05
   4.96920013      -7.95037777E-05
   4.98120022      -7.69578692E-05
   4.99319983      -7.42909760E-05
   5.00519991      -7.15501737E-05
   5.01719999      -6.87874563E-05
   5.02920008      -6.60579608E-05
   5.04120016      -6.34179305E-05
   5.05319977      -6.09223753E-05
   5.06519985      -5.86225906E-05
   5.07719994      -5.65636401E-05
   5.08920002      -5.47819509E-05
   5.10120010      -5.33030652E-05
   5.11320019      -5.21397378E-05
   5.12519979      -5.12904626E-05
   5.13719988      -5.07385048E-05
   5.14919996      -5.04515519E-05
   5.16120005      -5.03819538E-05
   5.17320013      -5.04676427E-05
   5.18520021      -5.06336546E-05
   5.19719982      -5.07942568E-05
   5.20919991      -5.08555495E-05
   5.22119999      -5.07185214E-05
   5.23320007      -5.02823677E-05
   5.24520016      -4.94480009E-05
   5.25719976      -4.81215939E-05
   5.26919985      -4.62179851E-05
   5.28119993      -4.36639202E-05
   5.29320002      -4.04008460E-05
   5.30520010      -3.63873150E-05
   5.31720018      -3.16008118E-05
   5.32919979      -2.60389570E-05
   5.34119987      -1.97201007E-05
   5.35319996      -1.26832092E-05
   5.36520004      -4.98714144E-06
   5.37720013       3.29069780E-06
   5.38920021       1.20562563E-05
   5.40119982       2.12012001E-05
   5.41319990       3.06056609E-05
   5.42519999       4.01412617E-05
   5.43720007       4.96743342E-05
   5.44920015       5.90691852E-05
   5.46120024       6.81913298E-05
   5.47319984       7.69105900E-05
   5.48519993       8.51040168E-05
   5.49720001       9.26584617E-05
   5.50920010       9.94728398E-05
   5.52120018       1.05460029E-04
   5.53319979       1.10548332E-04
   5.54519987       1.14682502E-04
   5.55719995       1.17824413E-04
   5.56920004       1.19953227E-04
   5.58120012       1.21065299E-04
   5.59320021       1.21173580E-04
   5.60519981       1.20306831E-04
   5.61719990       1.18508440E-04
   5.62919998       1.15835042E-04
   5.64120007       1.12354974E-04
   5.65320015       1.08146509E-04
   5.66520023       1.03296028E-04
   5.67719984       9.78961107E-05
   5.68919992       9.20436796E-05
   5.70120001       8.58380881E-05
   5.71320009       7.93793733E-05
   5.72520018       7.27665974E-05
   5.73719978       6.60963633E-05
   5.74919987       5.94614321E-05
   5.76119995       5.29496428E-05
   5.77320004       4.66429447E-05
   5.78520012       4.06166619E-05
   5.79720020       3.49389666E-05
   5.80919981       2.96704766E-05
   5.82119989       2.48640627E-05
   5.83319998       2.05647229E-05
   5.84520006       1.68095685E-05
   5.85720015       1.36278732E-05
   5.86920023       1.10411256E-05
   5.88119984       9.06309651E-06
   5.89319992       7.69988219E-06
   5.90520000       6.94993332E-06
   5.91720009       6.80405128E-06
   5.92920017       7.24538313E-06
   5.94119978       8.24943618E-06
   5.95319986       9.78413118E-06
   5.96519995       1.18099379E-05
   5.97720003       1.42801264E-05
   5.98920012       1.71411666E-05
   6.00120020       2.03332820E-05
   6.01319981       2.37911991E-05
   6.02519989       2.74450886E-05
   6.03719997       3.12216616E-05
   6.04920006       3.50454357E-05
   6.06120014       3.88400986E-05
   6.07320023       4.25299622E-05
   6.08519983       4.60414558E-05
   6.09719992       4.93045445E-05
   6.10920000       5.22541050E-05
   6.12120008       5.48311909E-05
   6.13320017       5.69840849E-05
   6.14519978       5.86692258E-05
   6.15719986       5.98518491E-05
   6.16919994       6.05064743E-05
   6.18120003       6.06171197E-05
   6.19320011       6.01773281E-05
   6.20520020       5.91899661E-05
   6.21719980       5.76668572E-05
   6.22919989       5.56282321E-05
   6.24119997       5.31020705E-05
   6.25320005       5.01232753E-05
   6.26520014       4.67327736E-05
   6.27720022       4.29765496E-05
   6.28919983       3.89045999E-05
   6.30119991       3.45698427E-05
   6.31320000       3.00270531E-05
   6.32520008       2.53317339E-05
   6.33720016       2.05390807E-05
   6.34919977       1.57029535E-05
   6.36119986       1.08749527E-05
   6.37319994       6.10360757E-06
   6.38520002       1.43367117E-06
   6.39720011      -3.09441180E-06
   6.40920019      -7.44488625E-06
   6.42119980      -1.15868943E-05
   6.43319988      -1.54945283E-05
   6.44519997      -1.91467261E-05
   6.45720005      -2.25270578E-05
   6.46920013      -2.56233889E-05
   6.48120022      -2.84275193E-05
   6.49319983      -3.09347633E-05
   6.50519991      -3.31435622E-05
   6.51719999      -3.50551418E-05
   6.52920008      -3.66732129E-05
   6.54120016      -3.80037891E-05
   6.55319977      -3.90550667E-05
   6.56519985      -3.98374032E-05
   6.57719994      -4.03633276E-05
   6.58920002      -4.06476393E-05
   6.60120010      -4.07074513E-05
   6.61320019      -4.05622450E-05
   6.62519979      -4.02338264E-05
   6.63719988      -3.97462136E-05
   6.64919996      -3.91253816E-05
   6.66120005      -3.83989063E-05
   6.67320013      -3.75954914E-05
   6.68520021      -3.67443608E-05
   6.69719982      -3.58746292E-05
   6.70919991      -3.50145965E-05
   6.72119999      -3.41910563E-05
   6.73320007      -3.34286924E-05
   6.74520016      -3.27495000E-05
   6.75719976      -3.21723892E-05
   6.76919985      -3.17128906E-05
   6.78119993      -3.13830424E-05
   6.79320002      -3.11914046E-05
   6.80520010      -3.11432086E-05
   6.81720018      -3.12406301E-05
   6.82919979      -3.14830941E-05
   6.84119987      -3.18676211E-05
   6.85319996      -3.23891800E-05
   6.86520004      -3.30409675E-05
   6.87720013      -3.38146310E-05
   6.88920021      -3.47003988E-05
   6.90119982      -3.56871424E-05
   6.91319990      -3.67623325E-05
   6.92519999      -3.79119811E-05
   6.93720007      -3.91205285E-05
   6.94920015      -4.03707891E-05
   6.96120024      -4.16439216E-05
   6.97319984      -4.29195388E-05
   6.98519993      -4.41758893E-05
   6.99720001      -4.53902394E-05
   7.00920010      -4.65393532E-05
   7.02120018      -4.76001624E-05
   7.03319979      -4.85505225E-05
   7.04519987      -4.93700318E-05
   7.05719995      -5.00409151E-05
   7.06920004      -5.05488242E-05
   7.08120012      -5.08835874E-05
   7.09320021      -5.10397876E-05
   7.10519981      -5.10171412E-05
   7.11719990      -5.08206176E-05
   7.12919998      -5.04603413E-05
   7.14120007      -4.99511880E-05
   7.15320015      -4.93121152E-05
   7.16520023      -4.85653363E-05
   7.17719984      -4.77352551E-05
   7.18919992      -4.68473627E-05
   7.20120001      -4.59270232E-05
   7.21320009      -4.49983709E-05
   7.22520018      -4.40832882E-05
   7.23719978      -4.32005254E-05
   7.24919987      -4.23650890E-05
   7.26119995      -4.15878385E-05
   7.27320004      -4.08753658E-05
   7.28520012      -4.02301230E-05
   7.29720020      -3.96507821E-05
   7.30919981      -3.91327958E-05
   7.32119989      -3.86690735E-05
   7.33319998      -3.82507787E-05
   7.34520006      -3.78681107E-05
   7.35720015      -3.75110540E-05
   7.36920023      -3.71700335E-05
   7.38119984      -3.68364199E-05
   7.39319992      -3.65028645E-05
   7.40520000      -3.61634484E-05
   7.41720009      -3.58136349E-05
   7.42920017      -3.54500844E-05
   7.44119978      -3.50702903E-05
   7.45319986      -3.46722081E-05
   7.46519995      -3.42537678E-05
   7.47720003      -3.38124919E-05
   7.48920012      -3.33451608E-05
   7.50120020      -3.28476017E-05
   7.51319981      -3.23146487E-05
   7.52519989      -3.17402992E-05
   7.53719997      -3.11179974E-05
   7.54920006      -3.04411333E-05
   7.56120014      -2.97036368E-05
   7.57320023      -2.89006603E-05
   7.58519983      -2.80292661E-05
   7.59719992      -2.70891069E-05
   7.60920000      -2.60829856E-05
   7.62120008      -2.50172707E-05
   7.63320017      -2.39021247E-05
   7.64519978      -2.27514902E-05
   7.65719986      -2.15828513E-05
   7.66919994      -2.04167536E-05
   7.68120003      -1.92761054E-05
   7.69320011      -1.81853120E-05
   7.70520020      -1.71692736E-05
   7.71719980      -1.62523284E-05
   7.72919989      -1.54571862E-05
   7.74119997      -1.48039462E-05
   7.75320005      -1.43092248E-05
   7.76520014      -1.39854637E-05
   7.77720022      -1.38404603E-05
   7.78919983      -1.38771202E-05
   7.80119991      -1.40934490E-05
   7.81320000      -1.44827718E-05
   7.82520008      -1.50341448E-05
   7.83720016      -1.57329287E-05
   7.84919977      -1.65614656E-05
   7.86119986      -1.74998440E-05
   7.87319994      -1.85266490E-05
   7.88520002      -1.96197179E-05
   7.89720011      -2.07568137E-05
   7.90920019      -2.19162212E-05
   7.92119980      -2.30772384E-05
   7.93319988      -2.42205479E-05
   7.94519997      -2.53284979E-05
   7.95720005      -2.63852689E-05
   7.96920013      -2.73769656E-05
   7.98120022      -2.82916335E-05
   7.99319983      -2.91192391E-05
   8.00520039      -2.98516006E-05
   8.01720047      -3.04823116E-05
   8.02919960      -3.10066498E-05
   8.04119968      -3.14214703E-05
   8.05319977      -3.17250888E-05
   8.06519985      -3.19171850E-05
   8.07719994      -3.19986830E-05
   8.08920002      -3.19715982E-05
   8.10120010      -3.18389502E-05
   8.11320019      -3.16045844E-05
   8.12520027      -3.12731063E-05
   8.13720036      -3.08497511E-05
   8.14920044      -3.03403358E-05
   8.16119957      -2.97512670E-05
   8.17319965      -2.90895732E-05
   8.18519974      -2.83630361E-05
   8.19719982      -2.75803432E-05
   8.20919991      -2.67513096E-05
   8.22119999      -2.58871059E-05
   8.23320007      -2.50004832E-05
   8.24520016      -2.41059352E-05
   8.25720024      -2.32197926E-05
   8.26920033      -2.23601601E-05
   8.28120041      -2.15467189E-05
   8.29319954      -2.08003257E-05
   8.30519962      -2.01424136E-05
   8.31719971      -1.95942084E-05
   8.32919979      -1.91757772E-05
   8.34119987      -1.89049661E-05
   8.35319996      -1.87962705E-05
   8.36520004      -1.88597332E-05
   8.37720013      -1.90999544E-05
   8.38920021      -1.95152843E-05
   8.40120029      -2.00972936E-05
   8.41320038      -2.08305792E-05
   8.42520046      -2.16929584E-05
   8.43719959      -2.26560460E-05
   8.44919968      -2.36862434E-05
   8.46119976      -2.47460521E-05
   8.47319984      -2.57956854E-05
   8.48519993      -2.67948526E-05
   8.49720001      -2.77046347E-05
   8.50920010      -2.84893194E-05
   8.52120018      -2.91180750E-05
   8.53320026      -2.95663795E-05
   8.54520035      -2.98171090E-05
   8.55720043      -2.98611958E-05
   8.56919956      -2.96978706E-05
   8.58119965      -2.93344365E-05
   8.59319973      -2.87856401E-05
   8.60519981      -2.80726654E-05
   8.61719990      -2.72218585E-05
   8.62919998      -2.62632293E-05
   8.64120007      -2.52288810E-05
   8.65320015      -2.41514390E-05
   8.66520023      -2.30625756E-05
   8.67720032      -2.19917092E-05
   8.68920040      -2.09649370E-05
   8.70119953      -2.00042541E-05
   8.71319962      -1.91270374E-05
   8.72519970      -1.83458415E-05
   8.73719978      -1.76684225E-05
   8.74919987      -1.70980147E-05
   8.76119995      -1.66337468E-05
   8.77320004      -1.62712186E-05
   8.78520012      -1.60031268E-05
   8.79720020      -1.58199291E-05
   8.80920029      -1.57105078E-05
   8.82120037      -1.56627902E-05
   8.83320045      -1.56643237E-05
   8.84519958      -1.57027735E-05
   8.85719967      -1.57663835E-05
   8.86919975      -1.58443399E-05
   8.88119984      -1.59271040E-05
   8.89319992      -1.60066702E-05
   8.90520000      -1.60767813E-05
   8.91720009      -1.61330863E-05
   8.92920017      -1.61732296E-05
   8.94120026      -1.61968874E-05
   8.95320034      -1.62057077E-05
   8.96520042      -1.62031865E-05
   8.97719955      -1.61944336E-05
   8.98919964      -1.61858643E-05
   9.00119972      -1.61847929E-05
   9.01319981      -1.61989683E-05
   9.02519989      -1.62360520E-05
   9.03719997      -1.63030872E-05
   9.04920006      -1.64059766E-05
   9.06120014      -1.65490146E-05
   9.07320023      -1.67345152E-05
   9.08520031      -1.69625509E-05
   9.09720039      -1.72308555E-05
   9.10919952      -1.75348869E-05
   9.12119961      -1.78680493E-05
   9.13319969      -1.82221011E-05
   9.14519978      -1.85876852E-05
   9.15719986      -1.89549701E-05
   9.16919994      -1.93143496E-05
   9.18120003      -1.96571618E-05
   9.19320011      -1.99763708E-05
   9.20520020      -2.02671454E-05
   9.21720028      -2.05273118E-05
   9.22920036      -2.07576377E-05
   9.24120045      -2.09619084E-05
   9.25319958      -2.11468032E-05
   9.26519966      -2.13215681E-05
   9.27719975      -2.14974752E-05
   9.28919983      -2.16871467E-05
   9.30119991      -2.19037320E-05
   9.31320000      -2.21600203E-05
   9.32520008      -2.24675114E-05
   9.33720016      -2.28355257E-05
   9.34920025      -2.32703878E-05
   9.36120033      -2.37747390E-05
   9.37320042      -2.43470276E-05
   9.38519955      -2.49811983E-05
   9.39719963      -2.56666208E-05
   9.40919971      -2.63882612E-05
   9.42119980      -2.71270856E-05
   9.43319988      -2.78607167E-05
   9.44519997      -2.85642909E-05
