 -0.622799993       0.00000000    
 -0.610800028       0.00000000    
 -0.598800004       0.00000000    
 -0.586799979       0.00000000    
 -0.574800014       3.23342136E-19
 -0.562799990       2.70487047E-18
 -0.550800025       1.19054038E-17
 -0.538800001       3.57797570E-17
 -0.526799977       7.97153758E-17
 -0.514800012       1.31947166E-16
 -0.502799988       1.42448813E-16
 -0.490799993       9.63560444E-18
 -0.478799999      -4.00610876E-16
 -0.466800004      -1.18198164E-15
 -0.454800010      -2.26546352E-15
 -0.442799985      -3.29962638E-15
 -0.430799991      -3.63152205E-15
 -0.418799996      -2.49369570E-15
 -0.406800002       5.62405313E-16
 -0.394800007       5.08681359E-15
 -0.382800013       9.27218084E-15
 -0.370799989       9.98044946E-15
 -0.358799994       3.54651276E-15
 -0.346799999      -1.26409283E-14
 -0.334800005      -3.82260819E-14
 -0.322800010      -6.84985177E-14
 -0.310799986      -9.45226021E-14
 -0.298799992      -1.05434894E-13
 -0.286799997      -9.27378020E-14
 -0.274800003      -5.53602337E-14
 -0.262800008      -3.42180283E-15
 -0.250800014       4.14808433E-14
 -0.238800004       5.07620103E-14
 -0.226799995      -2.35378513E-15
 -0.214800000      -1.32226099E-13
 -0.202800006      -3.32340384E-13
 -0.190799996      -5.72993096E-13
 -0.178800002      -8.07418910E-13
 -0.166800007      -9.85616645E-13
 -0.154799998      -1.07183143E-12
 -0.142800003      -1.05949386E-12
 -0.130799994      -9.77529147E-13
 -0.118799999      -8.84608684E-13
 -0.106799997      -8.52337894E-13
  -9.48000029E-02  -9.42867854E-13
  -8.28000009E-02  -1.18907813E-12
  -7.07999989E-02  -1.58497965E-12
  -5.88000007E-02  -2.09023467E-12
  -4.67999987E-02  -2.64701108E-12
  -3.48000005E-02  -3.20205884E-12
  -2.28000004E-02  -3.72421798E-12
  -1.08000003E-02  -4.20895003E-12
   1.20000006E-03  -4.66667200E-12
   1.31999999E-02  -5.09880029E-12
   2.52000000E-02  -5.47172377E-12
   3.72000001E-02  -5.70171774E-12
   4.91999984E-02  -5.66165604E-12
   6.12000003E-02  -5.21362554E-12
   7.32000023E-02  -4.26220300E-12
   8.51999968E-02  -2.81424948E-12
   9.71999988E-02  -1.02558261E-12
  0.109200001       7.85241013E-13
  0.121200003       2.17003433E-12
  0.133200005       2.63424460E-12
  0.145199999       1.76017360E-12
  0.157199994      -6.53561515E-13
  0.169200003      -4.47034207E-12
  0.181199998      -9.14979550E-12
  0.193200007      -1.37714874E-11
  0.205200002      -1.71668842E-11
  0.217199996      -1.81544640E-11
  0.229200006      -1.58433162E-11
  0.241200000      -9.94211657E-12
  0.253199995      -9.91748784E-13
  0.265199989       9.56054593E-12
  0.277200013       1.95043530E-11
  0.289200008       2.62395453E-11
  0.301200002       2.73324419E-11
  0.313199997       2.11468516E-11
  0.325199991       7.40042489E-12
  0.337199986      -1.25112594E-11
  0.349200010      -3.55456463E-11
  0.361200005      -5.74483273E-11
  0.373199999      -7.35435185E-11
  0.385199994      -7.97335600E-11
  0.397199988      -7.34907760E-11
  0.409200013      -5.46045466E-11
  0.421200007      -2.54858426E-11
  0.433200002       9.07360211E-12
  0.445199996       4.26615965E-11
  0.457199991       6.83685469E-11
  0.469199985       8.00200323E-11
  0.481200010       7.32337038E-11
  0.493200004       4.60648325E-11
  0.505200028      -8.70942316E-13
  0.517199993      -6.47340861E-11
  0.529200017      -1.41016032E-10
  0.541199982      -2.23941365E-10
  0.553200006      -3.06313419E-10
  0.565199971      -3.78486770E-10
  0.577199996      -4.26359226E-10
  0.589200020      -4.28557329E-10
  0.601199985      -3.53283736E-10
  0.613200009      -1.55502194E-10
  0.625199974       2.24800220E-10
  0.637199998       8.62696581E-10
  0.649200022       1.84651483E-09
  0.661199987       3.27442273E-09
  0.673200011       5.25027977E-09
  0.685199976       7.88013743E-09
  0.697200000       1.12711751E-08
  0.709200025       1.55350435E-08
  0.721199989       2.07975006E-08
  0.733200014       2.72159753E-08
  0.745199978       3.50061882E-08
  0.757200003       4.44785577E-08
  0.769200027       5.60844349E-08
  0.781199992       7.04719838E-08
  0.793200016       8.85508058E-08
  0.805199981       1.11564475E-07
  0.817200005       1.41169608E-07
  0.829200029       1.79519802E-07
  0.841199994       2.29352935E-07
  0.853200018       2.94079996E-07
  0.865199983       3.77872794E-07
  0.877200007       4.85748842E-07
  0.889199972       6.23650465E-07
  0.901199996       7.98514463E-07
  0.913200021       1.01833029E-06
  0.925199986       1.29218188E-06
  0.937200010       1.63026982E-06
  0.949199975       2.04390881E-06
  0.961199999       2.54549832E-06
  0.973200023       3.14845852E-06
  0.985199988       3.86713236E-06
  0.997200012       4.71664634E-06
   1.00919998       5.71273040E-06
   1.02119994       6.87149395E-06
   1.03320003       8.20916193E-06
   1.04519999       9.74176601E-06
   1.05719995       1.14848090E-05
   1.06920004       1.34528955E-05
   1.08120000       1.56593414E-05
   1.09319997       1.81157775E-05
   1.10520005       2.08317761E-05
   1.11720002       2.38144657E-05
   1.12919998       2.70682121E-05
   1.14119995       3.05943358E-05
   1.15320003       3.43909087E-05
   1.16520000       3.84526247E-05
   1.17719996       4.27707564E-05
   1.18920004       4.73332439E-05
   1.20120001       5.21248476E-05
   1.21319997       5.71274395E-05
   1.22520006       6.23203814E-05
   1.23720002       6.76809796E-05
   1.24919999       7.31850305E-05
   1.26119995       7.88073958E-05
   1.27320004       8.45226314E-05
   1.28520000       9.03055698E-05
   1.29719996       9.61319456E-05
   1.30920005       1.01978905E-04
   1.32120001       1.07825501E-04
   1.33319998       1.13653063E-04
   1.34519994       1.19445525E-04
   1.35720003       1.25189617E-04
   1.36919999       1.30874992E-04
   1.38119996       1.36494273E-04
   1.39320004       1.42043049E-04
   1.40520000       1.47519750E-04
   1.41719997       1.52925582E-04
   1.42920005       1.58264433E-04
   1.44120002       1.63542674E-04
   1.45319998       1.68769053E-04
   1.46519995       1.73954497E-04
   1.47720003       1.79111870E-04
   1.48920000       1.84255725E-04
   1.50119996       1.89401937E-04
   1.51320004       1.94567096E-04
   1.52520001       1.99767936E-04
   1.53719997       2.05020435E-04
   1.54920006       2.10338680E-04
   1.56120002       2.15733569E-04
   1.57319999       2.21211361E-04
   1.58519995       2.26771779E-04
   1.59720004       2.32406164E-04
   1.60920000       2.38095483E-04
   1.62119997       2.43808056E-04
   1.63320005       2.49497709E-04
   1.64520001       2.55101651E-04
   1.65719998       2.60538916E-04
   1.66919994       2.65708921E-04
   1.68120003       2.70490651E-04
   1.69319999       2.74742197E-04
   1.70519996       2.78301159E-04
   1.71720004       2.80985754E-04
   1.72920001       2.82596477E-04
   1.74119997       2.82919063E-04
   1.75320005       2.81727669E-04
   1.76520002       2.78789579E-04
   1.77719998       2.73870188E-04
   1.78919995       2.66739051E-04
   1.80120003       2.57176318E-04
   1.81320000       2.44979747E-04
   1.82519996       2.29972051E-04
   1.83720005       2.12008192E-04
   1.84920001       1.90982697E-04
   1.86119998       1.66836253E-04
   1.87320006       1.39561947E-04
   1.88520002       1.09210356E-04
   1.89719999       7.58933893E-05
   1.90919995       3.97868243E-05
   1.92120004       1.13110036E-06
   1.93320000      -3.97696313E-05
   1.94519997      -8.25503303E-05
   1.95720005      -1.26789717E-04
   1.96920002      -1.72016735E-04
   1.98119998      -2.17718800E-04
   1.99319994      -2.63351365E-04
   2.00519991      -3.08348914E-04
   2.01719999      -3.52136616E-04
   2.02920008      -3.94142873E-04
   2.04119992      -4.33811889E-04
   2.05320001      -4.70616069E-04
   2.06520009      -5.04068041E-04
   2.07719994      -5.33731421E-04
   2.08920002      -5.59230743E-04
   2.10120010      -5.80259773E-04
   2.11319995      -5.96587546E-04
   2.12520003      -6.08063361E-04
   2.13720012      -6.14618941E-04
   2.14919996      -6.16268895E-04
   2.16120005      -6.13109092E-04
   2.17319989      -6.05312816E-04
   2.18519998      -5.93125238E-04
   2.19720006      -5.76856080E-04
   2.20919991      -5.56871004E-04
   2.22119999      -5.33581944E-04
   2.23320007      -5.07436343E-04
   2.24519992      -4.78906062E-04
   2.25720000      -4.48476087E-04
   2.26920009      -4.16633848E-04
   2.28119993      -3.83858423E-04
   2.29320002      -3.50611139E-04
   2.30520010      -3.17327154E-04
   2.31719995      -2.84408423E-04
   2.32920003      -2.52218015E-04
   2.34120011      -2.21076174E-04
   2.35319996      -1.91257976E-04
   2.36520004      -1.62992525E-04
   2.37719989      -1.36463539E-04
   2.38919997      -1.11811336E-04
   2.40120006      -8.91357267E-05
   2.41319990      -6.84998231E-05
   2.42519999      -4.99342532E-05
   2.43720007      -3.34417346E-05
   2.44919991      -1.90014871E-05
   2.46120000      -6.57344208E-06
   2.47320008       3.89802017E-06
   2.48519993       1.24810012E-05
   2.49720001       1.92536827E-05
   2.50920010       2.43026898E-05
   2.52119994       2.77221479E-05
   2.53320003       2.96133603E-05
   2.54520011       3.00849351E-05
   2.55719995       2.92532404E-05
   2.56920004       2.72429061E-05
   2.58119988       2.41872913E-05
   2.59319997       2.02286119E-05
   2.60520005       1.55176549E-05
   2.61719990       1.02129106E-05
   2.62919998       4.47905995E-06
   2.64120007      -1.51520112E-06
   2.65319991      -7.59996237E-06
   2.66520000      -1.36074468E-05
   2.67720008      -1.93757533E-05
   2.68919992      -2.47528351E-05
   2.70120001      -2.96005110E-05
   2.71320009      -3.37982710E-05
   2.72519994      -3.72467184E-05
   2.73720002      -3.98704033E-05
   2.74920011      -4.16199109E-05
   2.76119995      -4.24730715E-05
   2.77320004      -4.24352111E-05
   2.78520012      -4.15384238E-05
   2.79719996      -3.98398915E-05
   2.80920005      -3.74192605E-05
   2.82119989      -3.43753127E-05
   2.83319998      -3.08219096E-05
   2.84520006      -2.68835320E-05
   2.85719991      -2.26905431E-05
   2.86919999      -1.83743377E-05
   2.88120008      -1.40626789E-05
   2.89319992      -9.87530530E-06
   2.90520000      -5.92006609E-06
   2.91720009      -2.28968088E-06
   2.92919993       9.40735163E-07
   2.94120002       3.71530064E-06
   2.95320010       5.99812256E-06
   2.96519995       7.77316382E-06
   2.97720003       9.04326225E-06
   2.98920012       9.82838719E-06
   3.00119996       1.01632377E-05
   3.01320004       1.00943325E-05
   3.02519989       9.67675351E-06
   3.03719997       8.97072186E-06
   3.04920006       8.03820603E-06
   3.06119990       6.93971469E-06
   3.07319999       5.73147645E-06
   3.08520007       4.46310878E-06
   3.09719992       3.17590138E-06
   3.10920000       1.90177650E-06
   3.12120008       6.62934099E-07
   3.13319993      -5.27842587E-07
   3.14520001      -1.66629866E-06
   3.15720010      -2.75534808E-06
   3.16919994      -3.80339088E-06
   3.18120003      -4.82246787E-06
   3.19320011      -5.82641860E-06
   3.20519996      -6.82919017E-06
   3.21720004      -7.84345139E-06
   3.22919989      -8.87957322E-06
   3.24119997      -9.94506536E-06
   3.25320005      -1.10444480E-05
   3.26519990      -1.21795438E-05
   3.27719998      -1.33500935E-05
   3.28920007      -1.45546064E-05
   3.30119991      -1.57913055E-05
   3.31320000      -1.70590447E-05
   3.32520008      -1.83580778E-05
   3.33719993      -1.96905767E-05
   3.34920001      -2.10608250E-05
   3.36120009      -2.24750620E-05
   3.37319994      -2.39409910E-05
   3.38520002      -2.54669831E-05
   3.39720011      -2.70610599E-05
   3.40919995      -2.87297571E-05
   3.42120004      -3.04769710E-05
   3.43319988      -3.23029053E-05
   3.44519997      -3.42031817E-05
   3.45720005      -3.61682251E-05
   3.46919990      -3.81829668E-05
   3.48119998      -4.02268197E-05
   3.49320006      -4.22739795E-05
   3.50519991      -4.42940036E-05
   3.51719999      -4.62525713E-05
   3.52920008      -4.81124225E-05
   3.54119992      -4.98343325E-05
   3.55320001      -5.13781670E-05
   3.56520009      -5.27039338E-05
   3.57719994      -5.37727719E-05
   3.58920002      -5.45479634E-05
   3.60120010      -5.49959150E-05
   3.61319995      -5.50871555E-05
   3.62520003      -5.47974050E-05
   3.63720012      -5.41086665E-05
   3.64919996      -5.30104189E-05
   3.66120005      -5.15008287E-05
   3.67319989      -4.95879503E-05
   3.68519998      -4.72908760E-05
   3.69720006      -4.46406484E-05
   3.70919991      -4.16809125E-05
   3.72119999      -3.84680789E-05
   3.73320007      -3.50709633E-05
   3.74519992      -3.15697289E-05
   3.75720000      -2.80541099E-05
   3.76920009      -2.46208983E-05
   3.78119993      -2.13707171E-05
   3.79320002      -1.84042001E-05
   3.80520010      -1.58177354E-05
   3.81719995      -1.36990120E-05
   3.82920003      -1.21226158E-05
   3.84120011      -1.11459394E-05
   3.85319996      -1.08057202E-05
   3.86520004      -1.11154359E-05
   3.87719989      -1.20637906E-05
   3.88919997      -1.36144245E-05
   3.90120006      -1.57069426E-05
   3.91319990      -1.82592248E-05
   3.92519999      -2.11709194E-05
   3.93720007      -2.43279555E-05
   3.94919991      -2.76077662E-05
   3.96120000      -3.08849558E-05
   3.97320008      -3.40370352E-05
   3.98519993      -3.69498703E-05
   3.99720001      -3.95225543E-05
   4.00920010      -4.16713701E-05
   4.02120018      -4.33326677E-05
   4.03319979      -4.44645120E-05
   4.04519987      -4.50470470E-05
   4.05719995      -4.50816515E-05
   4.06920004      -4.45890146E-05
   4.08120012      -4.36063201E-05
   4.09320021      -4.21838122E-05
   4.10519981      -4.03810336E-05
   4.11719990      -3.82629551E-05
   4.12919998      -3.58963734E-05
   4.14120007      -3.33466814E-05
   4.15320015      -3.06752772E-05
   4.16520023      -2.79376254E-05
   4.17719984      -2.51821129E-05
   4.18919992      -2.24495452E-05
   4.20120001      -1.97733098E-05
   4.21320009      -1.71800148E-05
   4.22520018      -1.46904849E-05
   4.23719978      -1.23209384E-05
   4.24919987      -1.00841880E-05
   4.26119995      -7.99075315E-06
   4.27320004      -6.04976822E-06
   4.28520012      -4.26962288E-06
   4.29720020      -2.65831432E-06
   4.30919981      -1.22352264E-06
   4.32119989       2.75458678E-08
   4.33319998       1.08849224E-06
   4.34520006       1.95415100E-06
   4.35720015       2.62104641E-06
   4.36920023       3.08778976E-06
   4.38119984       3.35538448E-06
   4.39319992       3.42739850E-06
   4.40520000       3.30997841E-06
   4.41720009       3.01172554E-06
   4.42920017       2.54344241E-06
   4.44119978       1.91778872E-06
   4.45319986       1.14887996E-06
   4.46519995       2.51867561E-07
   4.47720003      -7.57461237E-07
   4.48920012      -1.86304771E-06
   4.50120020      -3.04885521E-06
   4.51319981      -4.29910278E-06
   4.52519989      -5.59842101E-06
   4.53719997      -6.93194761E-06
   4.54920006      -8.28536668E-06
   4.56120014      -9.64491210E-06
   4.57320023      -1.09973425E-05
   4.58519983      -1.23298978E-05
   4.59719992      -1.36302633E-05
   4.60920000      -1.48865292E-05
   4.62120008      -1.60871805E-05
   4.63320017      -1.72210948E-05
   4.64519978      -1.82775948E-05
   4.65719986      -1.92465195E-05
   4.66919994      -2.01183684E-05
   4.68120003      -2.08845013E-05
   4.69320011      -2.15374184E-05
   4.70520020      -2.20711245E-05
   4.71719980      -2.24815758E-05
   4.72919989      -2.27672208E-05
   4.74119997      -2.29295874E-05
   4.75320005      -2.29739035E-05
   4.76520014      -2.29097204E-05
   4.77720022      -2.27514302E-05
   4.78919983      -2.25186759E-05
   4.80119991      -2.22365306E-05
   4.81320000      -2.19354206E-05
   4.82520008      -2.16507106E-05
   4.83720016      -2.14219490E-05
   4.84919977      -2.12917221E-05
   4.86119986      -2.13041640E-05
   4.87319994      -2.15031578E-05
   4.88520002      -2.19302983E-05
   4.89720011      -2.26227294E-05
   4.90920019      -2.36109681E-05
   4.92119980      -2.49168661E-05
   4.93319988      -2.65518247E-05
   4.94519997      -2.85154238E-05
   4.95720005      -3.07945447E-05
   4.96920013      -3.33630960E-05
   4.98120022      -3.61823877E-05
   4.99319983      -3.92021138E-05
   5.00519991      -4.23619567E-05
   5.01719999      -4.55936570E-05
   5.02920008      -4.88235310E-05
   5.04120016      -5.19751593E-05
   5.05319977      -5.49721844E-05
   5.06519985      -5.77410283E-05
   5.07719994      -6.02133550E-05
   5.08920002      -6.23281958E-05
   5.10120010      -6.40336148E-05
   5.11320019      -6.52879025E-05
   5.12519979      -6.60602091E-05
   5.13719988      -6.63307801E-05
   5.14919996      -6.60906808E-05
   5.16120005      -6.53412862E-05
   5.17320013      -6.40934741E-05
   5.18520021      -6.23667511E-05
   5.19719982      -6.01883257E-05
   5.20919991      -5.75922713E-05
   5.22119999      -5.46188166E-05
   5.23320007      -5.13137784E-05
   5.24520016      -4.77281392E-05
   5.25719976      -4.39177384E-05
   5.26919985      -3.99430137E-05
   5.28119993      -3.58687066E-05
   5.29320002      -3.17634585E-05
   5.30520010      -2.76991850E-05
   5.31720018      -2.37502227E-05
   5.32919979      -1.99921451E-05
   5.34119987      -1.65002730E-05
   5.35319996      -1.33479043E-05
   5.36520004      -1.06043199E-05
   5.37720013      -8.33264494E-06
   5.38920021      -6.58768431E-06
   5.40119982      -5.41386726E-06
   5.41319990      -4.84340308E-06
   5.42519999      -4.89478089E-06
   5.43720007      -5.57172143E-06
   5.44920015      -6.86265275E-06
   5.46120024      -8.74074249E-06
   5.47319984      -1.11645222E-05
   5.48519993      -1.40790698E-05
   5.49720001      -1.74176857E-05
   5.50920010      -2.11039987E-05
   5.52120018      -2.50543726E-05
   5.53319979      -2.91805154E-05
   5.54519987      -3.33921671E-05
   5.55719995      -3.75997297E-05
   5.56920004      -4.17167685E-05
   5.58120012      -4.56622693E-05
   5.59320021      -4.93626030E-05
   5.60519981      -5.27531774E-05
   5.61719990      -5.57796848E-05
   5.62919998      -5.83990441E-05
   5.64120007      -6.05799141E-05
   5.65320015      -6.23029482E-05
   5.66520023      -6.35606411E-05
   5.67719984      -6.43569656E-05
   5.68919992      -6.47066772E-05
   5.70120001      -6.46344197E-05
   5.71320009      -6.41735533E-05
   5.72520018      -6.33648306E-05
   5.73719978      -6.22549196E-05
   5.74919987      -6.08947012E-05
   5.76119995      -5.93375553E-05
   5.77320004      -5.76375205E-05
   5.78520012      -5.58474931E-05
   5.79720020      -5.40174515E-05
   5.80919981      -5.21928341E-05
   5.82119989      -5.04131131E-05
   5.83319998      -4.87106481E-05
   5.84520006      -4.71098792E-05
   5.85720015      -4.56269299E-05
   5.86920023      -4.42696219E-05
   5.88119984      -4.30379332E-05
   5.89319992      -4.19248572E-05
   5.90520000      -4.09176428E-05
   5.91720009      -3.99992932E-05
   5.92920017      -3.91502726E-05
   5.94119978      -3.83502338E-05
   5.95319986      -3.75797536E-05
   5.96519995      -3.68218170E-05
   5.97720003      -3.60630947E-05
   5.98920012      -3.52948009E-05
   6.00120020      -3.45131957E-05
   6.01319981      -3.37196470E-05
   6.02519989      -3.29202958E-05
   6.03719997      -3.21253865E-05
   6.04920006      -3.13483288E-05
   6.06120014      -3.06045986E-05
   6.07320023      -2.99105723E-05
   6.08519983      -2.92824170E-05
   6.09719992      -2.87350886E-05
   6.10920000      -2.82815563E-05
   6.12120008      -2.79322740E-05
   6.13320017      -2.76949013E-05
   6.14519978      -2.75743041E-05
   6.15719986      -2.75727652E-05
   6.16919994      -2.76903556E-05
   6.18120003      -2.79254164E-05
   6.19320011      -2.82750680E-05
   6.20520020      -2.87356706E-05
   6.21719980      -2.93032172E-05
   6.22919989      -2.99735912E-05
   6.24119997      -3.07426999E-05
   6.25320005      -3.16064652E-05
   6.26520014      -3.25607180E-05
   6.27720022      -3.36009907E-05
   6.28919983      -3.47223213E-05
   6.30119991      -3.59189908E-05
   6.31320000      -3.71843671E-05
   6.32520008      -3.85107487E-05
   6.33720016      -3.98893135E-05
   6.34919977      -4.13101188E-05
   6.36119986      -4.27621708E-05
   6.37319994      -4.42334858E-05
   6.38520002      -4.57112365E-05
   6.39720011      -4.71817948E-05
   6.40920019      -4.86307981E-05
   6.42119980      -5.00431706E-05
   6.43319988      -5.14030835E-05
   6.44519997      -5.26939148E-05
   6.45720005      -5.38982567E-05
   6.46920013      -5.49979050E-05
   6.48120022      -5.59740220E-05
   6.49319983      -5.68073738E-05
   6.50519991      -5.74787191E-05
   6.51719999      -5.79694206E-05
   6.52920008      -5.82621433E-05
   6.54120016      -5.83417532E-05
   6.55319977      -5.81962522E-05
   6.56519985      -5.78177860E-05
   6.57719994      -5.72035533E-05
   6.58920002      -5.63566318E-05
   6.60120010      -5.52865495E-05
   6.61320019      -5.40096335E-05
   6.62519979      -5.25489631E-05
   6.63719988      -5.09340571E-05
   6.64919996      -4.92001418E-05
   6.66120005      -4.73871405E-05
   6.67320013      -4.55384070E-05
   6.68520021      -4.36992195E-05
   6.69719982      -4.19152238E-05
   6.70919991      -4.02308033E-05
   6.72119999      -3.86875472E-05
   6.73320007      -3.73228613E-05
   6.74520016      -3.61687598E-05
   6.75719976      -3.52509669E-05
   6.76919985      -3.45882618E-05
   6.78119993      -3.41921332E-05
   6.79320002      -3.40667393E-05
   6.80520010      -3.42091007E-05
   6.81720018      -3.46095003E-05
   6.82919979      -3.52520765E-05
   6.84119987      -3.61155071E-05
   6.85319996      -3.71737879E-05
   6.86520004      -3.83970291E-05
   6.87720013      -3.97522999E-05
   6.88920021      -4.12044537E-05
   6.90119982      -4.27169507E-05
   6.91319990      -4.42527344E-05
   6.92519999      -4.57750175E-05
   6.93720007      -4.72481697E-05
   6.94920015      -4.86385179E-05
   6.96120024      -4.99151683E-05
   6.97319984      -5.10507634E-05
   6.98519993      -5.20221729E-05
   6.99720001      -5.28110504E-05
   7.00920010      -5.34042701E-05
   7.02120018      -5.37941742E-05
   7.03319979      -5.39785906E-05
   7.04519987      -5.39606663E-05
   7.05719995      -5.37484557E-05
   7.06920004      -5.33542916E-05
   7.08120012      -5.27939919E-05
   7.09320021      -5.20859321E-05
   7.10519981      -5.12500374E-05
   7.11719990      -5.03067895E-05
   7.12919998      -4.92762883E-05
   7.14120007      -4.81774696E-05
   7.15320015      -4.70275227E-05
   7.16520023      -4.58415416E-05
   7.17719984      -4.46324375E-05
   7.18919992      -4.34111316E-05
   7.20120001      -4.21869772E-05
   7.21320009      -4.09683234E-05
   7.22520018      -3.97632502E-05
   7.23719978      -3.85803178E-05
   7.24919987      -3.74292322E-05
   7.26119995      -3.63214385E-05
   7.27320004      -3.52704446E-05
   7.28520012      -3.42919557E-05
   7.29720020      -3.34036413E-05
   7.30919981      -3.26246736E-05
   7.32119989      -3.19749452E-05
   7.33319998      -3.14740719E-05
   7.34520006      -3.11402255E-05
   7.35720015      -3.09889037E-05
   7.36920023      -3.10317009E-05
   7.38119984      -3.12751981E-05
   7.39319992      -3.17200720E-05
   7.40520000      -3.23604945E-05
   7.41720009      -3.31838601E-05
   7.42920017      -3.41709238E-05
   7.44119978      -3.52962888E-05
   7.45319986      -3.65292617E-05
   7.46519995      -3.78350378E-05
   7.47720003      -3.91760768E-05
   7.48920012      -4.05136489E-05
   7.50120020      -4.18094205E-05
   7.51319981      -4.30269756E-05
   7.52519989      -4.41331977E-05
   7.53719997      -4.50994521E-05
   7.54920006      -4.59024341E-05
   7.56120014      -4.65247576E-05
   7.57320023      -4.69551960E-05
   7.58519983      -4.71885833E-05
   7.59719992      -4.72254615E-05
   7.60920000      -4.70714949E-05
   7.62120008      -4.67367208E-05
   7.63320017      -4.62346725E-05
   7.64519978      -4.55815207E-05
   7.65719986      -4.47952480E-05
   7.66919994      -4.38948991E-05
   7.68120003      -4.28999920E-05
   7.69320011      -4.18300551E-05
   7.70520020      -4.07044026E-05
   7.71719980      -3.95419847E-05
   7.72919989      -3.83614133E-05
   7.74119997      -3.71810675E-05
   7.75320005      -3.60192353E-05
   7.76520014      -3.48942558E-05
   7.77720022      -3.38245736E-05
   7.78919983      -3.28287388E-05
   7.80119991      -3.19252504E-05
   7.81320000      -3.11322583E-05
   7.82520008      -3.04671539E-05
   7.83720016      -2.99460044E-05
   7.84919977      -2.95829250E-05
   7.86119986      -2.93893827E-05
   7.87319994      -2.93734865E-05
   7.88520002      -2.95393493E-05
   7.89720011      -2.98865325E-05
   7.90920019      -3.04096320E-05
   7.92119980      -3.10980795E-05
   7.93319988      -3.19361461E-05
   7.94519997      -3.29032046E-05
   7.95720005      -3.39742473E-05
   7.96920013      -3.51206181E-05
   7.98120022      -3.63110194E-05
   7.99319983      -3.75126401E-05
   8.00520039      -3.86924185E-05
   8.01720047      -3.98184093E-05
   8.02919960      -4.08610722E-05
   8.04119968      -4.17945230E-05
   8.05319977      -4.25976068E-05
   8.06519985      -4.32547313E-05
   8.07719994      -4.37564559E-05
   8.08920002      -4.40997173E-05
   8.10120010      -4.42877390E-05
   8.11320019      -4.43295903E-05
   8.12520027      -4.42394230E-05
   8.13720036      -4.40354415E-05
   8.14920044      -4.37386698E-05
   8.16119957      -4.33715577E-05
   8.17319965      -4.29565989E-05
   8.18519974      -4.25149701E-05
   8.19719982      -4.20653523E-05
   8.20919991      -4.16229668E-05
   8.22119999      -4.11989313E-05
   8.23320007      -4.07999469E-05
   8.24520016      -4.04283855E-05
   8.25720024      -4.00826757E-05
   8.26920033      -3.97580698E-05
   8.28120041      -3.94475901E-05
   8.29319954      -3.91431859E-05
   8.30519962      -3.88369263E-05
   8.31719971      -3.85221574E-05
   8.32919979      -3.81945065E-05
   8.34119987      -3.78526747E-05
   8.35319996      -3.74988995E-05
   8.36520004      -3.71391034E-05
   8.37720013      -3.67826688E-05
   8.38920021      -3.64418775E-05
   8.40120029      -3.61310376E-05
   8.41320038      -3.58654142E-05
   8.42520046      -3.56599849E-05
   8.43719959      -3.55281772E-05
   8.44919968      -3.54806652E-05
   8.46119976      -3.55243646E-05
   8.47319984      -3.56616256E-05
   8.48519993      -3.58898142E-05
   8.49720001      -3.62012070E-05
   8.50920010      -3.65832748E-05
   8.52120018      -3.70193011E-05
   8.53320026      -3.74893280E-05
   8.54520035      -3.79713128E-05
   8.55720043      -3.84424420E-05
   8.56919956      -3.88805238E-05
   8.58119965      -3.92653092E-05
   8.59319973      -3.95797215E-05
   8.60519981      -3.98108532E-05
   8.61719990      -3.99507044E-05
   8.62919998      -3.99966157E-05
   8.64120007      -3.99513374E-05
   8.65320015      -3.98227785E-05
   8.66520023      -3.96234573E-05
   8.67720032      -3.93696646E-05
   8.68920040      -3.90804125E-05
   8.70119953      -3.87762993E-05
   8.71319962      -3.84782688E-05
   8.72519970      -3.82064063E-05
   8.73719978      -3.79788326E-05
   8.74919987      -3.78107470E-05
   8.76119995      -3.77136748E-05
   8.77320004      -3.76949502E-05
   8.78520012      -3.77574543E-05
   8.79720020      -3.78996374E-05
   8.80920029      -3.81157297E-05
   8.82120037      -3.83962361E-05
   8.83320045      -3.87285836E-05
   8.84519958      -3.90978967E-05
   8.85719967      -3.94878480E-05
   8.86919975      -3.98815646E-05
   8.88119984      -4.02624537E-05
   8.89319992      -4.06149738E-05
   8.90520000      -4.09252752E-05
   8.91720009      -4.11816873E-05
   8.92920017      -4.13749985E-05
   8.94120026      -4.14986171E-05
   8.95320034      -4.15485119E-05
   8.96520042      -4.15230352E-05
   8.97719955      -4.14226524E-05
   8.98919964      -4.12495938E-05
   9.00119972      -4.10075081E-05
   9.01319981      -4.07011466E-05
   9.02519989      -4.03361119E-05
   9.03719997      -3.99187011E-05
   9.04920006      -3.94558592E-05
   9.06120014      -3.89552042E-05
   9.07320023      -3.84251725E-05
   9.08520031      -3.78751720E-05
   9.09720039      -3.73157563E-05
   9.10919952      -3.67587527E-05
   9.12119961      -3.62173014E-05
   9.13319969      -3.57057725E-05
   9.14519978      -3.52395327E-05
   9.15719986      -3.48345420E-05
   9.16919994      -3.45068111E-05
   9.18120003      -3.42717212E-05
   9.19320011      -3.41432533E-05
   9.20520020      -3.41332270E-05
   9.21720028      -3.42505300E-05
   9.22920036      -3.45004955E-05
   9.24120045      -3.48844587E-05
   9.25319958      -3.53995092E-05
   9.26519966      -3.60385420E-05
   9.27719975      -3.67905704E-05
   9.28919983      -3.76412972E-05
   9.30119991      -3.85739440E-05
   9.31320000      -3.95702264E-05
   9.32520008      -4.06114341E-05
   9.33720016      -4.16795265E-05
   9.34920025      -4.27581144E-05
   9.36120033      -4.38333045E-05
   9.37320042      -4.48942628E-05
   9.38519955      -4.59334551E-05
   9.39719963      -4.69465922E-05
   9.40919971      -4.79321825E-05
   9.42119980      -4.88908117E-05
   9.43319988      -4.98241679E-05
   9.44519997      -5.07338955E-05
