 -0.622799993       0.00000000    
 -0.610800028       0.00000000    
 -0.598800004       0.00000000    
 -0.586799979       0.00000000    
 -0.574800014       0.00000000    
 -0.562799990       0.00000000    
 -0.550800025       0.00000000    
 -0.538800001       0.00000000    
 -0.526799977       0.00000000    
 -0.514800012       0.00000000    
 -0.502799988      -2.41819139E-34
 -0.490799993      -3.85522107E-33
 -0.478799999      -3.20000096E-32
 -0.466800004      -1.85133260E-31
 -0.454800010      -8.40068636E-31
 -0.442799985      -3.16734828E-30
 -0.430799991      -1.01722195E-29
 -0.418799996      -2.78805232E-29
 -0.406800002      -6.39299866E-29
 -0.394800007      -1.15792397E-28
 -0.382800013      -1.36760225E-28
 -0.370799989       1.89143503E-29
 -0.358799994       6.04869451E-28
 -0.346799999       1.72489791E-27
 -0.334800005       2.37849036E-27
 -0.322800010      -1.65662080E-27
 -0.310799986      -2.08979931E-26
 -0.298799992      -7.38767067E-26
 -0.286799997      -1.81393561E-25
 -0.274800003      -3.43223790E-25
 -0.262800008      -4.87734554E-25
 -0.250800014      -3.98004165E-25
 -0.238800004       3.48524541E-25
 -0.226799995       2.33757768E-24
 -0.214800000       6.03597277E-24
 -0.202800006       1.11446277E-23
 -0.190799996       1.56078386E-23
 -0.178800002       1.46377101E-23
 -0.166800007       6.02350521E-25
 -0.154799998      -3.49503404E-23
 -0.142800003      -9.59324533E-23
 -0.130799994      -1.72913022E-22
 -0.118799999      -2.33209144E-22
 -0.106799997      -2.15660410E-22
  -9.48000029E-02  -3.89053514E-23
  -8.28000009E-02   3.67970770E-22
  -7.07999989E-02   1.00942450E-21
  -5.88000007E-02   1.75256085E-21
  -4.67999987E-02   2.27106032E-21
  -3.48000005E-02   2.05143882E-21
  -2.28000004E-02   5.13303738E-22
  -1.08000003E-02  -2.72792574E-21
   1.20000006E-03  -7.48574382E-21
   1.31999999E-02  -1.26311198E-20
   2.52000000E-02  -1.59272787E-20
   3.72000001E-02  -1.43102327E-20
   4.91999984E-02  -4.78893631E-21
   6.12000003E-02   1.40621900E-20
   7.32000023E-02   4.03628047E-20
   8.51999968E-02   6.76218988E-20
   9.71999988E-02   8.47537980E-20
  0.109200001       7.81820742E-20
  0.121200003       3.62448766E-20
  0.133200005      -4.48352442E-20
  0.145199999      -1.55240941E-19
  0.157199994      -2.68703935E-19
  0.169200003      -3.45035852E-19
  0.181199998      -3.39335931E-19
  0.193200007      -2.16815658E-19
  0.205200002       3.06415616E-20
  0.217199996       3.72225873E-19
  0.229200006       7.36517171E-19
  0.241200000       1.02410647E-18
  0.253199995       1.13318109E-18
  0.265199989       9.90673067E-19
  0.277200013       5.77198670E-19
  0.289200008      -6.58555450E-20
  0.301200002      -8.52514621E-19
  0.313199997      -1.68579233E-18
  0.325199991      -2.49060898E-18
  0.337199986      -3.22146751E-18
  0.349200010      -3.82581538E-18
  0.361200005      -4.16438537E-18
  0.373199999      -3.92105158E-18
  0.385199994      -2.56492495E-18
  0.397199988       5.60847222E-19
  0.409200013       5.97256621E-18
  0.421200007       1.36164401E-17
  0.433200002       2.23882273E-17
  0.445199996       2.98119929E-17
  0.457199991       3.21389016E-17
  0.469199985       2.50828326E-17
  0.481200010       5.24353885E-18
  0.493200004      -2.80054702E-17
  0.505200028      -7.06990873E-17
  0.517199993      -1.13302727E-16
  0.529200017      -1.41370950E-16
  0.541199982      -1.38357432E-16
  0.553200006      -9.04864982E-17
  0.565199971       7.22094926E-18
  0.577199996       1.45470510E-16
  0.589200020       2.97933939E-16
  0.601199985       4.23211145E-16
  0.613200009       4.72575193E-16
  0.625199974       4.02917506E-16
  0.637199998       1.92328942E-16
  0.649200022      -1.45959023E-16
  0.661199987      -5.56319593E-16
  0.673200011      -9.44493829E-16
  0.685199976      -1.19434261E-15
  0.697200000      -1.19591311E-15
  0.709200025      -8.79119191E-16
  0.721199989      -2.44166935E-16
  0.733200014       6.21214440E-16
  0.745199978       1.54583248E-15
  0.757200003       2.30372527E-15
  0.769200027       2.66409353E-15
  0.781199992       2.45214154E-15
  0.793200016       1.60549420E-15
  0.805199981       2.09679340E-16
  0.817200005      -1.50026804E-15
  0.829200029      -3.17711195E-15
  0.841199994      -4.43230488E-15
  0.853200018      -4.92515735E-15
  0.865199983      -4.44849380E-15
  0.877200007      -2.98821005E-15
  0.889199972      -7.39837910E-16
  0.901199996       1.92393031E-15
  0.913200021       4.52773881E-15
  0.925199986       6.59159600E-15
  0.937200010       7.72759423E-15
  0.949199975       7.71132442E-15
  0.961199999       6.51183429E-15
  0.973200023       4.27653383E-15
  0.985199988       1.28070355E-15
  0.997200012      -2.13887720E-15
   1.00919998      -5.64344553E-15
   1.02119994      -8.92657191E-15
   1.03320003      -1.17155922E-14
   1.04519999      -1.37458921E-14
   1.05719995      -1.47256220E-14
   1.06920004      -1.43146738E-14
   1.08120000      -1.21401666E-14
   1.09319997      -7.86120098E-15
   1.10520005      -1.28049306E-15
   1.11720002       7.51624681E-15
   1.12919998       1.80265044E-14
   1.14119995       2.92434940E-14
   1.15320003       3.96541117E-14
   1.16520000       4.73499312E-14
   1.17719996       5.02586864E-14
   1.18920004       4.64781717E-14
   1.20120001       3.46681641E-14
   1.21319997       1.44340055E-14
   1.22520006      -1.33756684E-14
   1.23720002      -4.65310841E-14
   1.24919999      -8.14966381E-14
   1.26119995      -1.13736291E-13
   1.27320004      -1.38220707E-13
   1.28520000      -1.50063691E-13
   1.29719996      -1.45185161E-13
   1.30920005      -1.20891592E-13
   1.32120001      -7.62888559E-14
   1.33319998      -1.24909187E-14
   1.34519994       6.73517570E-14
   1.35720003       1.58130141E-13
   1.36919999       2.52869557E-13
   1.38119996       3.42777185E-13
   1.39320004       4.17262714E-13
   1.40520000       4.64059834E-13
   1.41719997       4.69674917E-13
   1.42920005       4.20435008E-13
   1.44120002       3.04352518E-13
   1.45319998       1.13855919E-13
   1.46519995      -1.50840440E-13
   1.47720003      -4.78273562E-13
   1.48920000      -8.43008660E-13
   1.50119996      -1.20463513E-12
   1.51320004      -1.50939114E-12
   1.52520001      -1.69498931E-12
   1.53719997      -1.69865066E-12
   1.54920006      -1.46763309E-12
   1.56120002      -9.70830404E-13
   1.57319999      -2.09480477E-13
   1.58519995       7.75194091E-13
   1.59720004       1.89937432E-12
   1.60920000       3.04039151E-12
   1.62119997       4.04720268E-12
   1.63320005       4.75683902E-12
   1.64520001       5.01502442E-12
   1.65719998       4.69837320E-12
   1.66919994       3.73519011E-12
   1.68120003       2.12201242E-12
   1.69319999      -6.64714662E-14
   1.70519996      -2.67566524E-12
   1.71720004      -5.47807849E-12
   1.72920001      -8.18881248E-12
   1.74119997      -1.04884686E-11
   1.75320005      -1.20518691E-11
   1.76520002      -1.25805581E-11
   1.77719998      -1.18367720E-11
   1.78919995      -9.67627107E-12
   1.80120003      -6.07717609E-12
   1.81320000      -1.16173466E-12
   1.82519996       4.79210638E-12
   1.83720005       1.13522308E-11
   1.84920001       1.79492480E-11
   1.86119998       2.39099365E-11
   1.87320006       2.85069034E-11
   1.88520002       3.10223305E-11
   1.89719999       3.08217896E-11
   1.90919995       2.74324504E-11
   1.92120004       2.06185641E-11
   1.93320000       1.04464935E-11
   1.94519997      -2.66883586E-12
   1.95720005      -1.79435338E-11
   1.96920002      -3.42368529E-11
   1.98119998      -5.01004481E-11
   1.99319994      -6.38669742E-11
   2.00519991      -7.37768943E-11
   2.01719999      -7.81385998E-11
   2.02920008      -7.55121590E-11
   2.04119992      -6.49024307E-11
   2.05320001      -4.59426733E-11
   2.06520009      -1.90467225E-11
   2.07719994       1.44936493E-11
   2.08920002       5.24877815E-11
   2.10120010       9.19184381E-11
   2.11319995       1.29115912E-10
   2.12520003       1.60031655E-10
   2.13720012       1.80596399E-10
   2.14919996       1.87135765E-10
   2.16120005       1.76805251E-10
   2.17319989       1.47999779E-10
   2.18519998       1.00690463E-10
   2.19720006       3.66443507E-11
   2.20919991      -4.05084542E-11
   2.22119999      -1.25383579E-10
   2.23320007      -2.11133569E-10
   2.24519992      -2.89911456E-10
   2.25720000      -3.53478746E-10
   2.26920009      -3.93914845E-10
   2.28119993      -4.04373368E-10
   2.29320002      -3.79820869E-10
   2.30520010      -3.17692539E-10
   2.31719995      -2.18398161E-10
   2.32920003      -8.56203927E-11
   2.34120011       7.36427100E-11
   2.35319996       2.49321508E-10
   2.36520004       4.28816122E-10
   2.37719989       5.97821959E-10
   2.38919997       7.41401385E-10
   2.40120006       8.45237325E-10
   2.41319990       8.96981545E-10
   2.42519999       8.87592777E-10
   2.43720007       8.12543977E-10
   2.44919991       6.72778777E-10
   2.46120000       4.75298634E-10
   2.47320008       2.33279535E-10
   2.48519993      -3.43564864E-11
   2.49720001      -3.03956471E-10
   2.50920010      -5.48738111E-10
   2.52119994      -7.40928430E-10
   2.53320003      -8.54343818E-10
   2.54520011      -8.67263650E-10
   2.55719995      -7.65408681E-10
   2.56920004      -5.44798540E-10
   2.58119988      -2.14241541E-10
   2.59319997       2.02789216E-10
   2.60520005       6.67122857E-10
   2.61719990       1.12387577E-09
   2.62919998       1.50355495E-09
   2.64120007       1.72426784E-09
   2.65319991       1.69489911E-09
   2.66520000       1.31895650E-09
   2.67720008       4.98638353E-10
   2.68919992      -8.61478278E-10
   2.70120001      -2.85184831E-09
   2.71320009      -5.55726976E-09
   2.72519994      -9.05891628E-09
   2.73720002      -1.34398448E-08
   2.74920011      -1.87946139E-08
   2.76119995      -2.52434003E-08
   2.77320004      -3.29507230E-08
   2.78520012      -4.21484962E-08
   2.79719996      -5.31627009E-08
   2.80920005      -6.64425670E-08
   2.82119989      -8.25907165E-08
   2.83319998      -1.02392427E-07
   2.84520006      -1.26841684E-07
   2.85719991      -1.57161935E-07
   2.86919999      -1.94819094E-07
   2.88120008      -2.41524816E-07
   2.89319992      -2.99228248E-07
   2.90520000      -3.70095307E-07
   2.91720009      -4.56474595E-07
   2.92919993      -5.60850822E-07
   2.94120002      -6.85786574E-07
   2.95320010      -8.33853903E-07
   2.96519995      -1.00755972E-06
   2.97720003      -1.20926632E-06
   2.98920012      -1.44111266E-06
   3.00119996      -1.70493843E-06
   3.01320004      -2.00221552E-06
   3.02519989      -2.33399032E-06
   3.03719997      -2.70083797E-06
   3.04920006      -3.10283417E-06
   3.06119990      -3.53953988E-06
   3.07319999      -4.01000625E-06
   3.08520007      -4.51279357E-06
   3.09719992      -5.04600575E-06
   3.10920000      -5.60733406E-06
   3.12120008      -6.19411821E-06
   3.13319993      -6.80340463E-06
   3.14520001      -7.43201645E-06
   3.15720010      -8.07662036E-06
   3.16919994      -8.73379304E-06
   3.18120003      -9.40008431E-06
   3.19320011      -1.00720736E-05
   3.20519996      -1.07464230E-05
   3.21720004      -1.14199192E-05
   3.22919989      -1.20895129E-05
   3.24119997      -1.27523490E-05
   3.25320005      -1.34057946E-05
   3.26519990      -1.40474604E-05
   3.27719998      -1.46752182E-05
   3.28920007      -1.52872144E-05
   3.30119991      -1.58818821E-05
   3.31320000      -1.64579542E-05
   3.32520008      -1.70144576E-05
   3.33719993      -1.75507321E-05
   3.34920001      -1.80664174E-05
   3.36120009      -1.85614535E-05
   3.37319994      -1.90360734E-05
   3.38520002      -1.94907843E-05
   3.39720011      -1.99263541E-05
   3.40919995      -2.03437849E-05
   3.42120004      -2.07442899E-05
   3.43319988      -2.11292518E-05
   3.44519997      -2.15001983E-05
   3.45720005      -2.18587520E-05
   3.46919990      -2.22065974E-05
   3.48119998      -2.25454351E-05
   3.49320006      -2.28769532E-05
   3.50519991      -2.32027796E-05
   3.51719999      -2.35244461E-05
   3.52920008      -2.38433713E-05
   3.54119992      -2.41608213E-05
   3.55320001      -2.44778948E-05
   3.56520009      -2.47955177E-05
   3.57719994      -2.51144193E-05
   3.58920002      -2.54351417E-05
   3.60120010      -2.57580323E-05
   3.61319995      -2.60832621E-05
   3.62520003      -2.64108403E-05
   3.63720012      -2.67406213E-05
   3.64919996      -2.70723413E-05
   3.66120005      -2.74056347E-05
   3.67319989      -2.77400613E-05
   3.68519998      -2.80751319E-05
   3.69720006      -2.84103353E-05
   3.70919991      -2.87451658E-05
   3.72119999      -2.90791359E-05
   3.73320007      -2.94118036E-05
   3.74519992      -2.97427741E-05
   3.75720000      -3.00717184E-05
   3.76920009      -3.03983725E-05
   3.78119993      -3.07225382E-05
   3.79320002      -3.10440810E-05
   3.80520010      -3.13629243E-05
   3.81719995      -3.16790283E-05
   3.82920003      -3.19924002E-05
   3.84120011      -3.23030836E-05
   3.85319996      -3.26111367E-05
   3.86520004      -3.29166432E-05
   3.87719989      -3.32196905E-05
   3.88919997      -3.35203949E-05
   3.90120006      -3.38188729E-05
   3.91319990      -3.41152627E-05
   3.92519999      -3.44097280E-05
   3.93720007      -3.47024361E-05
   3.94919991      -3.49935945E-05
   3.96120000      -3.52834031E-05
   3.97320008      -3.55720767E-05
   3.98519993      -3.58597936E-05
   3.99720001      -3.61466991E-05
   4.00920010      -3.64328553E-05
   4.02120018      -3.67182074E-05
   4.03319979      -3.70025482E-05
   4.04519987      -3.72854774E-05
   4.05719995      -3.75663803E-05
   4.06920004      -3.78443910E-05
   4.08120012      -3.81183963E-05
   4.09320021      -3.83870320E-05
   4.10519981      -3.86487300E-05
   4.11719990      -3.89017732E-05
   4.12919998      -3.91443500E-05
   4.14120007      -3.93746814E-05
   4.15320015      -3.95911120E-05
   4.16520023      -3.97922704E-05
   4.17719984      -3.99771816E-05
   4.18919992      -4.01454126E-05
   4.20120001      -4.02971928E-05
   4.21320009      -4.04335260E-05
   4.22520018      -4.05562278E-05
   4.23719978      -4.06680010E-05
   4.24919987      -4.07724110E-05
   4.26119995      -4.08738160E-05
   4.27320004      -4.09772947E-05
   4.28520012      -4.10884822E-05
   4.29720020      -4.12133923E-05
   4.30919981      -4.13582311E-05
   4.32119989      -4.15291470E-05
   4.33319998      -4.17320334E-05
   4.34520006      -4.19722965E-05
   4.35720015      -4.22546618E-05
   4.36920023      -4.25829967E-05
   4.38119984      -4.29602005E-05
   4.39319992      -4.33880923E-05
   4.40520000      -4.38673960E-05
   4.41720009      -4.43977260E-05
   4.42920017      -4.49776344E-05
   4.44119978      -4.56046801E-05
   4.45319986      -4.62755343E-05
   4.46519995      -4.69861116E-05
   4.47720003      -4.77316753E-05
   4.48920012      -4.85069868E-05
   4.50120020      -4.93064035E-05
   4.51319981      -5.01240065E-05
   4.52519989      -5.09536985E-05
   4.53719997      -5.17892549E-05
   4.54920006      -5.26244257E-05
   4.56120014      -5.34529827E-05
   4.57320023      -5.42687812E-05
   4.58519983      -5.50658333E-05
   4.59719992      -5.58383763E-05
   4.60920000      -5.65809896E-05
   4.62120008      -5.72886856E-05
   4.63320017      -5.79570733E-05
   4.64519978      -5.85825255E-05
   4.65719986      -5.91623393E-05
   4.66919994      -5.96949649E-05
   4.68120003      -6.01801985E-05
   4.69320011      -6.06193935E-05
   4.70520020      -6.10156385E-05
   4.71719980      -6.13739103E-05
   4.72919989      -6.17011974E-05
   4.74119997      -6.20065475E-05
   4.75320005      -6.23010419E-05
   4.76520014      -6.25976754E-05
   4.77720022      -6.29112255E-05
   4.78919983      -6.32578594E-05
   4.80119991      -6.36548648E-05
   4.81320000      -6.41200604E-05
   4.82520008      -6.46712942E-05
   4.83720016      -6.53257885E-05
   4.84919977      -6.60994410E-05
   4.86119986      -6.70060690E-05
   4.87319994      -6.80566882E-05
   4.88520002      -6.92587710E-05
   4.89720011      -7.06154970E-05
   4.90920019      -7.21251417E-05
   4.92119980      -7.37804367E-05
   4.93319988      -7.55681176E-05
   4.94519997      -7.74685250E-05
   4.95720005      -7.94552907E-05
   4.96920013      -8.14952655E-05
   4.98120022      -8.35484534E-05
   4.99319983      -8.55681501E-05
   5.00519991      -8.75011683E-05
   5.01719999      -8.92882672E-05
   5.02920008      -9.08646471E-05
   5.04120016      -9.21605533E-05
   5.05319977      -9.31020768E-05
   5.06519985      -9.36120123E-05
   5.07719994      -9.36108845E-05
   5.08920002      -9.30180249E-05
   5.10120010      -9.17528450E-05
   5.11320019      -8.97361460E-05
   5.12519979      -8.68915595E-05
   5.13719988      -8.31471043E-05
   5.14919996      -7.84367221E-05
   5.16120005      -7.27019287E-05
   5.17320013      -6.58934587E-05
   5.18520021      -5.79728403E-05
   5.19719982      -4.89139529E-05
   5.20919991      -3.87044165E-05
   5.22119999      -2.73468595E-05
   5.23320007      -1.48599556E-05
   5.24520016      -1.27921351E-06
   5.25719976       1.33425265E-05
   5.26919985       2.89349136E-05
   5.28119993       4.54102556E-05
   5.29320002       6.26640467E-05
   5.30520010       8.05758173E-05
   5.31720018       9.90104381E-05
   5.32919979       1.17819545E-04
   5.34119987       1.36843504E-04
   5.35319996       1.55913382E-04
   5.36520004       1.74853354E-04
   5.37720013       1.93483094E-04
   5.38920021       2.11620296E-04
   5.40119982       2.29083409E-04
   5.41319990       2.45694129E-04
   5.42519999       2.61279987E-04
   5.43720007       2.75676954E-04
   5.44920015       2.88731593E-04
   5.46120024       3.00303625E-04
   5.47319984       3.10267758E-04
   5.48519993       3.18515667E-04
   5.49720001       3.24957684E-04
   5.50920010       3.29524424E-04
   5.52120018       3.32167750E-04
   5.53319979       3.32862226E-04
   5.54519987       3.31605610E-04
   5.55719995       3.28419497E-04
   5.56920004       3.23349435E-04
   5.58120012       3.16465012E-04
   5.59320021       3.07859329E-04
   5.60519981       2.97648279E-04
   5.61719990       2.85969290E-04
   5.62919998       2.72979989E-04
   5.64120007       2.58855871E-04
   5.65320015       2.43788381E-04
   5.66520023       2.27981829E-04
   5.67719984       2.11650375E-04
   5.68919992       1.95014625E-04
   5.70120001       1.78297865E-04
   5.71320009       1.61722230E-04
   5.72520018       1.45504615E-04
   5.73719978       1.29852851E-04
   5.74919987       1.14961615E-04
   5.76119995       1.01008896E-04
   5.77320004       8.81525266E-05
   5.78520012       7.65272562E-05
   5.79720020       6.62422608E-05
   5.80919981       5.73793113E-05
   5.82119989       4.99914458E-05
   5.83319998       4.41024131E-05
   5.84520006       3.97067670E-05
   5.85720015       3.67706089E-05
   5.86920023       3.52329735E-05
   5.88119984       3.50078299E-05
   5.89319992       3.59865480E-05
   5.90520000       3.80408310E-05
   5.91720009       4.10259563E-05
   5.92920017       4.47843013E-05
   5.94119978       4.91489736E-05
   5.95319986       5.39475514E-05
   5.96519995       5.90057498E-05
   5.97720003       6.41509978E-05
   5.98920012       6.92158937E-05
   6.00120020       7.40413307E-05
   6.01319981       7.84794756E-05
   6.02519989       8.23963055E-05
   6.03719997       8.56739061E-05
   6.04920006       8.82124004E-05
   6.06120014       8.99313673E-05
   6.07320023       9.07710710E-05
   6.08519983       9.06930800E-05
   6.09719992       8.96806305E-05
   6.10920000       8.77384591E-05
   6.12120008       8.48922646E-05
   6.13320017       8.11877180E-05
   6.14519978       7.66890735E-05
   6.15719986       7.14773705E-05
   6.16919994       6.56482371E-05
   6.18120003       5.93093973E-05
   6.19320011       5.25778778E-05
   6.20520020       4.55769441E-05
   6.21719980       3.84329396E-05
   6.22919989       3.12720404E-05
   6.24119997       2.42169972E-05
   6.25320005       1.73840417E-05
   6.26520014       1.08799459E-05
   6.27720022       4.79940491E-06
   6.28919983      -7.77215632E-07
   6.30119991      -5.78568370E-06
   6.31320000      -1.01792066E-05
   6.32520008      -1.39291924E-05
   6.33720016      -1.70254461E-05
   6.34919977      -1.94758104E-05
   6.36119986      -2.13052517E-05
   6.37319994      -2.25544391E-05
   6.38520002      -2.32778802E-05
   6.39720011      -2.35416574E-05
   6.40920019      -2.34208710E-05
   6.42119980      -2.29968646E-05
   6.43319988      -2.23543393E-05
   6.44519997      -2.15784330E-05
   6.45720005      -2.07518697E-05
   6.46920013      -1.99522783E-05
   6.48120022      -1.92497318E-05
   6.49319983      -1.87046135E-05
   6.50519991      -1.83658321E-05
   6.51719999      -1.82694785E-05
   6.52920008      -1.84379023E-05
   6.54120016      -1.88792801E-05
   6.55319977      -1.95876419E-05
   6.56519985      -2.05433698E-05
   6.57719994      -2.17141260E-05
   6.58920002      -2.30561818E-05
   6.60120010      -2.45161136E-05
   6.61320019      -2.60327706E-05
   6.62519979      -2.75395032E-05
   6.63719988      -2.89665186E-05
   6.64919996      -3.02433418E-05
   6.66120005      -3.13012824E-05
   6.67320013      -3.20758263E-05
   6.68520021      -3.25089022E-05
   6.69719982      -3.25509318E-05
   6.70919991      -3.21626139E-05
   6.72119999      -3.13164055E-05
   6.73320007      -2.99976291E-05
   6.74520016      -2.82051951E-05
   6.75719976      -2.59519438E-05
   6.76919985      -2.32645289E-05
   6.78119993      -2.01829462E-05
   6.79320002      -1.67596390E-05
   6.80520010      -1.30582839E-05
   6.81720018      -9.15221972E-06
   6.82919979      -5.12262750E-06
   6.84119987      -1.05649247E-06
   6.85319996       2.95561631E-06
   6.86520004       6.82185964E-06
   6.87720013       1.04514993E-05
   6.88920021       1.37572542E-05
   6.90119982       1.66575974E-05
   6.91319990       1.90789287E-05
   6.92519999       2.09575901E-05
   6.93720007       2.22416438E-05
   6.94920015       2.28924255E-05
   6.96120024       2.28857953E-05
   6.97319984       2.22130602E-05
   6.98519993       2.08815636E-05
   6.99720001       1.89149214E-05
   7.00920010       1.63528475E-05
   7.02120018       1.32506375E-05
   7.03319979       9.67823780E-06
   7.04519987       5.71895771E-06
   7.05719995       1.46780815E-06
   7.06920004      -2.97049337E-06
   7.08120012      -7.48382035E-06
   7.09320021      -1.19552042E-05
   7.10519981      -1.62656124E-05
   7.11719990      -2.02968822E-05
   7.12919998      -2.39347319E-05
   7.14120007      -2.70717919E-05
   7.15320015      -2.96105572E-05
   7.16520023      -3.14661738E-05
   7.17719984      -3.25689980E-05
   7.18919992      -3.28668066E-05
   7.20120001      -3.23266249E-05
   7.21320009      -3.09360585E-05
   7.22520018      -2.87041003E-05
   7.23719978      -2.56613766E-05
   7.24919987      -2.18597888E-05
   7.26119995      -1.73715653E-05
   7.27320004      -1.22877309E-05
   7.28520012      -6.71603357E-06
   7.29720020      -7.78389449E-07
   7.30919981       5.39209123E-06
   7.32119989       1.16544024E-05
   7.33319998       1.78631653E-05
   7.34520006       2.38722769E-05
   7.35720015       2.95385726E-05
   7.36920023       3.47253990E-05
   7.38119984       3.93059818E-05
   7.39319992       4.31665394E-05
   7.40520000       4.62089993E-05
   7.41720009       4.83533149E-05
   7.42920017       4.95393288E-05
   7.44119978       4.97281035E-05
   7.45319986       4.89027916E-05
   7.46519995       4.70689447E-05
   7.47720003       4.42544006E-05
   7.48920012       4.05086066E-05
   7.50120020       3.59015976E-05
   7.51319981       3.05224930E-05
   7.52519989       2.44776584E-05
   7.53719997       1.78884966E-05
   7.54920006       1.08889853E-05
   7.56120014       3.62292440E-06
   7.57320023      -3.75902437E-06
   7.58519983      -1.11024701E-05
   7.59719992      -1.82525473E-05
   7.60920000      -2.50572557E-05
   7.62120008      -3.13707933E-05
   7.63320017      -3.70568669E-05
   7.64519978      -4.19918433E-05
   7.65719986      -4.60677293E-05
   7.66919994      -4.91948376E-05
   7.68120003      -5.13040977E-05
   7.69320011      -5.23489070E-05
   7.70520020      -5.23064627E-05
   7.71719980      -5.11784565E-05
   7.72919989      -4.89911727E-05
   7.74119997      -4.57949136E-05
   7.75320005      -4.16627190E-05
   7.76520014      -3.66884778E-05
   7.77720022      -3.09844327E-05
   7.78919983      -2.46781383E-05
   7.80119991      -1.79090603E-05
   7.81320000      -1.08247959E-05
   7.82520008      -3.57717795E-06
   7.83720016       3.68170322E-06
   7.84919977       1.08033673E-05
   7.86119986       1.76465946E-05
   7.87319994       2.40807512E-05
   7.88520002       2.99886706E-05
   7.89720011       3.52690440E-05
   7.90920019       3.98382399E-05
   7.92119980       4.36315531E-05
   7.93319988       4.66038655E-05
   7.94519997       4.87297839E-05
   7.95720005       5.00032111E-05
   7.96920013       5.04365162E-05
   7.98120022       5.00593014E-05
   7.99319983       4.89168451E-05
   8.00520039       4.70683517E-05
   8.01720047       4.45849837E-05
   8.02919960       4.15478389E-05
   8.04119968       3.80458659E-05
   8.05319977       3.41737723E-05
   8.06519985       3.00300071E-05
   8.07719994       2.57147731E-05
   8.08920002       2.13281455E-05
   8.10120010       1.69682880E-05
   8.11320019       1.27297790E-05
   8.12520027       8.70203257E-06
   8.13720036       4.96784787E-06
   8.14920044       1.60207787E-06
   8.16119957      -1.32957928E-06
   8.17319965      -3.77164588E-06
   8.18519974      -5.67977759E-06
   8.19719982      -7.02150282E-06
   8.20919991      -7.77677542E-06
   8.22119999      -7.93831532E-06
   8.23320007      -7.51172183E-06
   8.24520016      -6.51534856E-06
   8.25720024      -4.97992187E-06
   8.26920033      -2.94790425E-06
   8.28120041      -4.72609713E-07
   8.29319954       2.38292705E-06
   8.30519962       5.54730104E-06
   8.31719971       8.94228651E-06
   8.32919979       1.24845528E-05
   8.34119987       1.60875061E-05
   8.35319996       1.96632191E-05
   8.36520004       2.31244121E-05
   8.37720013       2.63864167E-05
   8.38920021       2.93690991E-05
   8.40120029       3.19986939E-05
   8.41320038       3.42094900E-05
   8.42520046       3.59453734E-05
   8.43719959       3.71611168E-05
   8.44919968       3.78234872E-05
   8.46119976       3.79120902E-05
   8.47319984       3.74199008E-05
   8.48519993       3.63535692E-05
   8.49720001       3.47334062E-05
   8.50920010       3.25930523E-05
   8.52120018       2.99788935E-05
   8.53320026       2.69491411E-05
   8.54520035       2.35726402E-05
   8.55720043       1.99274091E-05
   8.56919956       1.60989202E-05
   8.58119965       1.21781495E-05
   8.59319973       8.25943880E-06
   8.60519981       4.43821227E-06
   8.61719990       8.08577283E-07
   8.62919998      -2.53911116E-06
   8.64120007      -5.52067331E-06
   8.65320015      -8.06044591E-06
   8.66520023      -1.00934667E-05
   8.67720032      -1.15674384E-05
   8.68920040      -1.24443895E-05
   8.70119953      -1.27019757E-05
   8.71319962      -1.23343534E-05
   8.72519970      -1.13525866E-05
   8.73719978      -9.78454500E-06
   8.74919987      -7.67427355E-06
   8.76119995      -5.08085304E-06
   8.77320004      -2.07674725E-06
   8.78520012       1.25429369E-06
   8.79720020       4.81973029E-06
   8.80920029       8.52104222E-06
   8.82120037       1.22567553E-05
   8.83320045       1.59255887E-05
   8.84519958       1.94295881E-05
   8.85719967       2.26771663E-05
   8.86919975       2.55859140E-05
   8.88119984       2.80850782E-05
   8.89319992       3.01176369E-05
   8.90520000       3.16418846E-05
   8.91720009       3.26324662E-05
   8.92920017       3.30808507E-05
   8.94120026       3.29952090E-05
   8.95320034       3.23997265E-05
   8.96520042       3.13333949E-05
   8.97719955       2.98483228E-05
   8.98919964       2.80076511E-05
   9.00119972       2.58831587E-05
   9.01319981       2.35526641E-05
   9.02519989       2.10972976E-05
   9.03719997       1.85987683E-05
   9.04920006       1.61367225E-05
   9.06120014       1.37862417E-05
   9.07320023       1.16156116E-05
   9.08520031       9.68437416E-06
   9.09720039       8.04174852E-06
   9.10919952       6.72542365E-06
   9.12119961       5.76076445E-06
   9.13319969       5.16043019E-06
   9.14519978       4.92438767E-06
   9.15719986       5.04031505E-06
   9.16919994       5.48435855E-06
   9.18120003       6.22220750E-06
   9.19320011       7.21045262E-06
   9.20520020       8.39817312E-06
   9.21720028       9.72871840E-06
   9.22920036       1.11416175E-05
   9.24120045       1.25745801E-05
   9.25319958       1.39655440E-05
   9.26519966       1.52546982E-05
   9.27719975       1.63864515E-05
   9.28919983       1.73113003E-05
   9.30119991       1.79875078E-05
   9.31320000       1.83826232E-05
   9.32520008       1.84746987E-05
   9.33720016       1.82532494E-05
   9.34920025       1.77198508E-05
   9.36120033       1.68883962E-05
   9.37320042       1.57849336E-05
   9.38519955       1.44471142E-05
   9.39719963       1.29232167E-05
   9.40919971       1.12707776E-05
   9.42119980       9.55483210E-06
   9.43319988       7.84582062E-06
   9.44519997       6.21720028E-06
