 -0.622799993       0.00000000    
 -0.610800028       0.00000000    
 -0.598800004       0.00000000    
 -0.586799979       4.30250650E-16
 -0.574800014       2.44931054E-15
 -0.562799990       7.43354166E-15
 -0.550800025       1.58119994E-14
 -0.538800001       2.65742645E-14
 -0.526799977       3.90778650E-14
 -0.514800012       5.73300562E-14
 -0.502799988       9.41125230E-14
 -0.490799993       1.69984008E-13
 -0.478799999       3.02662355E-13
 -0.466800004       4.86752457E-13
 -0.454800010       6.70990878E-13
 -0.442799985       7.46393670E-13
 -0.430799991       5.59299297E-13
 -0.418799996      -4.44784251E-14
 -0.406800002      -1.15309856E-12
 -0.394800007      -2.72468940E-12
 -0.382800013      -4.56021158E-12
 -0.370799989      -6.34316948E-12
 -0.358799994      -7.75666077E-12
 -0.346799999      -8.65932760E-12
 -0.334800005      -9.27459064E-12
 -0.322800010      -1.03341728E-11
 -0.310799986      -1.31252769E-11
 -0.298799992      -1.94190636E-11
 -0.286799997      -3.12971524E-11
 -0.274800003      -5.09272520E-11
 -0.262800008      -8.03563396E-11
 -0.250800014      -1.21383459E-10
 -0.238800004      -1.75548159E-10
 -0.226799995      -2.44235798E-10
 -0.214800000      -3.28871069E-10
 -0.202800006      -4.31153002E-10
 -0.190799996      -5.53280366E-10
 -0.178800002      -6.98119729E-10
 -0.166800007      -8.69272376E-10
 -0.154799998      -1.07099263E-09
 -0.142800003      -1.30791589E-09
 -0.130799994      -1.58456270E-09
 -0.118799999      -1.90461891E-09
 -0.106799997      -2.27005237E-09
  -9.48000029E-02  -2.68019251E-09
  -8.28000009E-02  -3.13095905E-09
  -7.07999989E-02  -3.61445363E-09
  -5.88000007E-02  -4.11907486E-09
  -4.67999987E-02  -4.63024463E-09
  -3.48000005E-02  -5.13168441E-09
  -2.28000004E-02  -5.60708591E-09
  -1.08000003E-02  -6.04191674E-09
   1.20000006E-03  -6.42513331E-09
   1.31999999E-02  -6.75062362E-09
   2.52000000E-02  -7.01831215E-09
   3.72000001E-02  -7.23496241E-09
   4.91999984E-02  -7.41471151E-09
   6.12000003E-02  -7.57932295E-09
   7.32000023E-02  -7.75800846E-09
   8.51999968E-02  -7.98648792E-09
   9.71999988E-02  -8.30490077E-09
  0.109200001      -8.75419559E-09
  0.121200003      -9.37087918E-09
  0.133200005      -1.01803463E-08
  0.145199999      -1.11894716E-08
  0.157199994      -1.23795827E-08
  0.169200003      -1.37011558E-08
  0.181199998      -1.50715849E-08
  0.193200007      -1.63771698E-08
  0.205200002      -1.74799109E-08
  0.217199996      -1.82292048E-08
  0.229200006      -1.84777509E-08
  0.241200000      -1.81006534E-08
  0.253199995      -1.70160597E-08
  0.265199989      -1.52055417E-08
  0.277200013      -1.27321043E-08
  0.289200008      -9.75351000E-09
  0.301200002      -6.52840981E-09
  0.313199997      -3.41264972E-09
  0.325199991      -8.43250691E-10
  0.337199986       6.91934399E-10
  0.349200010       6.99816927E-10
  0.361200005      -1.25784394E-09
  0.373199999      -5.49272317E-09
  0.385199994      -1.21117880E-08
  0.397199988      -2.09401119E-08
  0.409200013      -3.14536273E-08
  0.421200007      -4.27312514E-08
  0.433200002      -5.34350413E-08
  0.445199996      -6.18256024E-08
  0.457199991      -6.58162165E-08
  0.469199985      -6.30660821E-08
  0.481200010      -5.11086178E-08
  0.493200004      -2.75062000E-08
  0.505200028       9.98104088E-09
  0.517199993       6.32285122E-08
  0.529200017       1.33601759E-07
  0.541199982       2.21852517E-07
  0.553200006       3.28077988E-07
  0.565199971       4.51761963E-07
  0.577199996       5.91912396E-07
  0.589200020       7.47303886E-07
  0.601199985       9.16823012E-07
  0.613200009       1.09990526E-06
  0.625199974       1.29703903E-06
  0.637199998       1.51030383E-06
  0.649200022       1.74389515E-06
  0.661199987       2.00459044E-06
  0.673200011       2.30210139E-06
  0.685199976       2.64926393E-06
  0.697200000       3.06202742E-06
  0.709200025       3.55920429E-06
  0.721199989       4.16197281E-06
  0.733200014       4.89312833E-06
  0.745199978       5.77610899E-06
  0.757200003       6.83382268E-06
  0.769200027       8.08734785E-06
  0.781199992       9.55456562E-06
  0.793200016       1.12488142E-05
  0.805199981       1.31776578E-05
  0.817200005       1.53418478E-05
  0.829200029       1.77345682E-05
  0.841199994       2.03410455E-05
  0.853200018       2.31385457E-05
  0.865199983       2.60968118E-05
  0.877200007       2.91789311E-05
  0.889199972       3.23426102E-05
  0.901199996       3.55417906E-05
  0.913200021       3.87285618E-05
  0.925199986       4.18552190E-05
  0.937200010       4.48764476E-05
  0.949199975       4.77514404E-05
  0.961199999       5.04458585E-05
  0.973200023       5.29335812E-05
  0.985199988       5.51980738E-05
  0.997200012       5.72333556E-05
   1.00919998       5.90444724E-05
   1.02119994       6.06474532E-05
   1.03320003       6.20687788E-05
   1.04519999       6.33442833E-05
   1.05719995       6.45176624E-05
   1.06920004       6.56385164E-05
   1.08120000       6.67601489E-05
   1.09319997       6.79370787E-05
   1.10520005       6.92225003E-05
   1.11720002       7.06657229E-05
   1.12919998       7.23097182E-05
   1.14119995       7.41888798E-05
   1.15320003       7.63270800E-05
   1.16520000       7.87361714E-05
   1.17719996       8.14147788E-05
   1.18920004       8.43478338E-05
   1.20120001       8.75064070E-05
   1.21319997       9.08482325E-05
   1.22520006       9.43186897E-05
   1.23720002       9.78522876E-05
   1.24919999       1.01374637E-04
   1.26119995       1.04804698E-04
   1.27320004       1.08057393E-04
   1.28520000       1.11046342E-04
   1.29719996       1.13686699E-04
   1.30920005       1.15897958E-04
   1.32120001       1.17606585E-04
   1.33319998       1.18748459E-04
   1.34519994       1.19270961E-04
   1.35720003       1.19134660E-04
   1.36919999       1.18314565E-04
   1.38119996       1.16800809E-04
   1.39320004       1.14598879E-04
   1.40520000       1.11729249E-04
   1.41719997       1.08226552E-04
   1.42920005       1.04138322E-04
   1.44120002       9.95232185E-05
   1.45319998       9.44490748E-05
   1.46519995       8.89906150E-05
   1.47720003       8.32270307E-05
   1.48920000       7.72395797E-05
   1.50119996       7.11091125E-05
   1.51320004       6.49138819E-05
   1.52520001       5.87274917E-05
   1.53719997       5.26172043E-05
   1.54920006       4.66425518E-05
   1.56120002       4.08544074E-05
   1.57319999       3.52944517E-05
   1.58519995       2.99950807E-05
   1.59720004       2.49797067E-05
   1.60920000       2.02634328E-05
   1.62119997       1.58540079E-05
   1.63320005       1.17530453E-05
   1.64520001       7.95737196E-06
   1.65719998       4.46046579E-06
   1.66919994       1.25386794E-06
   1.68120003      -1.67150131E-06
   1.69319999      -4.32418574E-06
   1.70519996      -6.71127600E-06
   1.71720004      -8.83775374E-06
   1.72920001      -1.07061460E-05
   1.74119997      -1.23164809E-05
   1.75320005      -1.36665485E-05
   1.76520002      -1.47524361E-05
   1.77719998      -1.55692906E-05
   1.78919995      -1.61122571E-05
   1.80120003      -1.63775312E-05
   1.81320000      -1.63634359E-05
   1.82519996      -1.60714644E-05
   1.83720005      -1.55071866E-05
   1.84920001      -1.46809834E-05
   1.86119998      -1.36085300E-05
   1.87320006      -1.23110067E-05
   1.88520002      -1.08149643E-05
   1.89719999      -9.15189958E-06
   1.90919995      -7.35751064E-06
   1.92120004      -5.47067884E-06
   1.93320000      -3.53222526E-06
   1.94519997      -1.58349064E-06
   1.95720005       3.35181937E-07
   1.96920002       2.18598257E-06
   1.98119998       3.93512482E-06
   1.99319994       5.55418774E-06
   2.00519991       7.02127227E-06
   2.01719999       8.32188471E-06
   2.02920008       9.44951171E-06
   2.04119992       1.04058581E-05
   2.05320001       1.12007201E-05
   2.06520009       1.18515054E-05
   2.07719994       1.23824084E-05
   2.08920002       1.28232768E-05
   2.10120010       1.32082196E-05
   2.11319995       1.35740038E-05
   2.12520003       1.39583344E-05
   2.13720012       1.43980715E-05
   2.14919996       1.49274665E-05
   2.16120005       1.55764956E-05
   2.17319989       1.63693694E-05
   2.18519998       1.73232784E-05
   2.19720006       1.84474502E-05
   2.20919991       1.97425215E-05
   2.22119999       2.12003106E-05
   2.23320007       2.28039535E-05
   2.24519992       2.45284446E-05
   2.25720000       2.63415332E-05
   2.26920009       2.82049368E-05
   2.28119993       3.00758547E-05
   2.29320002       3.19086648E-05
   2.30520010       3.36567646E-05
   2.31719995       3.52744864E-05
   2.32920003       3.67189277E-05
   2.34120011       3.79517551E-05
   2.35319996       3.89407505E-05
   2.36520004       3.96611576E-05
   2.37719989       4.00966710E-05
   2.38919997       4.02401602E-05
   2.40120006       4.00939134E-05
   2.41319990       3.96695759E-05
   2.42519999       3.89876877E-05
   2.43720007       3.80768652E-05
   2.44919991       3.69726367E-05
   2.46120000       3.57160498E-05
   2.47320008       3.43520442E-05
   2.48519993       3.29276954E-05
   2.49720001       3.14903846E-05
   2.50920010       3.00859811E-05
   2.52119994       2.87571038E-05
   2.53320003       2.75415568E-05
   2.54520011       2.64709724E-05
   2.55719995       2.55697632E-05
   2.56920004       2.48543820E-05
   2.58119988       2.43329505E-05
   2.59319997       2.40052686E-05
   2.60520005       2.38632092E-05
   2.61719990       2.38914363E-05
   2.62919998       2.40684549E-05
   2.64120007       2.43679260E-05
   2.65319991       2.47601565E-05
   2.66520000       2.52137161E-05
   2.67720008       2.56970779E-05
   2.68919992       2.61802215E-05
   2.70120001       2.66360803E-05
   2.71320009       2.70417786E-05
   2.72519994       2.73796177E-05
   2.73720002       2.76376923E-05
   2.74920011       2.78101925E-05
   2.76119995       2.78973148E-05
   2.77320004       2.79048345E-05
   2.78520012       2.78433545E-05
   2.79719996       2.77272757E-05
   2.80920005       2.75736038E-05
   2.82119989       2.74005943E-05
   2.83319998       2.72264188E-05
   2.84520006       2.70678484E-05
   2.85719991       2.69391130E-05
   2.86919999       2.68509521E-05
   2.88120008       2.68099338E-05
   2.89319992       2.68180866E-05
   2.90520000       2.68727963E-05
   2.91720009       2.69670873E-05
   2.92919993       2.70900982E-05
   2.94120002       2.72278794E-05
   2.95320010       2.73643109E-05
   2.96519995       2.74822214E-05
   2.97720003       2.75645398E-05
   2.98920012       2.75954462E-05
   3.00119996       2.75614711E-05
   3.01320004       2.74524591E-05
   3.02519989       2.72623438E-05
   3.03719997       2.69897118E-05
   3.04920006       2.66380885E-05
   3.06119990       2.62159901E-05
   3.07319999       2.57366864E-05
   3.08520007       2.52177178E-05
   3.09719992       2.46802028E-05
   3.10920000       2.41479211E-05
   3.12120008       2.36462784E-05
   3.13319993       2.32011407E-05
   3.14520001       2.28376011E-05
   3.15720010       2.25787589E-05
   3.16919994       2.24445139E-05
   3.18120003       2.24504729E-05
   3.19320011       2.26069860E-05
   3.20519996       2.29184043E-05
   3.21720004       2.33825594E-05
   3.22919989       2.39905294E-05
   3.24119997       2.47267144E-05
   3.25320005       2.55691921E-05
   3.26519990       2.64904211E-05
   3.27719998       2.74581944E-05
   3.28920007       2.84368598E-05
   3.30119991       2.93887279E-05
   3.31320000       3.02756216E-05
   3.32520008       3.10605028E-05
   3.33719993       3.17090962E-05
   3.34920001       3.21914376E-05
   3.36120009       3.24832654E-05
   3.37319994       3.25672227E-05
   3.38520002       3.24337270E-05
   3.39720011       3.20815707E-05
   3.40919995       3.15181242E-05
   3.42120004       3.07591436E-05
   3.43319988       2.98282503E-05
   3.44519997       2.87560088E-05
   3.45720005       2.75786879E-05
   3.46919990       2.63368129E-05
   3.48119998       2.50734720E-05
   3.49320006       2.38325501E-05
   3.50519991       2.26569446E-05
   3.51719999       2.15868095E-05
   3.52920008       2.06579607E-05
   3.54119992       1.99004771E-05
   3.55320001       1.93375527E-05
   3.56520009       1.89846542E-05
   3.57719994       1.88489994E-05
   3.58920002       1.89293860E-05
   3.60120010       1.92163370E-05
   3.61319995       1.96925757E-05
   3.62520003       2.03337913E-05
   3.63720012       2.11096594E-05
   3.64919996       2.19850663E-05
   3.66120005       2.29214984E-05
   3.67319989       2.38785433E-05
   3.68519998       2.48154265E-05
   3.69720006       2.56925669E-05
   3.70919991       2.64730643E-05
   3.72119999       2.71240697E-05
   3.73320007       2.76179835E-05
   3.74519992       2.79334854E-05
   3.75720000       2.80562763E-05
   3.76920009       2.79795713E-05
   3.78119993       2.77042927E-05
   3.79320002       2.72389625E-05
   3.80520010       2.65992949E-05
   3.81719995       2.58074997E-05
   3.82920003       2.48913602E-05
   3.84120011       2.38830689E-05
   3.85319996       2.28179033E-05
   3.86520004       2.17328088E-05
   3.87719989       2.06649092E-05
   3.88919997       1.96500368E-05
   3.90120006       1.87213518E-05
   3.91319990       1.79081035E-05
   3.92519999       1.72345990E-05
   3.93720007       1.67194248E-05
   3.94919991       1.63749664E-05
   3.96120000       1.62072629E-05
   3.97320008       1.62161850E-05
   3.98519993       1.63959285E-05
   3.99720001       1.67357830E-05
   4.00920010       1.72211276E-05
   4.02120018       1.78345890E-05
   4.03319979       1.85572608E-05
   4.04519987       1.93699198E-05
   4.05719995       2.02541232E-05
   4.06920004       2.11931747E-05
   4.08120012       2.21728169E-05
   4.09320021       2.31816757E-05
   4.10519981       2.42114202E-05
   4.11719990       2.52565969E-05
   4.12919998       2.63141992E-05
   4.14120007       2.73830083E-05
   4.15320015       2.84627258E-05
   4.16520023       2.95530172E-05
   4.17719984       3.06525144E-05
   4.18919992       3.17578888E-05
   4.20120001       3.28630631E-05
   4.21320009       3.39586550E-05
   4.22520018       3.50317277E-05
   4.23719978       3.60658778E-05
   4.24919987       3.70416383E-05
   4.26119995       3.79372832E-05
   4.27320004       3.87298751E-05
   4.28520012       3.93965893E-05
   4.29720020       3.99161436E-05
   4.30919981       4.02703190E-05
   4.32119989       4.04453640E-05
   4.33319998       4.04332895E-05
   4.34520006       4.02328988E-05
   4.35720015       3.98504708E-05
   4.36920023       3.93000519E-05
   4.38119984       3.86033389E-05
   4.39319992       3.77890792E-05
   4.40520000       3.68920882E-05
   4.41720009       3.59518417E-05
   4.42920017       3.50107548E-05
   4.44119978       3.41122432E-05
   4.45319986       3.32986347E-05
   4.46519995       3.26090812E-05
   4.47720003       3.20775944E-05
   4.48920012       3.17312806E-05
   4.50120020       3.15889411E-05
   4.51319981       3.16600454E-05
   4.52519989       3.19441751E-05
   4.53719997       3.24309767E-05
   4.54920006       3.31006195E-05
   4.56120014       3.39246762E-05
   4.57320023       3.48674948E-05
   4.58519983       3.58878569E-05
   4.59719992       3.69409499E-05
   4.60920000       3.79804915E-05
   4.62120008       3.89608831E-05
   4.63320017       3.98393495E-05
   4.64519978       4.05779174E-05
   4.65719986       4.11451219E-05
   4.66919994       4.15173781E-05
   4.68120003       4.16799485E-05
   4.69320011       4.16274779E-05
   4.70520020       4.13640046E-05
   4.71719980       4.09025524E-05
   4.72919989       4.02642981E-05
   4.74119997       3.94773342E-05
   4.75320005       3.85751919E-05
   4.76520014       3.75951167E-05
   4.77720022       3.65762935E-05
   4.78919983       3.55580560E-05
   4.80119991       3.45782064E-05
   4.81320000       3.36715384E-05
   4.82520008       3.28685928E-05
   4.83720016       3.21947300E-05
   4.84919977       3.16695405E-05
   4.86119986       3.13065721E-05
   4.87319994       3.11133772E-05
   4.88520002       3.10918331E-05
   4.89720011       3.12386983E-05
   4.90920019       3.15462858E-05
   4.92119980       3.20032777E-05
   4.93319988       3.25955152E-05
   4.94519997       3.33067474E-05
   4.95720005       3.41193154E-05
   4.96920013       3.50146656E-05
   4.98120022       3.59737387E-05
   4.99319983       3.69771988E-05
   5.00519991       3.80055426E-05
   5.01719999       3.90390996E-05
   5.02920008       4.00579775E-05
   5.04120016       4.10420180E-05
   5.05319977       4.19707649E-05
   5.06519985       4.28235217E-05
   5.07719994       4.35795700E-05
   5.08920002       4.42184428E-05
   5.10120010       4.47203929E-05
   5.11320019       4.50669613E-05
   5.12519979       4.52416425E-05
   5.13719988       4.52305721E-05
   5.14919996       4.50232401E-05
   5.16120005       4.46131016E-05
   5.17320013       4.39981304E-05
   5.18520021       4.31812041E-05
   5.19719982       4.21702825E-05
   5.20919991       4.09784298E-05
   5.22119999       3.96236028E-05
   5.23320007       3.81282516E-05
   5.24520016       3.65187334E-05
   5.25719976       3.48245521E-05
   5.26919985       3.30774965E-05
   5.28119993       3.13106793E-05
   5.29320002       2.95575283E-05
   5.30520010       2.78508305E-05
   5.31720018       2.62217873E-05
   5.32919979       2.46992167E-05
   5.34119987       2.33088449E-05
   5.35319996       2.20727852E-05
   5.36520004       2.10091584E-05
   5.37720013       2.01318726E-05
   5.38920021       1.94505756E-05
   5.40119982       1.89706898E-05
   5.41319990       1.86936231E-05
   5.42519999       1.86170109E-05
   5.43720007       1.87350815E-05
   5.44920015       1.90390401E-05
   5.46120024       1.95174980E-05
   5.47319984       2.01569219E-05
   5.48519993       2.09420705E-05
   5.49720001       2.18564146E-05
   5.50920010       2.28825393E-05
   5.52120018       2.40024692E-05
   5.53319979       2.51979891E-05
   5.54519987       2.64508944E-05
   5.55719995       2.77431991E-05
   5.56920004       2.90573407E-05
   5.58120012       3.03763190E-05
   5.59320021       3.16838705E-05
   5.60519981       3.29645845E-05
   5.61719990       3.42040257E-05
   5.62919998       3.53888609E-05
   5.64120007       3.65069172E-05
   5.65320015       3.75472591E-05
   5.66520023       3.85001913E-05
   5.67719984       3.93572809E-05
   5.68919992       4.01113030E-05
   5.70120001       4.07561784E-05
   5.71320009       4.12868867E-05
   5.72520018       4.16993389E-05
   5.73719978       4.19902935E-05
   5.74919987       4.21571895E-05
   5.76119995       4.21980403E-05
   5.77320004       4.21112964E-05
   5.78520012       4.18957534E-05
   5.79720020       4.15504874E-05
   5.80919981       4.10748180E-05
   5.82119989       4.04683597E-05
   5.83319998       3.97311269E-05
   5.84520006       3.88637091E-05
   5.85720015       3.78675177E-05
   5.86920023       3.67450812E-05
   5.88119984       3.55003576E-05
   5.89319992       3.41390951E-05
   5.90520000       3.26691115E-05
   5.91720009       3.11005751E-05
   5.92920017       2.94461752E-05
   5.94119978       2.77212075E-05
   5.95319986       2.59435528E-05
   5.96519995       2.41335401E-05
   5.97720003       2.23136722E-05
   5.98920012       2.05082324E-05
   6.00120020       1.87427850E-05
   6.01319981       1.70435724E-05
   6.02519989       1.54368136E-05
   6.03719997       1.39479689E-05
   6.04920006       1.26009572E-05
   6.06120014       1.14173699E-05
   6.07320023       1.04157461E-05
   6.08519983       9.61090245E-06
   6.09719992       9.01338808E-06
   6.10920000       8.62905927E-06
   6.12120008       8.45884279E-06
   6.13320017       8.49867683E-06
   6.14519978       8.73962199E-06
   6.15719986       9.16818590E-06
   6.16919994       9.76679530E-06
   6.18120003       1.05144481E-05
   6.19320011       1.13874867E-05
   6.20520020       1.23604686E-05
   6.21719980       1.34071079E-05
   6.22919989       1.45012355E-05
   6.24119997       1.56177248E-05
   6.25320005       1.67333710E-05
   6.26520014       1.78276259E-05
   6.27720022       1.88832055E-05
   6.28919983       1.98864946E-05
   6.30119991       2.08277470E-05
   6.31320000       2.17010620E-05
   6.32520008       2.25041586E-05
   6.33720016       2.32379498E-05
   6.34919977       2.39059736E-05
   6.36119986       2.45136744E-05
   6.37319994       2.50676349E-05
   6.38520002       2.55747764E-05
   6.39720011       2.60416145E-05
   6.40920019       2.64735700E-05
   6.42119980       2.68744298E-05
   6.43319988       2.72459674E-05
   6.44519997       2.75877737E-05
   6.45720005       2.78972675E-05
   6.46920013       2.81699449E-05
   6.48120022       2.83997942E-05
   6.49319983       2.85799106E-05
   6.50519991       2.87032071E-05
   6.51719999       2.87632174E-05
   6.52920008       2.87549246E-05
   6.54120016       2.86755258E-05
   6.55319977       2.85251208E-05
   6.56519985       2.83072204E-05
   6.57719994       2.80290569E-05
   6.58920002       2.77016552E-05
   6.60120010       2.73396672E-05
   6.61320019       2.69609045E-05
   6.62519979       2.65856761E-05
   6.63719988       2.62358717E-05
   6.64919996       2.59339140E-05
   6.66120005       2.57015818E-05
   6.67320013       2.55587893E-05
   6.68520021       2.55224113E-05
   6.69719982       2.56051917E-05
   6.70919991       2.58148302E-05
   6.72119999       2.61532969E-05
   6.73320007       2.66164552E-05
   6.74520016       2.71939753E-05
   6.75719976       2.78696170E-05
   6.76919985       2.86218437E-05
   6.78119993       2.94247311E-05
   6.79320002       3.02491480E-05
   6.80520010       3.10641226E-05
   6.81720018       3.18382990E-05
   6.82919979       3.25414476E-05
   6.84119987       3.31458759E-05
   6.85319996       3.36277117E-05
   6.86520004       3.39679573E-05
   6.87720013       3.41533232E-05
   6.88920021       3.41767154E-05
   6.90119982       3.40374645E-05
   6.91319990       3.37412312E-05
   6.92519999       3.32996096E-05
   6.93720007       3.27295456E-05
   6.94920015       3.20524523E-05
   6.96120024       3.12932716E-05
   6.97319984       3.04793703E-05
   6.98519993       2.96394337E-05
   6.99720001       2.88023912E-05
   7.00920010       2.79963879E-05
   7.02120018       2.72478846E-05
   7.03319979       2.65809194E-05
   7.04519987       2.60164888E-05
   7.05719995       2.55721243E-05
   7.06920004       2.52615755E-05
   7.08120012       2.50946505E-05
   7.09320021       2.50771554E-05
   7.10519981       2.52109330E-05
   7.11719990       2.54939696E-05
   7.12919998       2.59205499E-05
   7.14120007       2.64815062E-05
   7.15320015       2.71644858E-05
   7.16520023       2.79542783E-05
   7.17719984       2.88332030E-05
   7.18919992       2.97815259E-05
   7.20120001       3.07779483E-05
   7.21320009       3.18001075E-05
   7.22520018       3.28251299E-05
   7.23719978       3.38302016E-05
   7.24919987       3.47931273E-05
   7.26119995       3.56928940E-05
   7.27320004       3.65101951E-05
   7.28520012       3.72278882E-05
   7.29720020       3.78314180E-05
   7.30919981       3.83091246E-05
   7.32119989       3.86524589E-05
   7.33319998       3.88561166E-05
   7.34520006       3.89180277E-05
   7.35720015       3.88393055E-05
   7.36920023       3.86240608E-05
   7.38119984       3.82791513E-05
   7.39319992       3.78138793E-05
   7.40520000       3.72396607E-05
   7.41720009       3.65696578E-05
   7.42920017       3.58184225E-05
   7.44119978       3.50015616E-05
   7.45319986       3.41354316E-05
   7.46519995       3.32368363E-05
   7.47720003       3.23228196E-05
   7.48920012       3.14103891E-05
   7.50120020       3.05163376E-05
   7.51319981       2.96570161E-05
   7.52519989       2.88481260E-05
   7.53719997       2.81044886E-05
   7.54920006       2.74398062E-05
   7.56120014       2.68664371E-05
   7.57320023       2.63951260E-05
   7.58519983       2.60347697E-05
   7.59719992       2.57921765E-05
   7.60920000       2.56718540E-05
   7.62120008       2.56758376E-05
   7.63320017       2.58035470E-05
   7.64519978       2.60516917E-05
   7.65719986       2.64142818E-05
   7.66919994       2.68826770E-05
   7.68120003       2.74457216E-05
   7.69320011       2.80900149E-05
   7.70520020       2.88002029E-05
   7.71719980       2.95593945E-05
   7.72919989       3.03496035E-05
   7.74119997       3.11522599E-05
   7.75320005       3.19487044E-05
   7.76520014       3.27207381E-05
   7.77720022       3.34510951E-05
   7.78919983       3.41239283E-05
   7.80119991       3.47252244E-05
   7.81320000       3.52431671E-05
   7.82520008       3.56684504E-05
   7.83720016       3.59944861E-05
   7.84919977       3.62175815E-05
   7.86119986       3.63369691E-05
   7.87319994       3.63547988E-05
   7.88520002       3.62760038E-05
   7.89720011       3.61080893E-05
   7.90920019       3.58608668E-05
   7.92119980       3.55460652E-05
   7.93319988       3.51769413E-05
   7.94519997       3.47678324E-05
   7.95720005       3.43336942E-05
   7.96920013       3.38896425E-05
   7.98120022       3.34504912E-05
   7.99319983       3.30303192E-05
   8.00520039       3.26420486E-05
   8.01720047       3.22970955E-05
   8.02919960       3.20050240E-05
   8.04119968       3.17732702E-05
   8.05319977       3.16069345E-05
   8.06519985       3.15086727E-05
   8.07719994       3.14786339E-05
   8.08920002       3.15145044E-05
   8.10120010       3.16116566E-05
   8.11320019       3.17633203E-05
   8.12520027       3.19608916E-05
   8.13720036       3.21942316E-05
   8.14920044       3.24520552E-05
   8.16119957       3.27223170E-05
   8.17319965       3.29926115E-05
   8.18519974       3.32506461E-05
   8.19719982       3.34846081E-05
   8.20919991       3.36836274E-05
   8.22119999       3.38381033E-05
   8.23320007       3.39400794E-05
   8.24520016       3.39834405E-05
   8.25720024       3.39641228E-05
   8.26920033       3.38801474E-05
   8.28120041       3.37315869E-05
   8.29319954       3.35204240E-05
   8.30519962       3.32503259E-05
   8.31719971       3.29263385E-05
   8.32919979       3.25545770E-05
   8.34119987       3.21418593E-05
   8.35319996       3.16953774E-05
   8.36520004       3.12223965E-05
   8.37720013       3.07300215E-05
   8.38920021       3.02249919E-05
   8.40120029       2.97136139E-05
   8.41320038       2.92017048E-05
   8.42520046       2.86946724E-05
   8.43719959       2.81976318E-05
   8.44919968       2.77155814E-05
   8.46119976       2.72536126E-05
   8.47319984       2.68171116E-05
   8.48519993       2.64119608E-05
   8.49720001       2.60446468E-05
   8.50920010       2.57223310E-05
   8.52120018       2.54527822E-05
   8.53320026       2.52442114E-05
   8.54520035       2.51049933E-05
   8.55720043       2.50432640E-05
   8.56919956       2.50664507E-05
   8.58119965       2.51807287E-05
   8.59319973       2.53904545E-05
   8.60519981       2.56976491E-05
   8.61719990       2.61015284E-05
   8.62919998       2.65981580E-05
   8.64120007       2.71802546E-05
   8.65320015       2.78372027E-05
   8.66520023       2.85552160E-05
   8.67720032       2.93177527E-05
   8.68920040       3.01060809E-05
   8.70119953       3.09000134E-05
   8.71319962       3.16787555E-05
   8.72519970       3.24217908E-05
   8.73719978       3.31098017E-05
   8.74919987       3.37255187E-05
   8.76119995       3.42544699E-05
   8.77320004       3.46855813E-05
   8.78520012       3.50115952E-05
   8.79720020       3.52292809E-05
   8.80920029       3.53393953E-05
   8.82120037       3.53464820E-05
   8.83320045       3.52584102E-05
   8.84519958       3.50857990E-05
   8.85719967       3.48412686E-05
   8.86919975       3.45386470E-05
   8.88119984       3.41921150E-05
   8.89319992       3.38154205E-05
   8.90520000       3.34211218E-05
   8.91720009       3.30199728E-05
   8.92920017       3.26204427E-05
   8.94120026       3.22284068E-05
   8.95320034       3.18470193E-05
   8.96520042       3.14767458E-05
   8.97719955       3.11155964E-05
   8.98919964       3.07594637E-05
   9.00119972       3.04026344E-05
   9.01319981       3.00383508E-05
   9.02519989       2.96594662E-05
   9.03719997       2.92591194E-05
   9.04920006       2.88314095E-05
   9.06120014       2.83720401E-05
   9.07320023       2.78789030E-05
   9.08520031       2.73525620E-05
   9.09720039       2.67966298E-05
   9.10919952       2.62179819E-05
   9.12119961       2.56268358E-05
   9.13319969       2.50366375E-05
   9.14519978       2.44637595E-05
   9.15719986       2.39270339E-05
   9.16919994       2.34470735E-05
   9.18120003       2.30454698E-05
   9.19320011       2.27438522E-05
   9.20520020       2.25628319E-05
   9.21720028       2.25209278E-05
   9.22920036       2.26334960E-05
   9.24120045       2.29117359E-05
   9.25319958       2.33618030E-05
   9.26519966       2.39841193E-05
   9.27719975       2.47729295E-05
   9.28919983       2.57161155E-05
   9.30119991       2.67952892E-05
   9.31320000       2.79862215E-05
   9.32520008       2.92595196E-05
   9.33720016       3.05816247E-05
   9.34920025       3.19159808E-05
   9.36120033       3.32244126E-05
   9.37320042       3.44685941E-05
   9.38519955       3.56115597E-05
   9.39719963       3.66191562E-05
   9.40919971       3.74614319E-05
   9.42119980       3.81138016E-05
   9.43319988       3.85580133E-05
   9.44519997       3.87828550E-05
