 -0.622799993       0.00000000    
 -0.610800028       0.00000000    
 -0.598800004       0.00000000    
 -0.586799979       0.00000000    
 -0.574800014       0.00000000    
 -0.562799990       0.00000000    
 -0.550800025       0.00000000    
 -0.538800001       0.00000000    
 -0.526799977       0.00000000    
 -0.514800012       0.00000000    
 -0.502799988       0.00000000    
 -0.490799993       3.85837163E-38
 -0.478799999      -4.40041080E-37
 -0.466800004      -1.07023954E-35
 -0.454800010      -1.10239123E-34
 -0.442799985      -7.35386786E-34
 -0.430799991      -3.61963180E-33
 -0.418799996      -1.39644909E-32
 -0.406800002      -4.35705974E-32
 -0.394800007      -1.11523252E-31
 -0.382800013      -2.34732304E-31
 -0.370799989      -4.05372330E-31
 -0.358799994      -5.90867502E-31
 -0.346799999      -8.89337460E-31
 -0.334800005      -2.08771163E-30
 -0.322800010      -6.76149241E-30
 -0.310799986      -2.01701184E-29
 -0.298799992      -4.78236421E-29
 -0.286799997      -8.26733956E-29
 -0.274800003      -7.17710192E-29
 -0.262800008       1.43214137E-28
 -0.250800014       8.93531057E-28
 -0.238800004       2.68742627E-27
 -0.226799995       6.00137297E-27
 -0.214800000       1.06505967E-26
 -0.202800006       1.45925894E-26
 -0.190799996       1.23427465E-26
 -0.178800002      -6.12053564E-27
 -0.166800007      -5.40981642E-26
 -0.154799998      -1.41903221E-25
 -0.142800003      -2.63313216E-25
 -0.130799994      -3.75345220E-25
 -0.118799999      -3.78263513E-25
 -0.106799997      -1.11816362E-25
  -9.48000029E-02   6.08057733E-25
  -8.28000009E-02   1.88767532E-24
  -7.07999989E-02   3.58230967E-24
  -5.88000007E-02   5.08670883E-24
  -4.67999987E-02   5.19009260E-24
  -3.48000005E-02   2.16381509E-24
  -2.28000004E-02  -5.72237413E-24
  -1.08000003E-02  -1.91293453E-23
   1.20000006E-03  -3.61147938E-23
   1.31999999E-02  -5.06006276E-23
   2.52000000E-02  -5.17485433E-23
   3.72000001E-02  -2.54664889E-23
   4.91999984E-02   4.08383004E-23
   6.12000003E-02   1.49974651E-22
   7.32000023E-02   2.84562853E-22
   8.51999968E-02   3.98262953E-22
   9.71999988E-02   4.14628018E-22
  0.109200001       2.40447051E-22
  0.121200003      -2.01556410E-22
  0.133200005      -9.21804137E-22
  0.145199999      -1.80577042E-21
  0.157199994      -2.57148501E-21
  0.169200003      -2.77444657E-21
  0.181199998      -1.89189797E-21
  0.193200007       4.96455436E-22
  0.205200002       4.44712775E-21
  0.217199996       9.37413819E-21
  0.229200006       1.38654276E-20
  0.241200000       1.57369868E-20
  0.253199995       1.24526451E-20
  0.265199989       1.95771073E-21
  0.277200013      -1.61736202E-20
  0.289200008      -3.95691701E-20
  0.301200002      -6.23376170E-20
  0.313199997      -7.53443536E-20
  0.325199991      -6.79280137E-20
  0.337199986      -3.11569372E-20
  0.349200010       3.78386210E-20
  0.361200005       1.31585785E-19
  0.373199999       2.29707203E-19
  0.385199994       2.99888463E-19
  0.397199988       3.03686954E-19
  0.409200013       2.07264656E-19
  0.421200007      -4.67484395E-21
  0.433200002      -3.15380987E-19
  0.445199996      -6.67961528E-19
  0.457199991      -9.67704123E-19
  0.469199985      -1.09802819E-18
  0.481200010      -9.49669931E-19
  0.493200004      -4.57983849E-19
  0.505200028       3.61218762E-19
  0.517199993       1.38937443E-18
  0.529200017       2.40754143E-18
  0.541199982       3.12955058E-18
  0.553200006       3.26369673E-18
  0.565199971       2.59124067E-18
  0.577199996       1.04246895E-18
  0.589200020      -1.25146399E-18
  0.601199985      -3.94849330E-18
  0.613200009      -6.53465818E-18
  0.625199974      -8.40611958E-18
  0.637199998      -8.97661033E-18
  0.649200022      -7.78767799E-18
  0.661199987      -4.60275925E-18
  0.673200011       5.23263495E-19
  0.685199976       7.19554075E-18
  0.697200000       1.46434212E-17
  0.709200025       2.16971857E-17
  0.721199989       2.67991828E-17
  0.733200014       2.80984519E-17
  0.745199978       2.36942015E-17
  0.757200003       1.20797048E-17
  0.769200027      -7.21916999E-18
  0.781199992      -3.29149989E-17
  0.793200016      -6.13586630E-17
  0.805199981      -8.63743849E-17
  0.817200005      -9.98409779E-17
  0.829200029      -9.32094047E-17
  0.841199994      -5.98915490E-17
  0.853200018       1.89322431E-18
  0.865199983       8.65706516E-17
  0.877200007       1.79928697E-16
  0.889199972       2.60009733E-16
  0.901199996       3.00695823E-16
  0.913200021       2.77801052E-16
  0.925199986       1.76613821E-16
  0.937200010      -9.59695567E-19
  0.949199975      -2.31921671E-16
  0.961199999      -4.72462114E-16
  0.973200023      -6.64184316E-16
  0.985199988      -7.45985305E-16
  0.997200012      -6.69562816E-16
   1.00919998      -4.15015677E-16
   1.02119994      -2.24005411E-18
   1.03320003       5.05820548E-16
   1.04519999       1.01045334E-15
   1.05719995       1.39486696E-15
   1.06920004       1.54933592E-15
   1.08120000       1.39842069E-15
   1.09319997       9.23650783E-16
   1.10520005       1.75463034E-16
   1.11720002      -7.29693367E-16
   1.12919998      -1.62779838E-15
   1.14119995      -2.33815017E-15
   1.15320003      -2.70034273E-15
   1.16520000      -2.60916577E-15
   1.17719996      -2.03941605E-15
   1.18920004      -1.05473136E-15
   1.20120001       2.01845940E-16
   1.21319997       1.53373166E-15
   1.22520006       2.72751152E-15
   1.23720002       3.59253990E-15
   1.24919999       3.99488775E-15
   1.26119995       3.87846561E-15
   1.27320004       3.26907538E-15
   1.28520000       2.26101363E-15
   1.29719996       9.89870442E-16
   1.30920005      -4.01490732E-16
   1.32120001      -1.79478510E-15
   1.33319998      -3.11690062E-15
   1.34519994      -4.34220005E-15
   1.35720003      -5.47364718E-15
   1.36919999      -6.50559674E-15
   1.38119996      -7.37736983E-15
   1.39320004      -7.93206714E-15
   1.40520000      -7.89773605E-15
   1.41719997      -6.90644153E-15
   1.42920005      -4.56018441E-15
   1.44120002      -5.41321657E-16
   1.45319998       5.24879636E-15
   1.46519995       1.25526962E-14
   1.47720003       2.06596706E-14
   1.48920000       2.83877519E-14
   1.50119996       3.41739881E-14
   1.51320004       3.62823141E-14
   1.52520001       3.31116258E-14
   1.53719997       2.35591288E-14
   1.54920006       7.37199371E-15
   1.56120002      -1.45889177E-14
   1.57319999      -4.02433180E-14
   1.58519995      -6.63909642E-14
   1.59720004      -8.90288006E-14
   1.60920000      -1.03858118E-13
   1.62119997      -1.06917256E-13
   1.63320005      -9.52495664E-14
   1.64520001      -6.75059035E-14
   1.65719998      -2.43877320E-14
   1.66919994       3.11429010E-14
   1.68120003       9.39305261E-14
   1.69319999       1.56982256E-13
   1.70519996       2.12093079E-13
   1.71720004       2.50693644E-13
   1.72920001       2.64850669E-13
   1.74119997       2.48330029E-13
   1.75320005       1.97616093E-13
   1.76520002       1.12768342E-13
   1.77719998      -2.00729169E-15
   1.78919995      -1.38186175E-13
   1.80120003      -2.83238168E-13
   1.81320000      -4.21466573E-13
   1.82519996      -5.35352687E-13
   1.83720005      -6.07314546E-13
   1.84920001      -6.21725436E-13
   1.86119998      -5.66987863E-13
   1.87320006      -4.37434485E-13
   1.88520002      -2.34834369E-13
   1.89719999       3.06899383E-14
   1.90919995       3.40480628E-13
   1.92120004       6.67993276E-13
   1.93320000       9.80318149E-13
   1.94519997       1.24056657E-12
   1.95720005       1.41105855E-12
   1.96920002       1.45717889E-12
   1.98119998       1.35166878E-12
   1.99319994       1.07900733E-12
   2.00519991       6.39398799E-13
   2.01719999       5.17762645E-14
   2.02920008      -6.44818508E-13
   2.04119992      -1.39206745E-12
   2.05320001      -2.11582336E-12
   2.06520009      -2.73224954E-12
   2.07719994      -3.15630942E-12
   2.08920002      -3.31180677E-12
   2.10120010      -3.14177091E-12
   2.11319995      -2.61774435E-12
   2.12520003      -1.74651623E-12
   2.13720012      -5.73097505E-13
   2.14919996       8.20758175E-13
   2.16120005       2.32253062E-12
   2.17319989       3.79874387E-12
   2.18519998       5.10735725E-12
   2.19720006       6.11112333E-12
   2.20919991       6.69022997E-12
   2.22119999       6.75282096E-12
   2.23320007       6.24246358E-12
   2.24519992       5.14228460E-12
   2.25720000       3.47609680E-12
   2.26920009       1.30724945E-12
   2.28119993      -1.26384797E-12
   2.29320002      -4.10272510E-12
   2.30520010      -7.04392621E-12
   2.31719995      -9.89422867E-12
   2.32920003      -1.24366116E-11
   2.34120011      -1.44360071E-11
   2.35319996      -1.56480454E-11
   2.36520004      -1.58319659E-11
   2.37719989      -1.47684469E-11
   2.38919997      -1.22825188E-11
   2.40120006      -8.27082240E-12
   2.41319990      -2.73157105E-12
   2.42519999       4.20555344E-12
   2.43720007       1.22532349E-11
   2.44919991       2.09486786E-11
   2.46120000       2.96491477E-11
   2.47320008       3.75459663E-11
   2.48519993       4.37014556E-11
   2.49720001       4.71116618E-11
   2.50920010       4.67953107E-11
   2.52119994       4.19059648E-11
   2.53320003       3.18603095E-11
   2.54520011       1.64711179E-11
   2.55719995      -3.93044017E-12
   2.56920004      -2.84013802E-11
   2.58119988      -5.53416028E-11
   2.59319997      -8.25144397E-11
   2.60520005      -1.07146646E-10
   2.61719990      -1.26114355E-10
   2.62919998      -1.36212069E-10
   2.64120007      -1.34491224E-10
   2.65319991      -1.18642776E-10
   2.66520000      -8.73890127E-11
   2.67720008      -4.08407891E-11
   2.68919992       1.92272604E-11
   2.70120001       8.92309143E-11
   2.71320009       1.63801500E-10
   2.72519994       2.36012487E-10
   2.73720002       2.97821157E-10
   2.74920011       3.40718898E-10
   2.76119995       3.56559171E-10
   2.77320004       3.38507805E-10
   2.78520012       2.82037144E-10
   2.79719996       1.85865656E-10
   2.80920005       5.27322352E-11
   2.82119989      -1.10107923E-10
   2.83319998      -2.90771129E-10
   2.84520006      -4.73099504E-10
   2.85719991      -6.37529529E-10
   2.86919999      -7.62476637E-10
   2.88120008      -8.26181179E-10
   2.89319992      -8.08904721E-10
   2.90520000      -6.95306701E-10
   2.91720009      -4.76787554E-10
   2.92919993      -1.53548327E-10
   2.94120002       2.63886302E-10
   2.95320010       7.53923812E-10
   2.96519995       1.28413524E-09
   2.97720003       1.81258974E-09
   2.98920012       2.29032793E-09
   3.00119996       2.66490829E-09
   3.01320004       2.88483970E-09
   3.02519989       2.90461744E-09
   3.03719997       2.68997824E-09
   3.04920006       2.22293184E-09
   3.06119990       1.50608293E-09
   3.07319999       5.65776426E-10
   3.08520007      -5.46365730E-10
   3.09719992      -1.75384962E-09
   3.10920000      -2.95787395E-09
   3.12120008      -4.04211997E-09
   3.13319993      -4.87967622E-09
   3.14520001      -5.34184563E-09
   3.15720010      -5.30843902E-09
   3.16919994      -4.67906380E-09
   3.18120003      -3.38483241E-09
   3.19320011      -1.39992629E-09
   3.20519996       1.24752175E-09
   3.21720004       4.46567539E-09
   3.22919989       8.09067213E-09
   3.24119997       1.18798811E-08
   3.25320005       1.55067426E-08
   3.26519990       1.85570563E-08
   3.27719998       2.05264445E-08
   3.28920007       2.08186997E-08
   3.30119991       1.87447196E-08
   3.31320000       1.35218983E-08
   3.32520008       4.27375957E-09
   3.33719993      -9.97001415E-09
   3.34920001      -3.02728260E-08
   3.36120009      -5.77892258E-08
   3.37319994      -9.37610949E-08
   3.38520002      -1.39511258E-07
   3.39720011      -1.96433390E-07
   3.40919995      -2.65977746E-07
   3.42120004      -3.49632018E-07
   3.43319988      -4.48896515E-07
   3.44519997      -5.65254197E-07
   3.45720005      -7.00135729E-07
   3.46919990      -8.54879715E-07
   3.48119998      -1.03069033E-06
   3.49320006      -1.22859296E-06
   3.50519991      -1.44939111E-06
   3.51719999      -1.69362443E-06
   3.52920008      -1.96153337E-06
   3.54119992      -2.25302961E-06
   3.55320001      -2.56767544E-06
   3.56520009      -2.90467369E-06
   3.57719994      -3.26286863E-06
   3.58920002      -3.64076050E-06
   3.60120010      -4.03652939E-06
   3.61319995      -4.44807210E-06
   3.62520003      -4.87304760E-06
   3.63720012      -5.30892885E-06
   3.64919996      -5.75306467E-06
   3.66120005      -6.20273931E-06
   3.67319989      -6.65523567E-06
   3.68519998      -7.10789755E-06
   3.69720006      -7.55818246E-06
   3.70919991      -8.00371527E-06
   3.72119999      -8.44232818E-06
   3.73320007      -8.87209808E-06
   3.74519992      -9.29136695E-06
   3.75720000      -9.69875782E-06
   3.76920009      -1.00931784E-05
   3.78119993      -1.04738237E-05
   3.79320002      -1.08401573E-05
   3.80520010      -1.11918989E-05
   3.81719995      -1.15289995E-05
   3.82920003      -1.18516127E-05
   3.84120011      -1.21600697E-05
   3.85319996      -1.24548460E-05
   3.86520004      -1.27365320E-05
   3.87719989      -1.30058052E-05
   3.88919997      -1.32634023E-05
   3.90120006      -1.35100991E-05
   3.91319990      -1.37466914E-05
   3.92519999      -1.39739786E-05
   3.93720007      -1.41927585E-05
   3.94919991      -1.44038204E-05
   3.96120000      -1.46079474E-05
   3.97320008      -1.48059189E-05
   3.98519993      -1.49985181E-05
   3.99720001      -1.51865361E-05
   4.00920010      -1.53707879E-05
   4.02120018      -1.55521138E-05
   4.03319979      -1.57313825E-05
   4.04519987      -1.59094925E-05
   4.05719995      -1.60873642E-05
   4.06920004      -1.62659235E-05
   4.08120012      -1.64460871E-05
   4.09320021      -1.66287336E-05
   4.10519981      -1.68146726E-05
   4.11719990      -1.70046114E-05
   4.12919998      -1.71991160E-05
   4.14120007      -1.73985773E-05
   4.15320015      -1.76031826E-05
   4.16520023      -1.78128885E-05
   4.17719984      -1.80274092E-05
   4.18919992      -1.82462081E-05
   4.20120001      -1.84685141E-05
   4.21320009      -1.86933448E-05
   4.22520018      -1.89195289E-05
   4.23719978      -1.91457730E-05
   4.24919987      -1.93707110E-05
   4.26119995      -1.95929624E-05
   4.27320004      -1.98112084E-05
   4.28520012      -2.00242466E-05
   4.29720020      -2.02310566E-05
   4.30919981      -2.04308508E-05
   4.32119989      -2.06231052E-05
   4.33319998      -2.08075962E-05
   4.34520006      -2.09843947E-05
   4.35720015      -2.11538681E-05
   4.36920023      -2.13166495E-05
   4.38119984      -2.14736065E-05
   4.39319992      -2.16257886E-05
   4.40520000      -2.17743745E-05
   4.41720009      -2.19206158E-05
   4.42920017      -2.20657748E-05
   4.44119978      -2.22110830E-05
   4.45319986      -2.23576808E-05
   4.46519995      -2.25065869E-05
   4.47720003      -2.26586853E-05
   4.48920012      -2.28147019E-05
   4.50120020      -2.29752204E-05
   4.51319981      -2.31406848E-05
   4.52519989      -2.33114260E-05
   4.53719997      -2.34876934E-05
   4.54920006      -2.36696815E-05
   4.56120014      -2.38575685E-05
   4.57320023      -2.40515328E-05
   4.58519983      -2.42517817E-05
   4.59719992      -2.44585517E-05
   4.60920000      -2.46721138E-05
   4.62120008      -2.48927645E-05
   4.63320017      -2.51207948E-05
   4.64519978      -2.53564685E-05
   4.65719986      -2.55999803E-05
   4.66919994      -2.58514301E-05
   4.68120003      -2.61107652E-05
   4.69320011      -2.63777711E-05
   4.70520020      -2.66520419E-05
   4.71719980      -2.69329666E-05
   4.72919989      -2.72197467E-05
   4.74119997      -2.75114089E-05
   4.75320005      -2.78068474E-05
   4.76520014      -2.81048742E-05
   4.77720022      -2.84042799E-05
   4.78919983      -2.87039002E-05
   4.80119991      -2.90026801E-05
   4.81320000      -2.92997429E-05
   4.82520008      -2.95944355E-05
   4.83720016      -2.98863833E-05
   4.84919977      -3.01754990E-05
   4.86119986      -3.04619916E-05
   4.87319994      -3.07463597E-05
   4.88520002      -3.10293581E-05
   4.89720011      -3.13119381E-05
   4.90920019      -3.15952202E-05
   4.92119980      -3.18804196E-05
   4.93319988      -3.21687767E-05
   4.94519997      -3.24615430E-05
   4.95720005      -3.27598973E-05
   4.96920013      -3.30649636E-05
   4.98120022      -3.33777643E-05
   4.99319983      -3.36992598E-05
   5.00519991      -3.40303523E-05
   5.01719999      -3.43719257E-05
   5.02920008      -3.47248751E-05
   5.04120016      -3.50901391E-05
   5.05319977      -3.54687509E-05
   5.06519985      -3.58617981E-05
   5.07719994      -3.62704704E-05
   5.08920002      -3.66959866E-05
   5.10120010      -3.71395363E-05
   5.11320019      -3.76022108E-05
   5.12519979      -3.80848869E-05
   5.13719988      -3.85881103E-05
   5.14919996      -3.91119465E-05
   5.16120005      -3.96558753E-05
   5.17320013      -4.02186706E-05
   5.18520021      -4.07982770E-05
   5.19719982      -4.13917805E-05
   5.20919991      -4.19953685E-05
   5.22119999      -4.26043553E-05
   5.23320007      -4.32132583E-05
   5.24520016      -4.38159113E-05
   5.25719976      -4.44056459E-05
   5.26919985      -4.49754989E-05
   5.28119993      -4.55184600E-05
   5.29320002      -4.60277515E-05
   5.30520010      -4.64970908E-05
   5.31720018      -4.69209990E-05
   5.32919979      -4.72950414E-05
   5.34119987      -4.76161113E-05
   5.35319996      -4.78825859E-05
   5.36520004      -4.80945237E-05
   5.37720013      -4.82537398E-05
   5.38920021      -4.83638687E-05
   5.40119982      -4.84303455E-05
   5.41319990      -4.84603297E-05
   5.42519999      -4.84625525E-05
   5.43720007      -4.84471238E-05
   5.44920015      -4.84253287E-05
   5.46120024      -4.84092998E-05
   5.47319984      -4.84117263E-05
   5.48519993      -4.84455304E-05
   5.49720001      -4.85234923E-05
   5.50920010      -4.86579156E-05
   5.52120018      -4.88602600E-05
   5.53319979      -4.91407991E-05
   5.54519987      -4.95082786E-05
   5.55719995      -4.99696107E-05
   5.56920004      -5.05295502E-05
   5.58120012      -5.11904254E-05
   5.59320021      -5.19518726E-05
   5.60519981      -5.28105884E-05
   5.61719990      -5.37601154E-05
   5.62919998      -5.47906493E-05
   5.64120007      -5.58888678E-05
   5.65320015      -5.70377742E-05
   5.66520023      -5.82166176E-05
   5.67719984      -5.94008125E-05
   5.68919992      -6.05619098E-05
   5.70120001      -6.16676552E-05
   5.71320009      -6.26820547E-05
   5.72520018      -6.35655961E-05
   5.73719978      -6.42754239E-05
   5.74919987      -6.47657362E-05
   5.76119995      -6.49881695E-05
   5.77320004      -6.48923233E-05
   5.78520012      -6.44263637E-05
   5.79720020      -6.35377437E-05
   5.80919981      -6.21739309E-05
   5.82119989      -6.02833097E-05
   5.83319998      -5.78160871E-05
   5.84520006      -5.47252566E-05
   5.85720015      -5.09676247E-05
   5.86920023      -4.65048142E-05
   5.88119984      -4.13043017E-05
   5.89319992      -3.53404066E-05
   5.90520000      -2.85952610E-05
   5.91720009      -2.10596863E-05
   5.92920017      -1.27339963E-05
   5.94119978      -3.62870742E-06
   5.95319986       6.23489177E-06
   5.96519995       1.68243150E-05
   5.97720003       2.80956010E-05
   5.98920012       3.99932178E-05
   6.00120020       5.24501593E-05
   6.01319981       6.53882016E-05
   6.02519989       7.87184254E-05
   6.03719997       9.23418702E-05
   6.04920006       1.06150437E-04
   6.06120014       1.20028017E-04
   6.07320023       1.33851732E-04
   6.08519983       1.47493454E-04
   6.09719992       1.60821422E-04
   6.10920000       1.73702007E-04
   6.12120008       1.86001605E-04
   6.13320017       1.97588670E-04
   6.14519978       2.08335739E-04
   6.15719986       2.18121510E-04
   6.16919994       2.26832824E-04
   6.18120003       2.34366773E-04
   6.19320011       2.40632478E-04
   6.20520020       2.45552976E-04
   6.21719980       2.49066681E-04
   6.22919989       2.51128833E-04
   6.24119997       2.51712714E-04
   6.25320005       2.50810321E-04
   6.26520014       2.48433120E-04
   6.27720022       2.44612194E-04
   6.28919983       2.39398098E-04
   6.30119991       2.32860519E-04
   6.31320000       2.25087468E-04
   6.32520008       2.16184082E-04
   6.33720016       2.06271172E-04
   6.34919977       1.95483488E-04
   6.36119986       1.83967539E-04
   6.37319994       1.71879306E-04
   6.38520002       1.59381641E-04
   6.39720011       1.46641556E-04
   6.40920019       1.33827401E-04
   6.42119980       1.21105913E-04
   6.43319988       1.08639375E-04
   6.44519997       9.65827639E-05
   6.45720005       8.50810757E-05
   6.46920013       7.42668781E-05
   6.48120022       6.42580490E-05
   6.49319983       5.51559060E-05
   6.50519991       4.70436389E-05
   6.51719999       3.99851924E-05
   6.52920008       3.40244806E-05
   6.54120016       2.91850974E-05
   6.55319977       2.54704519E-05
   6.56519985       2.28642693E-05
   6.57719994       2.13315361E-05
   6.58920002       2.08197762E-05
   6.60120010       2.12606319E-05
   6.61320019       2.25717358E-05
   6.62519979       2.46587570E-05
   6.63719988       2.74176273E-05
   6.64919996       3.07368355E-05
   6.66120005       3.44997679E-05
   6.67320013       3.85870335E-05
   6.68520021       4.28787280E-05
   6.69719982       4.72565735E-05
   6.70919991       5.16059445E-05
   6.72119999       5.58177126E-05
   6.73320007       5.97898797E-05
   6.74520016       6.34290554E-05
   6.75719976       6.66516789E-05
   6.76919985       6.93850088E-05
   6.78119993       7.15679635E-05
   6.79320002       7.31516193E-05
   6.80520010       7.40996038E-05
   6.81720018       7.43881901E-05
   6.82919979       7.40062387E-05
   6.84119987       7.29548628E-05
   6.85319996       7.12469846E-05
   6.86520004       6.89066292E-05
   6.87720013       6.59680882E-05
   6.88920021       6.24749009E-05
   6.90119982       5.84787231E-05
   6.91319990       5.40380388E-05
   6.92519999       4.92168401E-05
   6.93720007       4.40831936E-05
   6.94920015       3.87077962E-05
   6.96120024       3.31625197E-05
   6.97319984       2.75190105E-05
   6.98519993       2.18472869E-05
   6.99720001       1.62145025E-05
   7.00920010       1.06837633E-05
   7.02120018       5.31310206E-06
   7.03319979       1.54610348E-07
   7.04519987      -4.74627450E-06
   7.05719995      -9.35129538E-06
   7.06920004      -1.36297194E-05
   7.08120012      -1.75585010E-05
   7.09320021      -2.11222668E-05
   7.10519981      -2.43131108E-05
   7.11719990      -2.71302360E-05
   7.12919998      -2.95794307E-05
   7.14120007      -3.16724218E-05
   7.15320015      -3.34260876E-05
   7.16520023      -3.48615649E-05
   7.17719984      -3.60033118E-05
   7.18919992      -3.68780893E-05
   7.20120001      -3.75139243E-05
   7.21320009      -3.79390876E-05
   7.22520018      -3.81811187E-05
   7.23719978      -3.82659018E-05
   7.24919987      -3.82168728E-05
   7.26119995      -3.80543206E-05
   7.27320004      -3.77949000E-05
   7.28520012      -3.74512674E-05
   7.29720020      -3.70319576E-05
   7.30919981      -3.65414198E-05
   7.32119989      -3.59802871E-05
   7.33319998      -3.53457945E-05
   7.34520006      -3.46324086E-05
   7.35720015      -3.38325517E-05
   7.36920023      -3.29374707E-05
   7.38119984      -3.19381506E-05
   7.39319992      -3.08262752E-05
   7.40520000      -2.95951359E-05
   7.41720009      -2.82405053E-05
   7.42920017      -2.67614105E-05
   7.44119978      -2.51607435E-05
   7.45319986      -2.34457239E-05
   7.46519995      -2.16281715E-05
   7.47720003      -1.97245736E-05
   7.48920012      -1.77559450E-05
   7.50120020      -1.57474824E-05
   7.51319981      -1.37280531E-05
   7.52519989      -1.17294812E-05
   7.53719997      -9.78571916E-06
   7.54920006      -7.93188883E-06
   7.56120014      -6.20325409E-06
   7.57320023      -4.63414153E-06
   7.58519983      -3.25686028E-06
   7.59719992      -2.10064400E-06
   7.60920000      -1.19065874E-06
   7.62120008      -5.47098750E-07
   7.63320017      -1.84404755E-07
   7.64519978      -1.10623603E-07
   7.65719986      -3.26933332E-07
   7.66919994      -8.27343626E-07
   7.68120003      -1.59858678E-06
   7.69320011      -2.62020126E-06
   7.70520020      -3.86481088E-06
   7.71719980      -5.29859653E-06
   7.72919989      -6.88194996E-06
   7.74119997      -8.57029863E-06
   7.75320005      -1.03150805E-05
   7.76520014      -1.20648565E-05
   7.77720022      -1.37665184E-05
   7.78919983      -1.53665824E-05
   7.80119991      -1.68125189E-05
   7.81320000      -1.80540901E-05
   7.82520008      -1.90446717E-05
   7.83720016      -1.97424961E-05
   7.84919977      -2.01118128E-05
   7.86119986      -2.01238981E-05
   7.87319994      -1.97579375E-05
   7.88520002      -1.90016854E-05
   7.89720011      -1.78519440E-05
   7.90920019      -1.63148143E-05
   7.92119980      -1.44057185E-05
   7.93319988      -1.21491785E-05
   7.94519997      -9.57839893E-06
   7.95720005      -6.73460818E-06
   7.96920013      -3.66621930E-06
   7.98120022      -4.27813205E-07
   7.99319983       2.92102186E-06
   8.00520039       6.31696639E-06
   8.01720047       9.69433040E-06
   8.02919960       1.29864593E-05
   8.04119968       1.61271710E-05
   8.05319977       1.90521769E-05
   8.06519985       2.17004617E-05
   8.07719994       2.40156132E-05
   8.08920002       2.59470671E-05
   8.10120010       2.74512495E-05
   8.11320019       2.84926027E-05
   8.12520027       2.90444768E-05
   8.13720036       2.90898843E-05
   8.14920044       2.86220766E-05
   8.16119957       2.76449682E-05
   8.17319965       2.61733458E-05
   8.18519974       2.42329006E-05
   8.19719982       2.18600235E-05
   8.20919991       1.91013842E-05
   8.22119999       1.60132677E-05
   8.23320007       1.26606565E-05
   8.24520016       9.11608186E-06
   8.25720024       5.45822104E-06
   8.26920033       1.77028153E-06
   8.28120041      -1.86182490E-06
   8.29319954      -5.35146410E-06
   8.30519962      -8.61338322E-06
   8.31719971      -1.15658822E-05
   8.32919979      -1.41329683E-05
   8.34119987      -1.62464585E-05
   8.35319996      -1.78479204E-05
   8.36520004      -1.88904123E-05
   8.37720013      -1.93399374E-05
   8.38920021      -1.91765466E-05
   8.40120029      -1.83950779E-05
   8.41320038      -1.70054536E-05
   8.42520046      -1.50325459E-05
   8.43719959      -1.25156266E-05
   8.44919968      -9.50736285E-06
   8.46119976      -6.07246375E-06
   8.47319984      -2.28596991E-06
   8.48519993       1.76871993E-06
   8.49720001       6.00203066E-06
   8.50920010       1.03205221E-05
   8.52120018       1.46292568E-05
   8.53320026       1.88341473E-05
   8.54520035       2.28442186E-05
   8.55720043       2.65737272E-05
   8.56919956       2.99440853E-05
   8.58119965       3.28855422E-05
   8.59319973       3.53386095E-05
   8.60519981       3.72552167E-05
   8.61719990       3.85995372E-05
   8.62919998       3.93485898E-05
   8.64120007       3.94924828E-05
   8.65320015       3.90344212E-05
   8.66520023       3.79904595E-05
   8.67720032       3.63889812E-05
   8.68920040       3.42699495E-05
   8.70119953       3.16839614E-05
   8.71319962       2.86911072E-05
   8.72519970       2.53596354E-05
   8.73719978       2.17644756E-05
   8.74919987       1.79856379E-05
   8.76119995       1.41065075E-05
   8.77320004       1.02120557E-05
   8.78520012       6.38703750E-06
   8.79720020       2.71415206E-06
   8.80920029      -7.27736619E-07
   8.82120037      -3.86531838E-06
   8.83320045      -6.63244418E-06
   8.84519958      -8.97157770E-06
   8.85719967      -1.08350687E-05
   8.86919975      -1.21862031E-05
   8.88119984      -1.30000035E-05
   8.89319992      -1.32637660E-05
   8.90520000      -1.29773143E-05
   8.91720009      -1.21529492E-05
   8.92920017      -1.08151180E-05
   8.94120026      -8.99978295E-06
   8.95320034      -6.75352658E-06
   8.96520042      -4.13240105E-06
   8.97719955      -1.20055120E-06
   8.98919964       1.97134750E-06
   9.00119972       5.30780198E-06
   9.01319981       8.73032423E-06
   9.02519989       1.21593084E-05
   9.03719997       1.55159287E-05
   9.04920006       1.87239912E-05
   9.06120014       2.17117176E-05
   9.07320023       2.44133898E-05
   9.08520031       2.67708201E-05
   9.09720039       2.87346375E-05
   9.10919952       3.02653134E-05
   9.12119961       3.13339406E-05
   9.13319969       3.19227220E-05
   9.14519978       3.20251966E-05
   9.15719986       3.16461665E-05
   9.16919994       3.08013659E-05
   9.18120003       2.95168320E-05
   9.19320011       2.78280822E-05
   9.20520020       2.57790780E-05
   9.21720028       2.34209838E-05
   9.22920036       2.08108322E-05
   9.24120045       1.80100596E-05
   9.25319958       1.50829883E-05
   9.26519966       1.20953091E-05
   9.27719975       9.11254938E-06
   9.28919983       6.19862794E-06
   9.30119991       3.41447867E-06
   9.31320000       8.16795023E-07
   9.32520008      -1.54307952E-06
   9.33720016      -3.62010019E-06
   9.34920025      -5.37629194E-06
   9.36120033      -6.78132710E-06
   9.37320042      -7.81290782E-06
   9.38519955      -8.45694922E-06
   9.39719963      -8.70757231E-06
   9.40919971      -8.56690349E-06
   9.42119980      -8.04470710E-06
   9.43319988      -7.15786837E-06
   9.44519997      -5.92973129E-06
