  -10.0000000       1.00000002E-24
  -9.94999981       1.00000002E-24
  -9.89999962       1.00000002E-24
  -9.85000038       1.00000002E-24
  -9.80000019       1.00000012E-24
  -9.75000000       1.00000022E-24
  -9.69999981       1.00000032E-24
  -9.64999962       1.00000032E-24
  -9.60000038       1.00000032E-24
  -9.55000019      -1.17691201E-21
  -9.50000000      -1.68440953E-20
  -9.44999981      -1.19669460E-19
  -9.39999962      -5.50940752E-19
  -9.35000038      -1.77696159E-18
  -9.30000019      -3.89123338E-18
  -9.25000000      -3.92170919E-18
  -9.19999981       1.07012472E-17
  -9.14999962       7.15312177E-17
  -9.10000038       2.31133665E-16
  -9.05000019       5.31313963E-16
  -9.00000000       8.97998814E-16
  -8.94999981       9.40965936E-16
  -8.89999962      -2.74459586E-16
  -8.85000038      -4.23457562E-15
  -8.80000019      -1.22956726E-14
  -8.75000000      -2.37888441E-14
  -8.69999981      -3.28265213E-14
  -8.64999962      -2.49792218E-14
  -8.60000038       2.30016422E-14
  -8.55000019       1.35362370E-13
  -8.50000000       3.16573021E-13
  -8.44999981       5.17569277E-13
  -8.39999962       6.00059770E-13
  -8.35000038       3.25576100E-13
  -8.30000019      -5.91217505E-13
  -8.25000000      -2.32850263E-12
  -8.19999981      -4.69979090E-12
  -8.14999962      -6.86129972E-12
  -8.10000038      -7.14795757E-12
  -8.05000019      -3.27863279E-12
  -8.00000000       6.83916942E-12
  -7.94999981       2.36434691E-11
  -7.90000010       4.40846387E-11
  -7.84999990       6.01954042E-11
  -7.80000019       5.92396063E-11
  -7.75000000       2.66520001E-11
  -7.69999981      -4.76503212E-11
  -7.65000010      -1.60431390E-10
  -7.59999990      -2.86607932E-10
  -7.55000019      -3.75700249E-10
  -7.50000000      -3.58532287E-10
  -7.44999981      -1.67691791E-10
  -7.40000010       2.29409894E-10
  -7.34999990       7.92990673E-10
  -7.30000019       1.38404244E-09
  -7.25000000       1.76706161E-09
  -7.19999981       1.65795955E-09
  -7.15000010       8.20243318E-10
  -7.09999990      -8.07960532E-10
  -7.05000019      -2.99638114E-09
  -7.00000000      -5.17071896E-09
  -6.94999981      -6.48053922E-09
  -6.90000010      -6.01397288E-09
  -6.84999990      -3.13498827E-09
  -6.80000019       2.14406515E-09
  -6.75000000       8.89380836E-09
  -6.69999981       1.52556208E-08
  -6.65000010       1.87920364E-08
  -6.59999990       1.71968288E-08
  -6.55000019       9.21314847E-09
  -6.50000000      -4.53124738E-09
  -6.44999981      -2.11301945E-08
  -6.40000010      -3.57481156E-08
  -6.34999990      -4.28132054E-08
  -6.30000019      -3.78506648E-08
  -6.25000000      -1.94343208E-08
  -6.19999981       9.46726253E-09
  -6.15000010       4.14423056E-08
  -6.09999990       6.62570727E-08
  -6.05000019       7.39591144E-08
  -6.00000000       5.86385767E-08
  -5.94999981       2.15490648E-08
  -5.90000010      -2.77856245E-08
  -5.84999990      -7.33972385E-08
  -5.80000019      -9.76116752E-08
  -5.75000000      -8.75240289E-08
  -5.69999981      -4.10693062E-08
  -5.65000010       2.97872340E-08
  -5.59999990       1.00645380E-07
  -5.55000019       1.41501189E-07
  -5.50000000       1.27313768E-07
  -5.44999981       4.90276513E-08
  -5.40000010      -7.90984700E-08
  -5.34999990      -2.19439528E-07
  -5.30000019      -3.19752615E-07
  -5.25000000      -3.29220114E-07
  -5.19999981      -2.17278924E-07
  -5.15000010       1.10927791E-08
  -5.09999990       3.09707787E-07
  -5.05000019       5.98662780E-07
  -5.00000000       7.84350163E-07
  -4.94999981       7.86876797E-07
  -4.90000010       5.66658002E-07
  -4.84999990       1.41487860E-07
  -4.80000019      -4.12031227E-07
  -4.75000000      -9.73927968E-07
  -4.69999981      -1.40892109E-06
  -4.65000010      -1.59882768E-06
  -4.59999990      -1.47005119E-06
  -4.55000019      -1.00928969E-06
  -4.50000000      -2.65352753E-07
  -4.44999981       6.60071635E-07
  -4.40000010       1.62699848E-06
  -4.34999990       2.47200660E-06
  -4.30000019       3.02207354E-06
  -4.25000000       3.11087592E-06
  -4.19999981       2.60371826E-06
  -4.15000010       1.43520322E-06
  -4.09999990      -3.43633900E-07
  -4.05000019      -2.52246809E-06
  -4.00000000      -4.71551994E-06
  -3.95000005      -6.39577775E-06
  -3.90000010      -6.99325165E-06
  -3.84999990      -6.04980687E-06
  -3.79999995      -3.39660528E-06
  -3.75000000       7.01995305E-07
  -3.70000005       5.50103050E-06
  -3.65000010       9.87085878E-06
  -3.59999990       1.25442284E-05
  -3.54999995       1.24696235E-05
  -3.50000000       9.17676789E-06
  -3.45000005       3.03408410E-06
  -3.40000010      -4.71013436E-06
  -3.34999990      -1.21577214E-05
  -3.29999995      -1.72335549E-05
  -3.25000000      -1.82854765E-05
  -3.20000005      -1.46340226E-05
  -3.15000010      -6.88619775E-06
  -3.09999990       3.11759663E-06
  -3.04999995       1.27471149E-05
  -3.00000000       1.93117939E-05
  -2.95000005       2.08659349E-05
  -2.90000010       1.68353054E-05
  -2.84999990       8.25066036E-06
  -2.79999995      -2.50973562E-06
  -2.75000000      -1.24083235E-05
  -2.70000005      -1.86597590E-05
  -2.65000010      -1.95753619E-05
  -2.59999990      -1.50641918E-05
  -2.54999995      -6.62504181E-06
  -2.50000000       3.16518572E-06
  -2.45000005       1.14889062E-05
  -2.40000010       1.61627740E-05
  -2.34999990       1.62540964E-05
  -2.29999995       1.22424190E-05
  -2.25000000       5.70011935E-06
  -2.20000005      -1.35763185E-06
  -2.15000010      -7.18804677E-06
  -2.09999990      -1.08266058E-05
  -2.04999995      -1.22093479E-05
  -2.00000000      -1.19055012E-05
  -1.95000005      -1.06209700E-05
  -1.89999998      -8.72796772E-06
  -1.85000002      -6.05743207E-06
  -1.79999995      -2.06436562E-06
  -1.75000000       3.70488647E-06
  -1.70000005       1.10712936E-05
  -1.64999998       1.88951526E-05
  -1.60000002       2.51773872E-05
  -1.54999995       2.76256742E-05
  -1.50000000       2.45048359E-05
  -1.45000005       1.54338268E-05
  -1.39999998       1.77083393E-06
  -1.35000002      -1.36336048E-05
  -1.29999995      -2.72836933E-05
  -1.25000000      -3.61894090E-05
  -1.20000005      -3.88645713E-05
  -1.14999998      -3.57409081E-05
  -1.10000002      -2.87873409E-05
  -1.04999995      -2.04611861E-05
  -1.00000000      -1.24350063E-05
 -0.949999988      -4.69484849E-06
 -0.899999976       4.49556319E-06
 -0.850000024       1.76114481E-05
 -0.800000012       3.61723251E-05
 -0.750000000       5.90365707E-05
 -0.699999988       8.15260282E-05
 -0.649999976       9.60116668E-05
 -0.600000024       9.40684113E-05
 -0.550000012       6.96483912E-05
 -0.500000000       2.21834616E-05
 -0.449999988      -4.16496587E-05
 -0.400000006      -1.08460976E-04
 -0.349999994      -1.61200223E-04
 -0.300000012      -1.84030025E-04
 -0.250000000      -1.67538223E-04
 -0.200000003      -1.12493799E-04
 -0.150000006      -3.06688926E-05
 -0.100000001       5.78541403E-05
  -5.00000007E-02   1.30282569E-04
   0.00000000       1.67944570E-04
   5.00000007E-02   1.62132841E-04
  0.100000001       1.16955278E-04
  0.150000006       4.81236420E-05
  0.200000003      -2.20323873E-05
  0.250000000      -7.17330113E-05
  0.300000012      -8.67231211E-05
  0.349999994      -6.47137713E-05
  0.400000006      -1.58067141E-05
  0.449999988       4.11993387E-05
  0.500000000       8.53061283E-05
  0.550000012       1.00357283E-04
  0.600000024       8.02270515E-05
  0.649999976       3.04660989E-05
  0.699999988      -3.40055376E-05
  0.750000000      -9.41893086E-05
  0.800000012      -1.33336434E-04
  0.850000024      -1.42123972E-04
  0.899999976      -1.21032434E-04
  0.949999988      -7.93653089E-05
   1.00000000      -3.15506441E-05
   1.04999995       7.76657726E-06
   1.10000002       2.80847271E-05
   1.14999998       2.55036084E-05
   1.20000005       2.75762955E-06
   1.25000000      -3.27998096E-05
   1.29999995      -7.22662444E-05
   1.35000002      -1.08172273E-04
   1.39999998      -1.36527728E-04
   1.45000005      -1.57607123E-04
   1.50000000      -1.75626861E-04
   1.54999995      -1.97692032E-04
   1.60000002      -2.32329665E-04
   1.64999998      -2.87713978E-04
   1.70000005      -3.69550398E-04
   1.75000000      -4.78693604E-04
   1.79999995      -6.08941657E-04
   1.85000002      -7.45886762E-04
   1.89999998      -8.67904921E-04
   1.95000005      -9.50058515E-04
   2.00000000      -9.70795751E-04
   2.04999995      -9.20080813E-04
   2.09999990      -8.06466036E-04
   2.15000010      -6.60180231E-04
   2.20000005      -5.29958517E-04
   2.25000000      -4.73081804E-04
   2.29999995      -5.40474255E-04
   2.34999990      -7.60889903E-04
   2.40000010      -1.12931710E-03
   2.45000005      -1.60411955E-03
   2.50000000      -2.11508805E-03
   2.54999995      -2.58113444E-03
   2.59999990      -2.93295411E-03
   2.65000010      -3.13387276E-03
   2.70000005      -3.19215632E-03
   2.75000000      -3.16046318E-03
   2.79999995      -3.12212924E-03
   2.84999990      -3.16828396E-03
   2.90000010      -3.37285688E-03
   2.95000005      -3.77323688E-03
   3.00000000      -4.36240621E-03
   3.04999995      -5.09446161E-03
   3.09999990      -5.90096414E-03
   3.15000010      -6.71216380E-03
   3.20000005      -7.47600524E-03
   3.25000000      -8.16927850E-03
   3.29999995      -8.79866816E-03
   3.34999990      -9.39334556E-03
   3.40000010      -9.99360345E-03
   3.45000005      -1.06407618E-02
   3.50000000      -1.13720093E-02
   3.54999995      -1.22207832E-02
   3.59999990      -1.32202264E-02
   3.65000010      -1.44055504E-02
   3.70000005      -1.58117078E-02
   3.75000000      -1.74653418E-02
   3.79999995      -1.93734393E-02
   3.84999990      -2.15138737E-02
   3.90000010      -2.38335002E-02
   3.95000005      -2.62574106E-02
   4.00000000      -2.87087280E-02
   4.05000019      -3.11336350E-02
   4.09999990      -3.35233584E-02
   4.15000010      -3.59246284E-02
   4.19999981      -3.84336114E-02
   4.25000000      -4.11739461E-02
   4.30000019      -4.42654081E-02
   4.34999990      -4.77936938E-02
   4.40000010      -5.17918766E-02
   4.44999981      -5.62400855E-02
   4.50000000      -6.10835850E-02
   4.55000019      -6.62623867E-02
   4.59999990      -7.17412755E-02
   4.65000010      -7.75289908E-02
   4.69999981      -8.36794749E-02
   4.75000000      -9.02749449E-02
   4.80000019      -9.73980054E-02
   4.84999990     -0.105104245    
   4.90000010     -0.113406591    
   4.94999981     -0.122278266    
   5.00000000     -0.131673709    
   5.05000019     -0.141559765    
   5.09999990     -0.151944801    
   5.15000010     -0.162894443    
   5.19999981     -0.174527347    
   5.25000000     -0.186991960    
   5.30000019     -0.200432792    
   5.34999990     -0.214958295    
   5.40000010     -0.230621964    
   5.44999981     -0.247422934    
   5.50000000     -0.265325427    
   5.55000019     -0.284288675    
   5.59999990     -0.304296821    
   5.65000010     -0.325378060    
   5.69999981     -0.347608089    
   5.75000000     -0.371099144    
   5.80000019     -0.395980597    
   5.84999990     -0.422380567    
   5.90000010     -0.450414866    
   5.94999981     -0.480185717    
   6.00000000     -0.511787951    
   6.05000019     -0.545315266    
   6.09999990     -0.580862522    
   6.15000010     -0.618520081    
   6.19999981     -0.658363461    
   6.25000000     -0.700444281    
   6.30000019     -0.744790494    
   6.34999990     -0.791419089    
   6.40000010     -0.840360165    
   6.44999981     -0.891685188    
   6.50000000     -0.945527792    
   6.55000019      -1.00208688    
   6.59999990      -1.06160843    
   6.65000010      -1.12434876    
   6.69999981      -1.19053316    
   6.75000000      -1.26032197    
   6.80000019      -1.33379877    
   6.84999990      -1.41098607    
   6.90000010      -1.49188280    
   6.94999981      -1.57651019    
   7.00000000      -1.66495037    
   7.05000019      -1.75736248    
   7.09999990      -1.85397077    
   7.15000010      -1.95503163    
   7.19999981      -2.06079125    
   7.25000000      -2.17145228    
   7.30000019      -2.28716230    
   7.34999990      -2.40802598    
   7.40000010      -2.53413582    
   7.44999981      -2.66560769    
   7.50000000      -2.80260110    
   7.55000019      -2.94532084    
   7.59999990      -3.09399366    
   7.65000010      -3.24883509    
   7.69999981      -3.41002154    
   7.75000000      -3.57767844    
   7.80000019      -3.75189543    
   7.84999990      -3.93276143    
   7.90000010      -4.12040186    
   7.94999981      -4.31501007    
   8.00000000      -4.51684284    
   8.05000019      -4.72619772    
   8.10000038      -4.94336081    
   8.14999962      -5.16856146    
   8.19999981      -5.40194750    
   8.25000000      -5.64358664    
   8.30000019      -5.89350986    
   8.35000038      -6.15176344    
   8.39999962      -6.41845989    
   8.44999981      -6.69379997    
   8.50000000      -6.97805786    
   8.55000019      -7.27152920    
   8.60000038      -7.57447004    
   8.64999962      -7.88704586    
   8.69999981      -8.20931625    
   8.75000000      -8.54126930    
   8.80000019      -8.88287830    
   8.85000038      -9.23417950    
   8.89999962      -9.59531498    
   8.94999981      -9.96654129    
   9.00000000      -10.3481808    
   9.05000019      -10.7405405    
   9.10000038      -11.1438274    
   9.14999962      -11.5580940    
   9.19999981      -11.9832487    
   9.25000000      -12.4191103    
   9.30000019      -12.8655043    
   9.35000038      -13.3223667    
   9.39999962      -13.7897921    
   9.44999981      -14.2680273    
   9.50000000      -14.7574062    
   9.55000019      -15.2582350    
   9.60000038      -15.7706957    
   9.64999962      -16.2947865    
   9.69999981      -16.8303375    
   9.75000000      -17.3770790    
   9.80000019      -17.9347649    
   9.85000038      -18.5032692    
   9.89999962      -19.0826283    
   9.94999981      -19.6730366    
   10.0000000      -20.2747498    
   10.0500002      -20.8879681    
   10.1000004      -21.5127449    
   10.1499996      -22.1489315    
   10.1999998      -22.7962151    
   10.2500000      -23.4542141    
   10.3000002      -24.1225891    
   10.3500004      -24.8011570    
   10.3999996      -25.4899044    
   10.4499998      -26.1889744    
   10.5000000      -26.8985500    
   10.5500002      -27.6187611    
   10.6000004      -28.3495731    
   10.6499996      -29.0907784    
   10.6999998      -29.8420200    
   10.7500000      -30.6029034    
   10.8000002      -31.3730888    
   10.8500004      -32.1523666    
   10.8999996      -32.9406891    
   10.9499998      -33.7380676    
   11.0000000      -34.5445328    
   11.0500002      -35.3600273    
   11.1000004      -36.1843491    
   11.1499996      -37.0171623    
   11.1999998      -37.8580780    
   11.2500000      -38.7067299    
   11.3000002      -39.5628433    
   11.3500004      -40.4262848    
   11.3999996      -41.2970085    
   11.4499998      -42.1749916    
   11.5000000      -43.0601463    
   11.5500002      -43.9522629    
   11.6000004      -44.8510056    
   11.6499996      -45.7559738    
   11.6999998      -46.6667747    
   11.7500000      -47.5830994    
   11.8000002      -48.5047569    
   11.8500004      -49.4316521    
   11.8999996      -50.3636894    
   11.9499998      -51.3007317    
   12.0000000      -52.2424889    
   12.0500002      -53.1885376    
   12.1000004      -54.1384048    
   12.1499996      -55.0916519    
   12.1999998      -56.0479774    
   12.2500000      -57.0072594    
   12.3000002      -57.9695129    
   12.3500004      -58.9348145    
   12.3999996      -59.9031296    
   12.4499998      -60.8742294    
   12.5000000      -61.8476486    
   12.5500002      -62.8227615    
   12.6000004      -63.7989273    
   12.6499996      -64.7756195    
   12.6999998      -65.7525711    
   12.7500000      -66.7297821    
   12.8000002      -67.7073975    
   12.8500004      -68.6855621    
   12.8999996      -69.6641922    
   12.9499998      -70.6428986    
   13.0000000      -71.6209793    
   13.0500002      -72.5975647    
   13.1000004      -73.5718002    
   13.1499996      -74.5431137    
   13.1999998      -75.5112991    
   13.2500000      -76.4765091    
   13.3000002      -77.4390640    
   13.3500004      -78.3992004    
   13.3999996      -79.3568192    
   13.4499998      -80.3113708    
   13.5000000      -81.2618866    
   13.5500002      -82.2071533    
   13.6000004      -83.1460266    
   13.6499996      -84.0776825    
   13.6999998      -85.0017395    
   13.7500000      -85.9182510    
   13.8000002      -86.8274612    
   13.8500004      -87.7295303    
   13.8999996      -88.6242447    
   13.9499998      -89.5109253    
   14.0000000      -90.3884125    
   14.0500002      -91.2553558    
   14.1000004      -92.1104660    
   14.1499996      -92.9527512    
   14.1999998      -93.7816925    
   14.2500000      -94.5970840    
   14.3000002      -95.3988876    
   14.3500004      -96.1868744    
   14.3999996      -96.9604111    
   14.4499998      -97.7183685    
   14.5000000      -98.4592514    
   14.5500002      -99.1813812    
   14.6000004      -99.8832397    
   14.6499996      -100.563667    
   14.6999998      -101.221924    
   14.7500000      -101.857574    
   14.8000002      -102.470238    
   14.8500004      -103.059334    
   14.8999996      -103.623833    
   14.9499998      -104.162247    
   15.0000000      -104.672760    
   15.0500002      -105.153481    
   15.1000004      -105.602654    
   15.1499996      -106.018875    
   15.1999998      -106.401077    
   15.2500000      -106.748375    
   15.3000002      -107.059868    
   15.3500004      -107.334358    
   15.3999996      -107.570320    
   15.4499998      -107.765915    
   15.5000000      -107.919106    
   15.5500002      -108.027939    
   15.6000004      -108.090675    
   15.6499996      -108.105858    
   15.6999998      -108.072250    
   15.7500000      -107.988625    
   15.8000002      -107.853615    
   15.8500004      -107.665565    
   15.8999996      -107.422562    
   15.9499998      -107.122528    
   16.0000000      -106.763443    
   16.0499992      -106.343513    
   16.1000004      -105.861244    
   16.1499996      -105.315331    
   16.2000008      -104.704567    
   16.2500000      -104.027565    
   16.2999992      -103.282700    
   16.3500004      -102.468018    
   16.3999996      -101.581451    
   16.4500008      -100.621056    
   16.5000000      -99.5851974    
   16.5499992      -98.4726944    
   16.6000004      -97.2827530    
   16.6499996      -96.0147705    
   16.7000008      -94.6680374    
   16.7500000      -93.2415314    
   16.7999992      -91.7337952    
   16.8500004      -90.1430740    
   16.8999996      -88.4675980    
   16.9500008      -86.7059174    
   17.0000000      -84.8571625    
   17.0499992      -82.9211426    
   17.1000004      -80.8981781    
   17.1499996      -78.7887650    
   17.2000008      -76.5932236    
   17.2500000      -74.3114014    
   17.2999992      -71.9426880    
   17.3500004      -69.4861755    
   17.3999996      -66.9410324    
   17.4500008      -64.3069458    
   17.5000000      -61.5843544    
   17.5499992      -58.7744751    
   17.6000004      -55.8791084    
   17.6499996      -52.9001884    
   17.7000008      -49.8394051    
   17.7500000      -46.6979218    
   17.7999992      -43.4763985    
   17.8500004      -40.1752701    
   17.8999996      -36.7951355    
   17.9500008      -33.3372383    
   18.0000000      -29.8036537    
   18.0499992      -26.1972866    
   18.1000004      -22.5215797    
   18.1499996      -18.7800732    
   18.2000008      -14.9759922    
   18.2500000      -11.1120415    
   18.2999992      -7.19045305    
   18.3500004      -3.21329832    
   18.3999996      0.817085385    
   18.4500008       4.89772224    
   18.5000000       9.02482796    
   18.5499992       13.1939096    
   18.6000004       17.4001045    
   18.6499996       21.6385937    
   18.7000008       25.9049606    
   18.7500000       30.1953049    
   18.7999992       34.5061340    
   18.8500004       38.8339920    
   18.8999996       43.1751137    
   18.9500008       47.5250702    
   19.0000000       51.8787575    
   19.0499992       56.2305374    
   19.1000004       60.5746269    
   19.1499996       64.9054642    
   19.2000008       69.2179947    
   19.2500000       73.5076675    
   19.2999992       77.7702942    
   19.3500004       82.0016937    
   19.3999996       86.1973724    
   19.4500008       90.3523560    
   19.5000000       94.4612122    
   19.5499992       98.5182953    
   19.6000004       102.518082    
   19.6499996       106.455482    
   19.7000008       110.325905    
   19.7500000       114.125221    
   19.7999992       117.849457    
   19.8500004       121.494514    
   19.8999996       125.055977    
   19.9500008       128.529083    
   20.0000000       131.908936    
   20.0499992       135.190781    
   20.1000004       138.370392    
   20.1499996       141.444107    
   20.2000008       144.408936    
   20.2500000       147.262238    
   20.2999992       150.001465    
   20.3500004       152.623764    
   20.3999996       155.125992    
   20.4500008       157.504776    
   20.5000000       159.756851    
   20.5499992       161.879349    
   20.6000004       163.870071    
   20.6499996       165.727692    
   20.7000008       167.451370    
   20.7500000       169.040604    
   20.7999992       170.494736    
   20.8500004       171.812744    
   20.8999996       172.993286    
   20.9500008       174.034897    
   21.0000000       174.936432    
   21.0499992       175.697418    
   21.1000004       176.318253    
   21.1499996       176.800201    
   21.2000008       177.145004    
   21.2500000       177.354538    
   21.2999992       177.430313    
   21.3500004       177.373367    
   21.3999996       177.184280    
   21.4500008       176.863617    
   21.5000000       176.412277    
   21.5499992       175.831985    
   21.6000004       175.125366    
   21.6499996       174.295898    
   21.7000008       173.347427    
   21.7500000       172.283768    
   21.7999992       171.108307    
   21.8500004       169.823730    
   21.8999996       168.432343    
   21.9500008       166.936325    
   22.0000000       165.338287    
   22.0499992       163.641495    
   22.1000004       161.850082    
   22.1499996       159.968796    
   22.2000008       158.002625    
   22.2500000       155.956375    
   22.2999992       153.834290    
   22.3500004       151.639984    
   22.3999996       149.376587    
   22.4500008       147.047211    
   22.5000000       144.655258    
   22.5499992       142.204758    
   22.6000004       139.700333    
   22.6499996       137.147034    
   22.7000008       134.549957    
   22.7500000       131.913910    
   22.7999992       129.243103    
   22.8500004       126.541191    
   22.8999996       123.811447    
   22.9500008       121.057098    
   23.0000000       118.281570    
   23.0499992       115.488708    
   23.1000004       112.682671    
   23.1499996       109.867760    
   23.2000008       107.048111    
   23.2500000       104.227516    
   23.2999992       101.409241    
   23.3500004       98.5961761    
   23.3999996       95.7910004    
   23.4500008       92.9964371    
   23.5000000       90.2153625    
   23.5499992       87.4508896    
   23.6000004       84.7061996    
   23.6499996       81.9843445    
   23.7000008       79.2880783    
   23.7500000       76.6197357    
   23.7999992       73.9813080    
   23.8500004       71.3745728    
   23.8999996       68.8012695    
   23.9500008       66.2632599    
   24.0000000       63.7625084    
   24.0499992       61.3009949    
   24.1000004       58.8805313    
   24.1499996       56.5026016    
   24.2000008       54.1682892    
   24.2500000       51.8783607    
   24.2999992       49.6334229    
   24.3500004       47.4341469    
   24.3999996       45.2813950    
   24.4500008       43.1762466    
   24.5000000       41.1198578    
   24.5499992       39.1132507    
   24.6000004       37.1570587    
   24.6499996       35.2514153    
   24.7000008       33.3960114    
   24.7500000       31.5902767    
   24.7999992       29.8336735    
   24.8500004       28.1259346    
   24.8999996       26.4671726    
   24.9500008       24.8577900    
   25.0000000       23.2982445    
   25.0499992       21.7887363    
   25.1000004       20.3289795    
   25.1499996       18.9181290    
   25.2000008       17.5549278    
   25.2500000       16.2379856    
   25.2999992       14.9661217    
   25.3500004       13.7386084    
   25.3999996       12.5551958    
   25.4500008       11.4159517    
   25.5000000       10.3209238    
   25.5499992       9.26980019    
   25.6000004       8.26169109    
   25.6499996       7.29512596    
   25.7000008       6.36827755    
   25.7500000       5.47931957    
   25.7999992       4.62678766    
   25.8500004       3.80979180    
   25.8999996       3.02799582    
   25.9500008       2.28137589    
   26.0000000       1.56985354    
   26.0499992      0.892947972    
   26.1000004      0.249588951    
   26.1499996     -0.361838281    
   26.2000008     -0.943234324    
   26.2500000      -1.49642146    
   26.2999992      -2.02281547    
   26.3500004      -2.52326655    
   26.3999996      -2.99812436    
   26.4500008      -3.44749832    
   26.5000000      -3.87160039    
   26.5499992      -4.27102757    
   26.6000004      -4.64687872    
   26.6499996      -5.00065613    
   26.7000008      -5.33399820    
   26.7500000      -5.64835930    
   26.7999992      -5.94476891    
   26.8500004      -6.22376251    
   26.8999996      -6.48550558    
   26.9500008      -6.73006058    
   27.0000000      -6.95767307    
   27.0499992      -7.16896820    
   27.1000004      -7.36497927    
   27.1499996      -7.54699612    
   27.2000008      -7.71631575    
   27.2500000      -7.87399149    
   27.2999992      -8.02069283    
   27.3500004      -8.15671921    
   27.3999996      -8.28216076    
   27.4500008      -8.39713287    
   27.5000000      -8.50196457    
   27.5499992      -8.59728813    
   27.6000004      -8.68396664    
   27.6499996      -8.76292133    
   27.7000008      -8.83492565    
   27.7500000      -8.90046883    
   27.7999992      -8.95973778    
   27.8500004      -9.01273918    
   27.8999996      -9.05948925    
   27.9500008      -9.10019970    
   28.0000000      -9.13535500    
   28.0499992      -9.16567802    
   28.1000004      -9.19195652    
   28.1499996      -9.21484470    
   28.2000008      -9.23471165    
   28.2500000      -9.25160217    
   28.2999992      -9.26534748    
   28.3500004      -9.27576256    
   28.3999996      -9.28285408    
   28.4500008      -9.28694344    
   28.5000000      -9.28864670    
   28.5499992      -9.28871918    
   28.6000004      -9.28781891    
   28.6499996      -9.28630829    
   28.7000008      -9.28415680    
   28.7500000      -9.28101826    
   28.7999992      -9.27644253    
   28.8500004      -9.27012539    
   28.8999996      -9.26212215    
   28.9500008      -9.25289631    
   29.0000000      -9.24320889    
   29.0499992      -9.23386288    
   29.1000004      -9.22543621    
   29.1499996      -9.21808338    
   29.2000008      -9.21150970    
   29.2500000      -9.20513630    
   29.2999992      -9.19836140    
   29.3500004      -9.19085884    
   29.3999996      -9.18274307    
   29.4500008      -9.17456627    
   29.5000000      -9.16713715    
   29.5499992      -9.16121864    
   29.6000004      -9.15725327    
   29.6499996      -9.15521336    
   29.7000008      -9.15463352    
   29.7500000      -9.15483570    
   29.7999992      -9.15522003    
   29.8500004      -9.15554047    
   29.8999996      -9.15601826    
   29.9500008      -9.15726852    
   30.0000000      -9.16006756    
   30.0499992      -9.16504002    
   30.1000004      -9.17241573    
   30.1499996      -9.18194771    
   30.2000008      -9.19301796    
   30.2500000      -9.20489979    
   30.2999992      -9.21706867    
   30.3500004      -9.22942734    
   30.3999996      -9.24236298    
   30.4500008      -9.25660229    
   30.5000000      -9.27293777    
   30.5499992      -9.29191685    
   30.6000004      -9.31363678    
   30.6499996      -9.33771610    
   30.7000008      -9.36344719    
   30.7500000      -9.39009094    
   30.7999992      -9.41716003    
   30.8500004      -9.44460869    
   30.8999996      -9.47284222    
   30.9500008      -9.50254345    
   31.0000000      -9.53439903    
   31.0499992      -9.56883144    
   31.1000004      -9.60583687    
   31.1499996      -9.64500809    
   31.2000008      -9.68570709    
   31.2500000      -9.72732544    
   31.2999992      -9.76952171    
   31.3500004      -9.81234455    
   31.3999996      -9.85619164    
   31.4500008      -9.90163422    
   31.5000000      -9.94917965    
   31.5499992      -9.99907112    
   31.6000004      -10.0512056    
   31.6499996      -10.1051979    
   31.7000008      -10.1605453    
   31.7500000      -10.2168369    
   31.7999992      -10.2739096    
   31.8500004      -10.3318777    
   31.8999996      -10.3910561    
   31.9500008      -10.4517908    
   32.0000000      -10.5142965    
   32.0499992      -10.5785513    
   32.0999985      -10.6443157    
   32.1500015      -10.7112408    
   32.2000008      -10.7790337    
   32.2500000      -10.8475857    
   32.2999992      -10.9170198    
   32.3499985      -10.9876280    
   32.4000015      -11.0597239    
   32.4500008      -11.1334877    
   32.5000000      -11.2088566    
   32.5499992      -11.2855320    
   32.5999985      -11.3630934    
   32.6500015      -11.4411659    
   32.7000008      -11.5195856    
   32.7500000      -11.5984755    
   32.7999992      -11.6781931    