  -10.0000000       1.00000002E-24
  -9.94999981       1.00000002E-24
  -9.89999962       1.00000002E-24
  -9.85000038       1.00000002E-24
  -9.80000019       1.00000012E-24
  -9.75000000       1.00000012E-24
  -9.69999981       1.00000012E-24
  -9.64999962       1.00000012E-24
  -9.60000038       1.00000022E-24
  -9.55000019       1.00000032E-24
  -9.50000000       1.00000032E-24
  -9.44999981       1.00000032E-24
  -9.39999962       1.00000032E-24
  -9.35000038       1.00000032E-24
  -9.30000019       1.00000032E-24
  -9.25000000       1.00000022E-24
  -9.19999981       1.00000012E-24
  -9.14999962       1.00000022E-24
  -9.10000038       1.00000012E-24
  -9.05000019       9.99999625E-25
  -9.00000000       9.99996963E-25
  -8.94999981       9.99990948E-25
  -8.89999962       9.99989863E-25
  -8.85000038       1.00003719E-24
  -8.80000019       1.00025068E-24
  -8.75000000       1.00081235E-24
  -8.69999981       1.00173798E-24
  -8.64999962       1.00217392E-24
  -8.60000038       9.99215990E-25
  -8.55000019       9.87272242E-25
  -8.50000000       9.60979804E-25
  -8.44999981       9.26434993E-25
  -8.39999962       9.23238726E-25
  -8.35000038       1.04760630E-24
  -8.30000019       1.44105600E-24
  -8.25000000       2.17981457E-24
  -8.19999981       3.00291618E-24
  -8.14999962       2.91434327E-24
  -8.10000038      -5.96733277E-26
  -8.05000019      -8.32376760E-24
  -8.00000000      -2.25322246E-23
  -7.94999981      -3.73716196E-23
  -7.90000010      -3.65939321E-23
  -7.84999990       8.35407406E-24
  -7.80000019       1.28530912E-22
  -7.75000000       3.28769407E-22
  -7.69999981       5.39870706E-22
  -7.65000010       5.70612249E-22
  -7.59999990       1.06199358E-22
  -7.55000019      -1.17857940E-21
  -7.50000000      -3.33627326E-21
  -7.44999981      -5.71934284E-21
  -7.40000010      -6.59563851E-21
  -7.34999990      -3.19402101E-21
  -7.30000019       7.32080207E-21
  -7.25000000       2.56197223E-20
  -7.19999981       4.70473384E-20
  -7.15000010       5.89641547E-20
  -7.09999990       4.12426857E-20
  -7.05000019      -2.69779383E-20
  -7.00000000      -1.52625576E-19
  -6.94999981      -3.08675706E-19
  -6.90000010      -4.17929308E-19
  -6.84999990      -3.56176656E-19
  -6.80000019       8.23498528E-21
  -6.75000000       7.30797579E-19
  -6.69999981       1.67922038E-18
  -6.65000010       2.44421366E-18
  -6.59999990       2.35409212E-18
  -6.55000019       6.77849800E-19
  -6.50000000      -2.94967685E-18
  -6.44999981      -7.96483196E-18
  -6.40000010      -1.24219053E-17
  -6.34999990      -1.30366113E-17
  -6.30000019      -6.11842297E-18
  -6.25000000       1.04577550E-17
  -6.19999981       3.46228324E-17
  -6.15000010       5.79286891E-17
  -6.09999990       6.55097664E-17
  -6.05000019       3.99163218E-17
  -6.00000000      -3.04650752E-17
  -5.94999981      -1.39894373E-16
  -5.90000010      -2.55121506E-16
  -5.84999990      -3.13572576E-16
  -5.80000019      -2.37144079E-16
  -5.75000000       3.48434150E-17
  -5.69999981       4.98361470E-16
  -5.65000010       1.03939106E-15
  -5.59999990       1.41724907E-15
  -5.55000019       1.30563077E-15
  -5.50000000       4.08658854E-16
  -5.44999981      -1.35979366E-15
  -5.40000010      -3.68685109E-15
  -5.34999990      -5.75470669E-15
  -5.30000019      -6.32721923E-15
  -5.25000000      -4.10712173E-15
  -5.19999981       1.64870177E-15
  -5.15000010       1.04073541E-14
  -5.09999990       1.98277860E-14
  -5.05000019       2.57954719E-14
  -5.00000000       2.33406400E-14
  -4.94999981       8.50585827E-15
  -4.90000010      -1.91944510E-14
  -4.84999990      -5.45630130E-14
  -4.80000019      -8.59379164E-14
  -4.75000000      -9.69796549E-14
  -4.69999981      -7.15650141E-14
  -4.65000010      -1.16178541E-15
  -4.59999990       1.07404964E-13
  -4.55000019       2.27112315E-13
  -4.50000000       3.12450668E-13
  -4.44999981       3.10119714E-13
  -4.40000010       1.78278941E-13
  -4.34999990      -9.00821979E-14
  -4.30000019      -4.47956911E-13
  -4.25000000      -7.89545675E-13
  -4.19999981      -9.68388455E-13
  -4.15000010      -8.40673776E-13
  -4.09999990      -3.26090690E-13
  -4.05000019       5.32190177E-13
  -4.00000000       1.53413393E-12
  -3.95000005       2.34100239E-12
  -3.90000010       2.55818934E-12
  -3.84999990       1.87371234E-12
  -3.79999995       2.16323731E-13
  -3.75000000      -2.12495082E-12
  -3.70000005      -4.48399477E-12
  -3.65000010      -5.94868599E-12
  -3.59999990      -5.63998154E-12
  -3.54999995      -3.07736302E-12
  -3.50000000       1.48923864E-12
  -3.45000005       6.92972459E-12
  -3.40000010       1.13916949E-11
  -3.34999990       1.28071937E-11
  -3.29999995       9.65892817E-12
  -3.25000000       1.77800233E-12
  -3.20000005      -9.14555931E-12
  -3.15000010      -1.96468657E-11
  -3.09999990      -2.53286229E-11
  -3.04999995      -2.23657655E-11
  -3.00000000      -9.26895019E-12
  -2.95000005       1.17376768E-11
  -2.90000010       3.44223434E-11
  -2.84999990       4.98142430E-11
  -2.79999995       4.90246559E-11
  -2.75000000       2.69655080E-11
  -2.70000005      -1.42740394E-11
  -2.65000010      -6.38957984E-11
  -2.59999990      -1.03939191E-10
  -2.54999995      -1.14279072E-10
  -2.50000000      -8.01596706E-11
  -2.45000005      -2.42477428E-14
  -2.40000010       1.09435176E-10
  -2.34999990       2.13939144E-10
  -2.29999995       2.69555822E-10
  -2.25000000       2.37053766E-10
  -2.20000005       9.89964014E-11
  -2.15000010      -1.26319094E-10
  -2.09999990      -3.80536297E-10
  -2.04999995      -5.75174464E-10
  -2.00000000      -6.16302342E-10
  -1.95000005      -4.38850400E-10
  -1.89999998      -4.02385972E-11
  -1.85000002       4.99742525E-10
  -1.79999995       1.02435771E-09
  -1.75000000       1.33587486E-09
  -1.70000005       1.25715638E-09
  -1.64999998       7.02998881E-10
  -1.60000002      -2.62679850E-10
  -1.54999995      -1.40887535E-09
  -1.50000000      -2.37592301E-09
  -1.45000005      -2.77112866E-09
  -1.39999998      -2.30154007E-09
  -1.35000002      -9.05038322E-10
  -1.29999995       1.16825816E-09
  -1.25000000       3.36612183E-09
  -1.20000005       4.95478281E-09
  -1.14999998       5.23349453E-09
  -1.10000002       3.78888787E-09
  -1.04999995       7.07906178E-10
  -1.00000000      -3.33586625E-09
 -0.949999988      -7.18194970E-09
 -0.899999976      -9.47548973E-09
 -0.850000024      -9.09244324E-09
 -0.800000012      -5.57736657E-09
 -0.750000000       5.56475144E-10
 -0.699999988       7.79835307E-09
 -0.649999976       1.39491352E-08
 -0.600000024       1.67301959E-08
 -0.550000012       1.45420485E-08
 -0.500000000       7.14063608E-09
 -0.449999988      -4.01756717E-09
 -0.400000006      -1.59438329E-08
 -0.349999994      -2.48381049E-08
 -0.300000012      -2.72186167E-08
 -0.250000000      -2.11489830E-08
 -0.200000003      -7.16173076E-09
 -0.150000006       1.14901395E-08
 -0.100000001       2.94563929E-08
  -5.00000007E-02   4.07260430E-08
   0.00000000       4.05270377E-08
   5.00000007E-02   2.71220681E-08
  0.100000001       2.87502488E-09
  0.150000006      -2.58910067E-08
  0.200000003      -5.03888131E-08
  0.250000000      -6.19224352E-08
  0.300000012      -5.48037136E-08
  0.349999994      -2.87000699E-08
  0.400000006       1.04650075E-08
  0.449999988       5.15784890E-08
  0.500000000       8.13012591E-08
  0.550000012       8.82051268E-08
  0.600000024       6.68576021E-08
  0.649999976       2.04709476E-08
  0.699999988      -3.89778982E-08
  0.750000000      -9.35474063E-08
  0.800000012      -1.24509199E-07
  0.850000024      -1.18484330E-07
  0.899999976      -7.26037328E-08
  0.949999988       3.16888027E-09
   1.00000000       8.77013164E-08
   1.04999995       1.54298903E-07
   1.10000002       1.78872554E-07
   1.14999998       1.48251786E-07
   1.20000005       6.58750565E-08
   1.25000000      -4.73691166E-08
   1.29999995      -1.58015439E-07
   1.35000002      -2.29656706E-07
   1.39999998      -2.34671774E-07
   1.45000005      -1.64361495E-07
   1.50000000      -3.39153168E-08
   1.54999995       1.20038351E-07
   1.60000002       2.49304179E-07
   1.64999998       3.08922637E-07
   1.70000005       2.72474836E-07
   1.75000000       1.42807338E-07
   1.79999995      -4.59146783E-08
   1.85000002      -2.36433394E-07
   1.89999998      -3.65216692E-07
   1.95000005      -3.83105004E-07
   2.00000000      -2.73232558E-07
   2.04999995      -5.99103203E-08
   2.09999990       1.95438503E-07
   2.15000010       4.11223169E-07
   2.20000005       5.11081168E-07
   2.25000000       4.49995866E-07
   2.29999995       2.32395124E-07
   2.34999990      -8.46536423E-08
   2.40000010      -4.05656266E-07
   2.45000005      -6.25157270E-07
   2.50000000      -6.62159891E-07
   2.54999995      -4.89392335E-07
   2.59999990      -1.47018085E-07
   2.65000010       2.65282182E-07
   2.70000005       6.17106934E-07
   2.75000000       7.89039802E-07
   2.79999995       7.14121200E-07
   2.84999990       4.04796708E-07
   2.90000010      -4.52760638E-08
   2.95000005      -4.87480463E-07
   3.00000000      -7.66003836E-07
   3.04999995      -7.72427654E-07
   3.09999990      -4.88619150E-07
   3.15000010      -1.61759817E-09
   3.20000005       5.17643343E-07
   3.25000000       8.68077052E-07
   3.29999995       8.89098601E-07
   3.34999990       5.24938173E-07
   3.40000010      -1.41072917E-07
   3.45000005      -8.98123403E-07
   3.50000000      -1.46706759E-06
   3.54999995      -1.59220963E-06
   3.59999990      -1.13754857E-06
   3.65000010      -1.54200876E-07
   3.70000005       1.10848987E-06
   3.75000000       2.25965141E-06
   3.79999995       2.88096635E-06
   3.84999990       2.66666962E-06
   3.90000010       1.54506461E-06
   3.95000005      -2.62269452E-07
   4.00000000      -2.27193345E-06
   4.05000019      -3.86227430E-06
   4.09999990      -4.45982323E-06
   4.15000010      -3.73473858E-06
   4.19999981      -1.74171635E-06
   4.25000000       1.04695164E-06
   4.30000019       3.84047189E-06
   4.34999990       5.74472142E-06
   4.40000010       6.03764011E-06
   4.44999981       4.42290184E-06
   4.50000000       1.17748198E-06
   4.55000019      -2.86664181E-06
   4.59999990      -6.51989512E-06
   4.65000010      -8.56902352E-06
   4.69999981      -8.15684780E-06
   4.75000000      -5.09292749E-06
   4.80000019       9.98147343E-09
   4.84999990       5.83482097E-06
   4.90000010       1.06879806E-05
   4.94999981       1.29773498E-05
   5.00000000       1.17078080E-05
   5.05000019       6.84347333E-06
   5.09999990      -5.86594581E-07
   5.15000010      -8.69452469E-06
   5.19999981      -1.52160810E-05
   5.25000000      -1.81465766E-05
   5.30000019      -1.63508848E-05
   5.34999990      -9.96228664E-06
   5.40000010      -4.35258301E-07
   5.44999981       9.78769185E-06
   5.50000000       1.79212457E-05
   5.55000019       2.16219505E-05
   5.59999990       1.96873298E-05
   5.65000010       1.24569560E-05
   5.69999981       1.78097162E-06
   5.75000000      -9.45562806E-06
   5.80000019      -1.81317355E-05
   5.84999990      -2.17880079E-05
   5.90000010      -1.93603901E-05
   5.94999981      -1.15244748E-05
   6.00000000      -5.34526066E-07
   6.05000019       1.04104802E-05
   6.09999990       1.80972620E-05
   6.15000010       2.02529227E-05
   6.19999981       1.62361848E-05
   6.25000000       7.24971051E-06
   6.30000019      -4.00131739E-06
   6.34999990      -1.41111914E-05
   6.40000010      -1.99992792E-05
   6.44999981      -1.98481775E-05
   6.50000000      -1.36641311E-05
   6.55000019      -3.28143847E-06
   6.59999990       8.19701108E-06
   6.65000010       1.73542576E-05
   6.69999981       2.15129712E-05
   6.75000000       1.95567609E-05
   6.80000019       1.22570027E-05
   6.84999990       1.99813371E-06
   6.90000010      -8.01277656E-06
   6.94999981      -1.47973278E-05
   7.00000000      -1.65736074E-05
   7.05000019      -1.33179856E-05
   7.09999990      -6.72771421E-06
   7.15000010       4.11347770E-07
   7.19999981       5.24509142E-06
   7.25000000       5.91324670E-06
   7.30000019       2.27956230E-06
   7.34999990      -3.94428707E-06
   7.40000010      -9.75704279E-06
   7.44999981      -1.19493234E-05
   7.50000000      -8.35481478E-06
   7.55000019       1.16649539E-06
   7.59999990       1.43899133E-05
   7.65000010       2.72140496E-05
   7.69999981       3.48845861E-05
   7.75000000       3.35998557E-05
   7.80000019       2.19806152E-05
   7.84999990       1.88414640E-06
   7.90000010      -2.17840989E-05
   7.94999981      -4.23037491E-05
   8.00000000      -5.31153746E-05
   8.05000019      -4.99617963E-05
   8.10000038      -3.25096589E-05
   8.14999962      -4.87242278E-06
   8.19999981       2.52399786E-05
   8.25000000       4.86010831E-05
   8.30000019       5.72276949E-05
   8.35000038       4.70063060E-05
   8.39999962       1.93485048E-05
   8.44999981      -1.87236437E-05
   8.50000000      -5.62153655E-05
   8.55000019      -8.11471909E-05
   8.60000038      -8.40734865E-05
   8.64999962      -6.10909046E-05
   8.69999981      -1.53835754E-05
   8.75000000       4.32592205E-05
   8.80000019       1.00929887E-04
   8.85000038       1.43456375E-04
   8.89999962       1.60532305E-04
   8.94999981       1.48890307E-04
   9.00000000       1.13514616E-04
   9.05000019       6.64386607E-05
   9.10000038       2.33881237E-05
   9.14999962      -7.99468637E-07
   9.19999981       3.36559356E-06
   9.25000000       3.70507114E-05
   9.30000019       9.25763452E-05
   9.35000038       1.55592614E-04
   9.39999962       2.09387566E-04
   9.44999981       2.40078109E-04
   9.50000000       2.41112575E-04
   9.55000019       2.15663444E-04
   9.60000038       1.76084126E-04
   9.64999962       1.40477990E-04
   9.69999981       1.27323627E-04
   9.75000000       1.49740226E-04
   9.80000019       2.11154431E-04
   9.85000038       3.03771230E-04
   9.89999962       4.10445355E-04
   9.94999981       5.09528734E-04
   10.0000000       5.81338361E-04
   10.0500002       6.14336052E-04
   10.1000004       6.09126466E-04
   10.1499996       5.78968436E-04
   10.1999998       5.46507479E-04
   10.2500000       5.37573884E-04
   10.3000002       5.73805592E-04
   10.3500004       6.66268636E-04
   10.3999996       8.12014507E-04
   10.4499998       9.94685921E-04
   10.5000000       1.18909520E-03
   10.5500002       1.36851112E-03
   10.6000004       1.51254446E-03
   10.6499996       1.61331031E-03
   10.6999998       1.67801627E-03
   10.7500000       1.72717369E-03
   10.8000002       1.78893027E-03
   10.8500004       1.89119217E-03
   10.8999996       2.05388502E-03
   10.9499998       2.28367001E-03
   11.0000000       2.57269782E-03
   11.0500002       2.90175946E-03
   11.1000004       3.24684288E-03
   11.1499996       3.58705572E-03
   11.1999998       3.91144818E-03
   11.2500000       4.22261236E-03
   11.3000002       4.53592045E-03
   11.3500004       4.87467041E-03
   11.3999996       5.26266592E-03
   11.4499998       5.71664469E-03
   11.5000000       6.24101749E-03
   11.5500002       6.82671228E-03
   11.6000004       7.45461788E-03
   11.6499996       8.10266007E-03
   11.6999998       8.75432976E-03
   11.7500000       9.40593891E-03
   11.8000002       1.00701842E-02
   11.8500004       1.07746739E-02
   11.8999996       1.15556149E-02
   11.9499998       1.24483993E-02
   12.0000000       1.34778768E-02
   12.0500002       1.46513088E-02
   12.1000004       1.59563199E-02
   12.1499996       1.73646901E-02
   12.1999998       1.88411269E-02
   12.2500000       2.03545466E-02
   12.3000002       2.18886510E-02
   12.3500004       2.34485902E-02
   12.3999996       2.50616819E-02
   12.4499998       2.67718118E-02
   12.5000000       2.86290348E-02
   12.5500002       3.06773428E-02
   12.6000004       3.29441577E-02
   12.6499996       3.54346037E-02
   12.6999998       3.81322987E-02
   12.7500000       4.10064161E-02
   12.8000002       4.40229811E-02
   12.8500004       4.71570753E-02
   12.8999996       5.04023917E-02
   12.9499998       5.37753515E-02
   13.0000000       5.73126897E-02
   13.0500002       6.10633194E-02
   13.1000004       6.50769696E-02
   13.1499996       6.93931282E-02
   13.1999998       7.40334913E-02
   13.2500000       7.90001974E-02
   13.3000002       8.42801109E-02
   13.3500004       8.98537412E-02
   13.3999996       9.57057104E-02
   13.4499998      0.101833537    
   13.5000000      0.108251877    
   13.5500002      0.114990950    
   13.6000004      0.122089759    
   13.6499996      0.129586443    
   13.6999998      0.137509122    
   13.7500000      0.145870283    
   13.8000002      0.154666856    
   13.8500004      0.163886175    
   13.8999996      0.173516035    
   13.9499998      0.183555469    
   14.0000000      0.194022879    
   14.0500002      0.204958349    
   14.1000004      0.216418982    
   14.1499996      0.228468239    
   14.1999998      0.241162270    
   14.2500000      0.254537374    
   14.3000002      0.268602431    
   14.3500004      0.283339262    
   14.3999996      0.298711032    
   14.4499998      0.314676851    
   14.5000000      0.331208497    
   14.5500002      0.348304152    
   14.6000004      0.365995705    
   14.6499996      0.384346128    
   14.6999998      0.403438181    
   14.7500000      0.423357099    
   14.8000002      0.444171846    
   14.8500004      0.465920389    
   14.8999996      0.488603413    
   14.9499998      0.512187719    
   15.0000000      0.536619604    
   15.0500002      0.561842978    
   15.1000004      0.587818563    
   15.1499996      0.614538312    
   15.1999998      0.642030954    
   15.2500000      0.670357406    
   15.3000002      0.699597657    
   15.3500004      0.729832888    
   15.3999996      0.761127591    
   15.4499998      0.793516815    
   15.5000000      0.827002108    
   15.5500002      0.861555934    
   15.6000004      0.897133231    
   15.6499996      0.933686793    
   15.6999998      0.971181154    
   15.7500000       1.00960135    
   15.8000002       1.04895473    
   15.8500004       1.08926618    
   15.8999996       1.13056684    
   15.9499998       1.17288411    
   16.0000000       1.21623242    
   16.0499992       1.26060927    
   16.1000004       1.30599809    
   16.1499996       1.35237432    
   16.2000008       1.39971495    
   16.2500000       1.44800568    
   16.2999992       1.49724448    
   16.3500004       1.54743946    
   16.3999996       1.59860277    
   16.4500008       1.65074122    
   16.5000000       1.70384753    
   16.5499992       1.75789595    
   16.6000004       1.81284213    
   16.6499996       1.86862934    
   16.7000008       1.92519820    
   16.7500000       1.98249745    
   16.7999992       2.04049182    
   16.8500004       2.09916568    
   16.8999996       2.15851974    
   16.9500008       2.21856284    
   17.0000000       2.27930260    
   17.0499992       2.34073305    
   17.1000004       2.40282822    
   17.1499996       2.46554065    
   17.2000008       2.52880621    
   17.2500000       2.59255290    
   17.2999992       2.65670943    
   17.3500004       2.72121668    
   17.3999996       2.78602910    
   17.4500008       2.85111690    
   17.5000000       2.91645908    
   17.5499992       2.98203540    
   17.6000004       3.04781842    
   17.6499996       3.11376834    
   17.7000008       3.17983294    
   17.7500000       3.24595094    
   17.7999992       3.31206012    
   17.8500004       3.37810564    
   17.8999996       3.44404531    
   17.9500008       3.50985074    
   18.0000000       3.57550478    
   18.0499992       3.64099193    
   18.1000004       3.70628977    
   18.1499996       3.77135897    
   18.2000008       3.83613968    
   18.2500000       3.90055251    
   18.2999992       3.96450734    
   18.3500004       4.02791357    
   18.3999996       4.09069633    
   18.4500008       4.15280247    
   18.5000000       4.21420765    
   18.5499992       4.27491522    
   18.6000004       4.33494329    
   18.6499996       4.39431429    
   18.7000008       4.45303965    
   18.7500000       4.51111078    
   18.7999992       4.56849289    
   18.8500004       4.62512827    
   18.8999996       4.68094444    
   18.9500008       4.73586416    
   19.0000000       4.78981876    
   19.0499992       4.84275723    
   19.1000004       4.89464664    
   19.1499996       4.94547367    
   19.2000008       4.99523926    
   19.2500000       5.04395103    
   19.2999992       5.09161854    
   19.3500004       5.13824987    
   19.3999996       5.18385363    
   19.4500008       5.22843695    
   19.5000000       5.27201128    
   19.5499992       5.31458855    
   19.6000004       5.35618210    
   19.6499996       5.39679861    
   19.7000008       5.43643427    
   19.7500000       5.47506857    
   19.7999992       5.51266766    
   19.8500004       5.54918623    
   19.8999996       5.58458138    
   19.9500008       5.61882448    
   20.0000000       5.65191221    
   20.0499992       5.68387508    
   20.1000004       5.71477461    
   20.1499996       5.74469471    
   20.2000008       5.77372742    
   20.2500000       5.80195475    
   20.2999992       5.82943344    
   20.3500004       5.85618782    
   20.3999996       5.88221216    
   20.4500008       5.90747786    
   20.5000000       5.93194866    
   20.5499992       5.95559692    
   20.6000004       5.97841597    
   20.6499996       6.00042534    
   20.7000008       6.02166605    
   20.7500000       6.04219484    
   20.7999992       6.06207275    
   20.8500004       6.08135605    
   20.8999996       6.10009384    
   20.9500008       6.11832380    
   21.0000000       6.13608122    
   21.0499992       6.15340233    
   21.1000004       6.17033005    
   21.1499996       6.18691301    
   21.2000008       6.20319939    
   21.2500000       6.21923065    
   21.2999992       6.23503256    
   21.3500004       6.25060987    
   21.3999996       6.26595116    
   21.4500008       6.28103638    
   21.5000000       6.29584837    
   21.5499992       6.31039047    
   21.6000004       6.32469320    
   21.6499996       6.33882093    
   21.7000008       6.35286379    
   21.7500000       6.36692381    
   21.7999992       6.38109970    
   21.8500004       6.39546728    
   21.8999996       6.41006756    
   21.9500008       6.42490292    
   22.0000000       6.43994379    
   22.0499992       6.45513821    
   22.1000004       6.47043228    
   22.1499996       6.48578215    
   22.2000008       6.50117064    
   22.2500000       6.51661110    
   22.2999992       6.53214407    
   22.3500004       6.54783392    
   22.3999996       6.56375837    
   22.4500008       6.57999134    
   22.5000000       6.59659910    
   22.5499992       6.61362839    
   22.6000004       6.63110495    
   22.6499996       6.64903116    
   22.7000008       6.66739082    
   22.7500000       6.68615532    
   22.7999992       6.70529222    
   22.8500004       6.72477102    
   22.8999996       6.74457121    
   22.9500008       6.76468277    
   23.0000000       6.78511047    
   23.0499992       6.80586576    
   23.1000004       6.82696676    
   23.1499996       6.84842968    
   23.2000008       6.87027216    
   23.2500000       6.89250660    
   23.2999992       6.91514683    
   23.3500004       6.93821096    
   23.3999996       6.96171999    
   23.4500008       6.98569727    
   23.5000000       7.01016140    
   23.5499992       7.03512049    
   23.6000004       7.06056070    
   23.6499996       7.08644342    
   23.7000008       7.11270952    
   23.7500000       7.13928938    
   23.7999992       7.16612005    
   23.8500004       7.19316483    
   23.8999996       7.22042513    
   23.9500008       7.24794436    
   24.0000000       7.27579975    
   24.0499992       7.30407953    
   24.1000004       7.33285904    
   24.1499996       7.36217356    
   24.2000008       7.39200544    
   24.2500000       7.42228603    
   24.2999992       7.45291090    
   24.3500004       7.48377085    
   24.3999996       7.51478100    
   24.4500008       7.54590416    
   24.5000000       7.57715940    
   24.5499992       7.60861015    
   24.6000004       7.64034367    
   24.6499996       7.67243290    
   24.7000008       7.70491934    
   24.7500000       7.73779058    
   24.7999992       7.77098989    
   24.8500004       7.80443239    
   24.8999996       7.83803463    
   24.9500008       7.87173986    
   25.0000000       7.90553188    
   25.0499992       7.93943644    
   25.1000004       7.97350502    
   25.1499996       8.00779247    
   25.2000008       8.04233265    
   25.2500000       8.07712078    
   25.2999992       8.11211872    
   25.3500004       8.14726734    
   25.3999996       8.18250465    
   25.4500008       8.21779156    
   25.5000000       8.25311852    
   25.5499992       8.28850842    
   25.6000004       8.32400131    
   25.6499996       8.35963631    
   25.7000008       8.39542770    
   25.7500000       8.43135929    
   25.7999992       8.46738434    
   25.8500004       8.50343513    
   25.8999996       8.53944492    
   25.9500008       8.57536507    
   26.0000000       8.61117458    
   26.0499992       8.64688206    
   26.1000004       8.68251228    
   26.1499996       8.71809673    
   26.2000008       8.75365353    
   26.2500000       8.78918839    
   26.2999992       8.82469177    
   26.3500004       8.86014843    
   26.3999996       8.89554691    
   26.4500008       8.93088245    
   26.5000000       8.96615410    
   26.5499992       9.00135708    
   26.6000004       9.03646851    
   26.6499996       9.07143784    
   26.7000008       9.10618401    
   26.7500000       9.14061546    
   26.7999992       9.17463779    
   26.8500004       9.20818996    
   26.8999996       9.24125576    
   26.9500008       9.27387238    
   27.0000000       9.30611610    
   27.0499992       9.33808422    
   27.1000004       9.36985779    
   27.1499996       9.40147877    
   27.2000008       9.43292904    
   27.2500000       9.46414185    
   27.2999992       9.49501133    
   27.3500004       9.52541637    
   27.3999996       9.55525589    
   27.4500008       9.58445644    
   27.5000000       9.61298275    
   27.5499992       9.64082527    
   27.6000004       9.66799259    
   27.6499996       9.69448948    
   27.7000008       9.72031116    
   27.7500000       9.74544811    
   27.7999992       9.76989460    
   27.8500004       9.79365349    
   27.8999996       9.81674767    
   27.9500008       9.83921432    
   28.0000000       9.86108971    
   28.0499992       9.88238811    
   28.1000004       9.90308285    
   28.1499996       9.92309952    
   28.2000008       9.94231987    
   28.2500000       9.96060944    
   28.2999992       9.97783947    
   28.3500004       9.99392223    
   28.3999996       10.0088263    
   28.4500008       10.0225859    
   28.5000000       10.0352802    
   28.5499992       10.0470095    
   28.6000004       10.0578671    
   28.6499996       10.0679121    
   28.7000008       10.0771675    
   28.7500000       10.0856142    
   28.7999992       10.0932140    
   28.8500004       10.0999231    
   28.8999996       10.1057053    
   28.9500008       10.1105366    
   29.0000000       10.1144047    
   29.0499992       10.1172886    
   29.1000004       10.1191587    
   29.1499996       10.1199694    
   29.2000008       10.1196718    
   29.2500000       10.1182318    
   29.2999992       10.1156445    
   29.3500004       10.1119556    
   29.3999996       10.1072559    
   29.4500008       10.1016798    
   29.5000000       10.0953693    
   29.5499992       10.0884571    
   29.6000004       10.0810356    
   29.6499996       10.0731478    
   29.7000008       10.0647840    
   29.7500000       10.0559034    
   29.7999992       10.0464497    
   29.8500004       10.0363770    
   29.8999996       10.0256643    
   29.9500008       10.0143204    
   30.0000000       10.0023804    
   30.0499992       9.98990059    
   30.1000004       9.97694683    
   30.1499996       9.96359825    
   30.2000008       9.94994736    
   30.2500000       9.93610954    
   30.2999992       9.92222691    
   30.3500004       9.90846252    
   30.3999996       9.89498806    
   30.4500008       9.88196278    
   30.5000000       9.86950588    
   30.5499992       9.85767937    
   30.6000004       9.84648418    
   30.6499996       9.83586216    
   30.7000008       9.82572842    
   30.7500000       9.81600285    
   30.7999992       9.80664539    
   30.8500004       9.79768276    
   30.8999996       9.78922462    
   30.9500008       9.78144836    
   31.0000000       9.77457905    
   31.0499992       9.76886177    
   31.1000004       9.76452351    
   31.1499996       9.76174641    
   31.2000008       9.76065350    
   31.2500000       9.76130581    
   31.2999992       9.76370430    
   31.3500004       9.76781082    
   31.3999996       9.77356529    
   31.4500008       9.78090096    
   31.5000000       9.78976536    
   31.5499992       9.80013752    
   31.6000004       9.81203079    
   31.6499996       9.82550144    
   31.7000008       9.84064865    
   31.7500000       9.85760021    
   31.7999992       9.87650108    
   31.8500004       9.89749527    
   31.8999996       9.92070484    
   31.9500008       9.94621372    
   32.0000000       9.97405529    
   32.0499992       10.0042114    
   32.0999985       10.0366125    
   32.1500015       10.0711565    
   32.2000008       10.1077185    
   32.2500000       10.1461716    
   32.2999992       10.1864052    
   32.3499985       10.2283325    
   32.4000015       10.2719030    
   32.4500008       10.3170977    
   32.5000000       10.3639317    
   32.5499992       10.4124413    
   32.5999985       10.4626665    
   32.6500015       10.5146389    
   32.7000008       10.5683594    
   32.7500000       10.6237812    
   32.7999992       10.6808081    