  -10.00000        1.0000000E-24
  -9.950000        1.0000000E-24
  -9.900000        1.0000000E-24
  -9.850000        1.0000000E-24
  -9.800000        1.0000000E-24
  -9.750000        1.0000001E-24
  -9.700000        1.0000001E-24
  -9.650000        1.0000001E-24
  -9.600000        1.0000001E-24
  -9.550000        1.0000046E-24
  -9.500000        1.0000526E-24
  -9.450000        1.0003814E-24
  -9.400000        1.0024924E-24
  -9.350000        1.0148295E-24
  -9.300000        1.0737642E-24
  -9.250000        1.2956888E-24
  -9.200000        1.9527914E-24
  -9.150000        3.4743706E-24
  -9.100000        6.1432101E-24
  -9.050000        9.3272358E-24
  -9.000000        1.0879151E-23
  -8.950000        9.1874062E-24
  -8.900000        1.2118712E-23
  -8.850000        5.4553815E-23
  -8.800000        2.1273774E-22
  -8.750000        5.7662895E-22
  -8.700000        1.1159378E-21
  -8.650000        1.3977300E-21
  -8.600000        2.5262222E-22
  -8.550000       -4.2209762E-21
  -8.500000       -1.3587162E-20
  -8.450000       -2.6190104E-20
  -8.400000       -3.2604002E-20
  -8.350000       -1.1848731E-20
  -8.300000        6.5866990E-20
  -8.250000        2.2179207E-19
  -8.200000        4.3125826E-19
  -8.150000        5.7304472E-19
  -8.100000        3.9517334E-19
  -8.050000       -4.4682637E-19
  -8.000000       -2.2131745E-18
  -7.950000       -4.7343575E-18
  -7.900000       -6.9724692E-18
  -7.850000       -6.7340517E-18
  -7.800000       -9.4542205E-19
  -7.750000        1.3069504E-17
  -7.700000        3.5144373E-17
  -7.650000        5.9178877E-17
  -7.600000        7.0919706E-17
  -7.550000        4.9034314E-17
  -7.500000       -2.8017239E-17
  -7.450000       -1.6833231E-16
  -7.400000       -3.4868164E-16
  -7.350000       -4.9985262E-16
  -7.300000       -5.0698776E-16
  -7.250000       -2.3719726E-16
  -7.200000        3.9980778E-16
  -7.150000        1.3672168E-15
  -7.100000        2.4223963E-15
  -7.050000        3.0916292E-15
  -7.000000        2.7495522E-15
  -6.950000        8.3201008E-16
  -6.900000       -2.8416350E-15
  -6.850000       -7.7331643E-15
  -6.800000       -1.2398249E-14
  -6.750000       -1.4625874E-14
  -6.700000       -1.2017659E-14
  -6.650000       -2.9616672E-15
  -6.600000        1.2261956E-14
  -6.550000        3.0697836E-14
  -6.500000        4.6762497E-14
  -6.450000        5.3450930E-14
  -6.400000        4.4607699E-14
  -6.350000        1.7611958E-14
  -6.300000       -2.4621349E-14
  -6.250000       -7.3468826E-14
  -6.200000       -1.1684241E-13
  -6.150000       -1.4332340E-13
  -6.100000       -1.4638307E-13
  -6.050000       -1.2613515E-13
  -6.000000       -8.6570562E-14
  -5.950000       -2.8348695E-14
  -5.900000        5.9466510E-14
  -5.850000        2.0223236E-13
  -5.800000        4.2982653E-13
  -5.750000        7.5021375E-13
  -5.700000        1.1110531E-12
  -5.650000        1.3653282E-12
  -5.600000        1.2666724E-12
  -5.550000        5.2137591E-13
  -5.500000       -1.0890192E-12
  -5.450000       -3.5299398E-12
  -5.400000       -6.3360489E-12
  -5.350000       -8.5247373E-12
  -5.300000       -8.7035761E-12
  -5.250000       -5.4420305E-12
  -5.200000        2.1073234E-12
  -5.150000        1.3478212E-11
  -5.100000        2.6319091E-11
  -5.050000        3.6322070E-11
  -5.000000        3.7950795E-11
  -4.950000        2.6068847E-11
  -4.900000       -1.7670997E-12
  -4.850000       -4.2981715E-11
  -4.800000       -8.8566675E-11
  -4.750000       -1.2357651E-10
  -4.700000       -1.3019777E-10
  -4.650000       -9.3300430E-11
  -4.600000       -7.3451757E-12
  -4.550000        1.1748683E-10
  -4.500000        2.5263408E-10
  -4.450000        3.5436781E-10
  -4.400000        3.7393347E-10
  -4.350000        2.7340988E-10
  -4.300000        4.3443974E-11
  -4.250000       -2.8307967E-10
  -4.200000       -6.2793798E-10
  -4.150000       -8.7982444E-10
  -4.100000       -9.2263946E-10
  -4.050000       -6.7477718E-10
  -4.000000       -1.2868463E-10
  -3.950000        6.2351430E-10
  -3.900000        1.3918379E-09
  -3.850000        1.9253121E-09
  -3.800000        1.9810253E-09
  -3.750000        1.4100521E-09
  -3.700000        2.3449021E-10
  -3.650000       -1.3141231E-09
  -3.600000       -2.8190246E-09
  -3.550000       -3.7731143E-09
  -3.500000       -3.7294576E-09
  -3.450000       -2.4686604E-09
  -3.400000       -1.2857646E-10
  -3.350000        2.7583480E-09
  -3.300000        5.3553859E-09
  -3.250000        6.7380324E-09
  -3.200000        6.1902421E-09
  -3.150000        3.4949925E-09
  -3.100000       -8.8370150E-10
  -3.050000       -5.8149467E-09
  -3.000000       -9.7490718E-09
  -2.950000       -1.1163115E-08
  -2.900000       -9.0896988E-09
  -2.850000       -3.5617445E-09
  -2.800000        4.1997894E-09
  -2.750000        1.1973036E-08
  -2.700000        1.7106968E-08
  -2.650000        1.7353976E-08
  -2.600000        1.1723104E-08
  -2.550000        1.0594374E-09
  -2.500000       -1.1905406E-08
  -2.450000       -2.3149283E-08
  -2.400000       -2.8514387E-08
  -2.350000       -2.5120237E-08
  -2.300000       -1.2587793E-08
  -2.250000        6.3874759E-09
  -2.200000        2.6430278E-08
  -2.150000        4.0880774E-08
  -2.100000        4.3877513E-08
  -2.050000        3.2518489E-08
  -2.000000        8.3582057E-09
  -1.950000       -2.2395211E-08
  -1.900000       -5.0269517E-08
  -1.850000       -6.5281696E-08
  -1.800000       -6.0316111E-08
  -1.750000       -3.4047002E-08
  -1.700000        7.6910114E-09
  -1.650000        5.2813178E-08
  -1.600000        8.6219409E-08
  -1.550000        9.4587470E-08
  -1.500000        7.1289897E-08
  -1.450000        1.9730573E-08
  -1.400000       -4.6312817E-08
  -1.350000       -1.0592243E-07
  -1.300000       -1.3726496E-07
  -1.250000       -1.2508343E-07
  -1.200000       -6.7024743E-08
  -1.150000        2.3587450E-08
  -1.100000        1.2003916E-07
  -1.050000        1.8952933E-07
  -1.000000        2.0368650E-07
 -0.9500000        1.4910553E-07
 -0.9000000        3.4236361E-08
 -0.8500000       -1.1030700E-07
 -0.8000000       -2.3908132E-07
 -0.7500000       -3.0535193E-07
 -0.7000000       -2.7703231E-07
 -0.6500000       -1.4985388E-07
 -0.6000000        4.7174264E-08
 -0.5500000        2.5697838E-07
 -0.5000000        4.0999660E-07
 -0.4500000        4.4619441E-07
 -0.4000000        3.3685066E-07
 -0.3500000        9.8624895E-08
 -0.3000000       -2.0593268E-07
 -0.2500000       -4.8340104E-07
 -0.2000000       -6.3696257E-07
 -0.1500000       -5.9861270E-07
 -0.1000000       -3.5579333E-07
 -5.0000001E-02    3.7275978E-08
  0.0000000E+00    4.6931464E-07
  5.0000001E-02    8.0207508E-07
  0.1000000        9.1317742E-07
  0.1500000        7.3882222E-07
  0.2000000        3.0203321E-07
  0.2500000       -2.8474142E-07
  0.3000000       -8.4652333E-07
  0.3500000       -1.1965967E-06
  0.4000000       -1.1969587E-06
  0.4500000       -8.0936189E-07
  0.5000000       -1.1891255E-07
  0.5500000        6.8062354E-07
  0.6000000        1.3390675E-06
  0.6500000        1.6263011E-06
  0.7000000        1.4101831E-06
  0.7500000        7.1025215E-07
  0.8000000       -2.9303939E-07
  0.8500000       -1.3011631E-06
  0.9000000       -1.9835509E-06
  0.9500000       -2.0827870E-06
   1.000000       -1.5062327E-06
   1.050000       -3.7263155E-07
   1.100000        1.0059414E-06
   1.150000        2.2070103E-06
   1.200000        2.8244483E-06
   1.250000        2.6016535E-06
   1.300000        1.5282538E-06
   1.350000       -1.3445127E-07
   1.400000       -1.9138515E-06
   1.450000       -3.2599353E-06
   1.500000       -3.7154152E-06
   1.550000       -3.0697609E-06
   1.600000       -1.4457623E-06
   1.650000        7.1491468E-07
   1.700000        2.7704332E-06
   1.750000        4.0711761E-06
   1.800000        4.1687645E-06
   1.850000        2.9747468E-06
   1.900000        8.1329881E-07
   1.950000       -1.6572659E-06
   2.000000       -3.6382619E-06
   2.050000       -4.4446679E-06
   2.100000       -3.7403618E-06
   2.150000       -1.6755343E-06
   2.200000        1.1266857E-06
   2.250000        3.7418458E-06
   2.300000        5.2299742E-06
   2.350000        4.9503687E-06
   2.400000        2.8037975E-06
   2.450000       -6.8382900E-07
   2.500000       -4.4772323E-06
   2.550000       -7.3259039E-06
   2.600000       -8.1555063E-06
   2.650000       -6.4371206E-06
   2.700000       -2.4123920E-06
   2.750000        2.9104667E-06
   2.800000        8.0076106E-06
   2.850000        1.1277113E-05
   2.900000        1.1538154E-05
   2.950000        8.4376161E-06
   3.000000        2.6278547E-06
   3.050000       -4.3577206E-06
   3.100000       -1.0513971E-05
   3.150000       -1.3949544E-05
   3.200000       -1.3476914E-05
   3.250000       -9.0225285E-06
   3.300000       -1.7175288E-06
   3.350000        6.3787693E-06
   3.400000        1.2858142E-05
   3.450000        1.5682448E-05
   3.500000        1.3826499E-05
   3.550000        7.6412061E-06
   3.600000       -1.1896858E-06
   3.650000       -1.0105332E-05
   3.700000       -1.6413505E-05
   3.750000       -1.8107556E-05
   3.800000       -1.4504046E-05
   3.850000       -6.4958735E-06
   3.900000        3.6722324E-06
   3.950000        1.3052955E-05
   4.000000        1.8882132E-05
   4.050000        1.9431634E-05
   4.100000        1.4560778E-05
   4.150000        5.7838301E-06
   4.200000       -4.1818580E-06
   4.250000       -1.2258617E-05
   4.300000       -1.5984986E-05
   4.350000       -1.4317333E-05
   4.400000       -7.9935689E-06
   4.450000        6.7267098E-07
   4.500000        8.5204965E-06
   4.550000        1.2575751E-05
   4.600000        1.1066715E-05
   4.650000        4.0908621E-06
   4.700000       -6.2989598E-06
   4.750000       -1.6643298E-05
   4.800000       -2.3113174E-05
   4.850000       -2.2727063E-05
   4.900000       -1.4370507E-05
   4.950000        7.1018133E-07
   5.000000        1.9113875E-05
   5.050000        3.6149690E-05
   5.100000        4.7113372E-05
   5.150000        4.8593534E-05
   5.200000        3.9410697E-05
   5.250000        2.0901773E-05
   5.300000       -3.5348057E-06
   5.350000       -2.9486533E-05
   5.400000       -5.2833919E-05
   5.450000       -7.0904294E-05
   5.500000       -8.3112878E-05
   5.550000       -9.0902948E-05
   5.600000       -9.7030003E-05
   5.650000       -1.0445285E-04
   5.700000       -1.1522465E-04
   5.750000       -1.2977308E-04
   5.800000       -1.4682094E-04
   5.850000       -1.6397118E-04
   5.900000       -1.7874125E-04
   5.950000       -1.8966362E-04
   6.000000       -1.9703398E-04
   6.050000       -2.0300380E-04
   6.100000       -2.1094497E-04
   6.150000       -2.2428273E-04
   6.200000       -2.4520719E-04
   6.250000       -2.7375051E-04
   6.300000       -3.0762149E-04
   6.350000       -3.4294327E-04
   6.400000       -3.7571954E-04
   6.450000       -4.0356794E-04
   6.500000       -4.2711195E-04
   6.550000       -4.5047727E-04
   6.600000       -4.8059266E-04
   6.650000       -5.2538211E-04
   6.700000       -5.9132930E-04
   6.750000       -6.8116433E-04
   6.800000       -7.9246558E-04
   6.850000       -9.1775006E-04
   6.900000       -1.0461966E-03
   6.950000       -1.1666282E-03
   7.000000       -1.2709444E-03
   7.050000       -1.3569742E-03
   7.100000       -1.4298257E-03
   7.150000       -1.5011979E-03
   7.200000       -1.5867254E-03
   7.250000       -1.7020321E-03
   7.300000       -1.8586119E-03
   7.350000       -2.0607691E-03
   7.400000       -2.3045875E-03
   7.450000       -2.5793230E-03
   7.500000       -2.8708901E-03
   7.550000       -3.1664525E-03
   7.600000       -3.4587593E-03
   7.650000       -3.7488963E-03
   7.700000       -4.0465621E-03
   7.750000       -4.3677208E-03
   7.800000       -4.7302735E-03
   7.850000       -5.1490390E-03
   7.900000       -5.6315674E-03
   7.950000       -6.1761043E-03
   8.000000       -6.7723989E-03
   8.050000       -7.4051851E-03
   8.100000       -8.0593498E-03
   8.150000       -8.7252660E-03
   8.200000       -9.4026718E-03
   8.250000       -1.0101939E-02
   8.300000       -1.0842284E-02
   8.350000       -1.1647496E-02
   8.400000       -1.2540416E-02
   8.450000       -1.3537874E-02
   8.500000       -1.4647597E-02
   8.550000       -1.5868014E-02
   8.600000       -1.7190965E-02
   8.650000       -1.8606428E-02
   8.700000       -2.0107731E-02
   8.750000       -2.1695562E-02
   8.800000       -2.3379471E-02
   8.850000       -2.5176374E-02
   8.900000       -2.7106520E-02
   8.950000       -2.9188229E-02
   9.000000       -3.1433135E-02
   9.050000       -3.3843577E-02
   9.100000       -3.6413085E-02
   9.150000       -3.9130013E-02
   9.200000       -4.1983288E-02
   9.250000       -4.4968590E-02
   9.300000       -4.8093051E-02
   9.350000       -5.1376987E-02
   9.400000       -5.4851934E-02
   9.450000       -5.8555573E-02
   9.500000       -6.2524796E-02
   9.550000       -6.6789061E-02
   9.600000       -7.1365878E-02
   9.650000       -7.6259769E-02
   9.700000       -8.1465065E-02
   9.750000       -8.6971618E-02
   9.800000       -9.2771836E-02
   9.850000       -9.8866910E-02
   9.900000       -0.1052705    
   9.950000       -0.1120089    
   10.00000       -0.1191170    
   10.05000       -0.1266329    
   10.10000       -0.1345907    
   10.15000       -0.1430150    
   10.20000       -0.1519184    
   10.25000       -0.1613018    
   10.30000       -0.1711588    
   10.35000       -0.1814815    
   10.40000       -0.1922665    
   10.45000       -0.2035205    
   10.50000       -0.2152624    
   10.55000       -0.2275230    
   10.60000       -0.2403423    
   10.65000       -0.2537644    
   10.70000       -0.2678324    
   10.75000       -0.2825844    
   10.80000       -0.2980508    
   10.85000       -0.3142529    
   10.90000       -0.3312042    
   10.95000       -0.3489125    
   11.00000       -0.3673823    
   11.05000       -0.3866182    
   11.10000       -0.4066271    
   11.15000       -0.4274208    
   11.20000       -0.4490166    
   11.25000       -0.4714381    
   11.30000       -0.4947137    
   11.35000       -0.5188749    
   11.40000       -0.5439529    
   11.45000       -0.5699744    
   11.50000       -0.5969589    
   11.55000       -0.6249158    
   11.60000       -0.6538446    
   11.65000       -0.6837370    
   11.70000       -0.7145815    
   11.75000       -0.7463698    
   11.80000       -0.7791024    
   11.85000       -0.8127926    
   11.90000       -0.8474674    
   11.95000       -0.8831647    
   12.00000       -0.9199268    
   12.05000       -0.9577917    
   12.10000       -0.9967855    
   12.15000        -1.036916    
   12.20000        -1.078171    
   12.25000        -1.120524    
   12.30000        -1.163937    
   12.35000        -1.208374    
   12.40000        -1.253805    
   12.45000        -1.300218    
   12.50000        -1.347613    
   12.55000        -1.396003    
   12.60000        -1.445403    
   12.65000        -1.495821    
   12.70000        -1.547254    
   12.75000        -1.599678    
   12.80000        -1.653054    
   12.85000        -1.707330    
   12.90000        -1.762453    
   12.95000        -1.818376    
   13.00000        -1.875065    
   13.05000        -1.932503    
   13.10000        -1.990682    
   13.15000        -2.049600    
   13.20000        -2.109249    
   13.25000        -2.169606    
   13.30000        -2.230632    
   13.35000        -2.292264    
   13.40000        -2.354432    
   13.45000        -2.417056    
   13.50000        -2.480064    
   13.55000        -2.543395    
   13.60000        -2.607002    
   13.65000        -2.670850    
   13.70000        -2.734905    
   13.75000        -2.799129    
   13.80000        -2.863471    
   13.85000        -2.927863    
   13.90000        -2.992224    
   13.95000        -3.056465    
   14.00000        -3.120502    
   14.05000        -3.184263    
   14.10000        -3.247694    
   14.15000        -3.310761    
   14.20000        -3.373437    
   14.25000        -3.435697    
   14.30000        -3.497499    
   14.35000        -3.558780    
   14.40000        -3.619452    
   14.45000        -3.679404    
   14.50000        -3.738519    
   14.55000        -3.796687    
   14.60000        -3.853821    
   14.65000        -3.909862    
   14.70000        -3.964782    
   14.75000        -4.018570    
   14.80000        -4.071224    
   14.85000        -4.122725    
   14.90000        -4.173027    
   14.95000        -4.222057    
   15.00000        -4.269710    
   15.05000        -4.315868    
   15.10000        -4.360421    
   15.15000        -4.403279    
   15.20000        -4.444390    
   15.25000        -4.483740    
   15.30000        -4.521348    
   15.35000        -4.557248    
   15.40000        -4.591474    
   15.45000        -4.624038    
   15.50000        -4.654921    
   15.55000        -4.684068    
   15.60000        -4.711399    
   15.65000        -4.736823    
   15.70000        -4.760255    
   15.75000        -4.781631    
   15.80000        -4.800922    
   15.85000        -4.818132    
   15.90000        -4.833292    
   15.95000        -4.846452    
   16.00000        -4.857663    
   16.05000        -4.866965    
   16.10000        -4.874383    
   16.15000        -4.879919    
   16.20000        -4.883559    
   16.25000        -4.885286    
   16.30000        -4.885083    
   16.35000        -4.882946    
   16.40000        -4.878889    
   16.45000        -4.872940    
   16.50000        -4.865142    
   16.55000        -4.855542    
   16.60000        -4.844185    
   16.65000        -4.831108    
   16.70000        -4.816343    
   16.75000        -4.799917    
   16.80000        -4.781859    
   16.85000        -4.762210    
   16.90000        -4.741025    
   16.95000        -4.718375    
   17.00000        -4.694339    
   17.05000        -4.668997    
   17.10000        -4.642422    
   17.15000        -4.614665    
   17.20000        -4.585758    
   17.25000        -4.555713    
   17.30000        -4.524533    
   17.35000        -4.492224    
   17.40000        -4.458810    
   17.45000        -4.424340    
   17.50000        -4.388887    
   17.55000        -4.352546    
   17.60000        -4.315423    
   17.65000        -4.277623    
   17.70000        -4.239236    
   17.75000        -4.200341    
   17.80000        -4.160999    
   17.85000        -4.121261    
   17.90000        -4.081176    
   17.95000        -4.040790    
   18.00000        -4.000146    
   18.05000        -3.959288    
   18.10000        -3.918245    
   18.15000        -3.877036    
   18.20000        -3.835670    
   18.25000        -3.794155    
   18.30000        -3.752508    
   18.35000        -3.710764    
   18.40000        -3.668984    
   18.45000        -3.627251    
   18.50000        -3.585662    
   18.55000        -3.544315    
   18.60000        -3.503288    
   18.65000        -3.462636    
   18.70000        -3.422388    
   18.75000        -3.382550    
   18.80000        -3.343125    
   18.85000        -3.304118    
   18.90000        -3.265548    
   18.95000        -3.227445    
   19.00000        -3.189842    
   19.05000        -3.152758    
   19.10000        -3.116192    
   19.15000        -3.080124    
   19.20000        -3.044517    
   19.25000        -3.009342    
   19.30000        -2.974594    
   19.35000        -2.940308    
   19.40000        -2.906558    
   19.45000        -2.873442    
   19.50000        -2.841060    
   19.55000        -2.809481    
   19.60000        -2.778726    
   19.65000        -2.748763    
   19.70000        -2.719519    
   19.75000        -2.690911    
   19.80000        -2.662868    
   19.85000        -2.635362    
   19.90000        -2.608407    
   19.95000        -2.582050    
   20.00000        -2.556341    
   20.05000        -2.531309    
   20.10000        -2.506941    
   20.15000        -2.483183    
   20.20000        -2.459965    
   20.25000        -2.437226    
   20.30000        -2.414952    
   20.35000        -2.393179    
   20.40000        -2.371998    
   20.45000        -2.351514    
   20.50000        -2.331813    
   20.55000        -2.312919    
   20.60000        -2.294783    
   20.65000        -2.277288    
   20.70000        -2.260286    
   20.75000        -2.243650    
   20.80000        -2.227310    
   20.85000        -2.211274    
   20.90000        -2.195620    
   20.95000        -2.180459    
   21.00000        -2.165884    
   21.05000        -2.151933    
   21.10000        -2.138569    
   21.15000        -2.125697    
   21.20000        -2.113206    
   21.25000        -2.101014    
   21.30000        -2.089113    
   21.35000        -2.077568    
   21.40000        -2.066505    
   21.45000        -2.056047    
   21.50000        -2.046270    
   21.55000        -2.037156    
   21.60000        -2.028597    
   21.65000        -2.020426    
   21.70000        -2.012476    
   21.75000        -2.004649    
   21.80000        -1.996950    
   21.85000        -1.989491    
   21.90000        -1.982454    
   21.95000        -1.976024    
   22.00000        -1.970322    
   22.05000        -1.965369    
   22.10000        -1.961079    
   22.15000        -1.957309    
   22.20000        -1.953923    
   22.25000        -1.950855    
   22.30000        -1.948142    
   22.35000        -1.945918    
   22.40000        -1.944356    
   22.45000        -1.943606    
   22.50000        -1.943729    
   22.55000        -1.944677    
   22.60000        -1.946317    
   22.65000        -1.948491    
   22.70000        -1.951097    
   22.75000        -1.954152    
   22.80000        -1.957806    
   22.85000        -1.962312    
   22.90000        -1.967946    
   22.95000        -1.974921    
   23.00000        -1.983322    
   23.05000        -1.993090    
   23.10000        -2.004067    
   23.15000        -2.016072    
   23.20000        -2.028998    
   23.25000        -2.042871    
   23.30000        -2.057860    
   23.35000        -2.074231    
   23.40000        -2.092261    
   23.45000        -2.112144    
   23.50000        -2.133947    
   23.55000        -2.157603    
   23.60000        -2.182978    
   23.65000        -2.209965    
   23.70000        -2.238564    
   23.75000        -2.268934    
   23.80000        -2.301373    
   23.85000        -2.336241    
   23.90000        -2.373853    
   23.95000        -2.414395    
   24.00000        -2.457876    
   24.05000        -2.504162    
   24.10000        -2.553061    
   24.15000        -2.604439    
   24.20000        -2.658312    
   24.25000        -2.714882    
   24.30000        -2.774500    
   24.35000        -2.837575    
   24.40000        -2.904453    
   24.45000        -2.975330    
   24.50000        -3.050225    
   24.55000        -3.129024    
   24.60000        -3.211578    
   24.65000        -3.297822    
   24.70000        -3.387853    
   24.75000        -3.481944    
   24.80000        -3.580488    
   24.85000        -3.683885    
   24.90000        -3.792428    
   24.95000        -3.906233    
   25.00000        -4.025232    
   25.05000        -4.149246    
   25.10000        -4.278103    
   25.15000        -4.411746    
   25.20000        -4.550303    
   25.25000        -4.694076    
   25.30000        -4.843455    
   25.35000        -4.998804    
   25.40000        -5.160349    
   25.45000        -5.328127    
   25.50000        -5.502006    
   25.55000        -5.681780    
   25.60000        -5.867290    
   25.65000        -6.058522    
   25.70000        -6.255648    
   25.75000        -6.458980    
   25.80000        -6.668869    
   25.85000        -6.885580    
   25.90000        -7.109193    
   25.95000        -7.339579    
   26.00000        -7.576455    
   26.05000        -7.819494    
   26.10000        -8.068451    
   26.15000        -8.323252    
   26.20000        -8.584004    
   26.25000        -8.850943    
   26.30000        -9.124301    
   26.35000        -9.404202    
   26.40000        -9.690578    
   26.45000        -9.983174    
   26.50000        -10.28162    
   26.55000        -10.58555    
   26.60000        -10.89470    
   26.65000        -11.20899    
   26.70000        -11.52849    
   26.75000        -11.85331    
   26.80000        -12.18353    
   26.85000        -12.51906    
   26.90000        -12.85958    
   26.95000        -13.20462    
   27.00000        -13.55361    
   27.05000        -13.90605    
   27.10000        -14.26155    
   27.15000        -14.61993    
   27.20000        -14.98113    
   27.25000        -15.34516    
   27.30000        -15.71194    
   27.35000        -16.08123    
   27.40000        -16.45263    
   27.45000        -16.82560    
   27.50000        -17.19957    
   27.55000        -17.57404    
   27.60000        -17.94862    
   27.65000        -18.32308    
   27.70000        -18.69723    
   27.75000        -19.07087    
   27.80000        -19.44367    
   27.85000        -19.81516    
   27.90000        -20.18474    
   27.95000        -20.55174    
   28.00000        -20.91556    
   28.05000        -21.27572    
   28.10000        -21.63190    
   28.15000        -21.98390    
   28.20000        -22.33155    
   28.25000        -22.67463    
   28.30000        -23.01279    
   28.35000        -23.34555    
   28.40000        -23.67232    
   28.45000        -23.99250    
   28.50000        -24.30557    
   28.55000        -24.61114    
   28.60000        -24.90892    
   28.65000        -25.19869    
   28.70000        -25.48022    
   28.75000        -25.75318    
   28.80000        -26.01716    
   28.85000        -26.27166    
   28.90000        -26.51617    
   28.95000        -26.75028    
   29.00000        -26.97368    
   29.05000        -27.18623    
   29.10000        -27.38784    
   29.15000        -27.57846    
   29.20000        -27.75794    
   29.25000        -27.92604    
   29.30000        -28.08244    
   29.35000        -28.22678    
   29.40000        -28.35878    
   29.45000        -28.47826    
   29.50000        -28.58520    
   29.55000        -28.67966    
   29.60000        -28.76171    
   29.65000        -28.83139    
   29.70000        -28.88855    
   29.75000        -28.93299    
   29.80000        -28.96441    
   29.85000        -28.98262    
   29.90000        -28.98754    
   29.95000        -28.97930    
   30.00000        -28.95821    
   30.05000        -28.92465    
   30.10000        -28.87897    
   30.15000        -28.82139    
   30.20000        -28.75197    
   30.25000        -28.67065    
   30.30000        -28.57734    
   30.35000        -28.47203    
   30.40000        -28.35490    
   30.45000        -28.22628    
   30.50000        -28.08665    
   30.55000        -27.93647    
   30.60000        -27.77612    
   30.65000        -27.60582    
   30.70000        -27.42561    
   30.75000        -27.23546    
   30.80000        -27.03544    
   30.85000        -26.82574    
   30.90000        -26.60681    
   30.95000        -26.37929    
   31.00000        -26.14387    
   31.05000        -25.90122    
   31.10000        -25.65181    
   31.15000        -25.39590    
   31.20000        -25.13358    
   31.25000        -24.86487    
   31.30000        -24.58991    
   31.35000        -24.30901    
   31.40000        -24.02266    
   31.45000        -23.73154    
   31.50000        -23.43628    
   31.55000        -23.13741    
   31.60000        -22.83525    
   31.65000        -22.52989    
   31.70000        -22.22135    
   31.75000        -21.90971    
   31.80000        -21.59521    
   31.85000        -21.27837    
   31.90000        -20.95991    
   31.95000        -20.64062    
   32.00000        -20.32121    
   32.05000        -20.00215    
   32.10000        -19.68360    
   32.15000        -19.36552    
   32.20000        -19.04775    
   32.25000        -18.73024    
   32.30000        -18.41315    
   32.35000        -18.09692    
   32.40000        -17.78216    
   32.45000        -17.46953    
   32.50000        -17.15952    
   32.55000        -16.85238    
   32.60000        -16.54811    
   32.65000        -16.24652    
   32.70000        -15.94748    
   32.75000        -15.65103    
   32.80000        -15.35750    
   32.85000        -15.06749    
   32.90000        -14.78167    
   32.95000        -14.50066    
   33.00000        -14.22478    
   33.05000        -13.95401    
   33.10000        -13.68800    
   33.15000        -13.42629    
   33.20000        -13.16849    
   33.25000        -12.91447    
   33.30000        -12.66446    
   33.35000        -12.41898    
   33.40000        -12.17865    
   33.45000        -11.94398    
   33.50000        -11.71521    
   33.55000        -11.49223    
   33.60000        -11.27464    
   33.65000        -11.06200    
   33.70000        -10.85396    
   33.75000        -10.65048    
   33.80000        -10.45181    
   33.85000        -10.25842    
   33.90000        -10.07080    
   33.95000        -9.889225    
   34.00000        -9.713667    
   34.05000        -9.543747    
   34.10000        -9.378890    
   34.15000        -9.218526    
   34.20000        -9.062302    
   34.25000        -8.910201    
   34.30000        -8.762532    
   34.35000        -8.619784    
   34.40000        -8.482413    
   34.45000        -8.350636    
   34.50000        -8.224329    
   34.55000        -8.103051    
   34.60000        -7.986193    
   34.65000        -7.873191    
   34.70000        -7.763709    
   34.75000        -7.657726    
   34.80000        -7.555497    
   34.85000        -7.457398    
   34.90000        -7.363730    
   34.95000        -7.274562    
   35.00000        -7.189669    
   35.05000        -7.108599    
   35.10000        -7.030828    
   35.15000        -6.955944    
   35.20000        -6.883777    
   35.25000        -6.814425    
   35.30000        -6.748168    
   35.35000        -6.685297    
   35.40000        -6.625942    