  -3.99999991E-02   0.00000000    
  -3.99499983E-02   0.00000000    
  -3.99000011E-02   0.00000000    
  -3.98500003E-02   3.32812877E-17
  -3.97999994E-02   1.62773051E-16
  -3.97499986E-02   4.24457765E-16
  -3.97000015E-02   8.04001662E-16
  -3.96500006E-02   1.30852212E-15
  -3.95999998E-02   2.04975197E-15
  -3.95499989E-02   3.19978364E-15
  -3.95000018E-02   4.83529351E-15
  -3.94500010E-02   6.86647386E-15
  -3.94000001E-02   9.18201079E-15
  -3.93499993E-02   1.18654239E-14
  -3.92999984E-02   1.52034283E-14
  -3.92500013E-02   1.94362281E-14
  -3.92000005E-02   2.45434945E-14
  -3.91499996E-02   3.03652570E-14
  -3.90999988E-02   3.69609196E-14
  -3.90500017E-02   4.47822829E-14
  -3.90000008E-02   5.44182822E-14
  -3.89500000E-02   6.61805070E-14
  -3.88999991E-02   8.00087264E-14
  -3.88499983E-02   9.57920131E-14
  -3.88000011E-02   1.13682786E-13
  -3.87500003E-02   1.33996546E-13
  -3.86999995E-02   1.56853859E-13
  -3.86499986E-02   1.82114035E-13
  -3.86000015E-02   2.09816553E-13
  -3.85500006E-02   2.40641600E-13
  -3.84999998E-02   2.75729553E-13
  -3.84499989E-02   3.15868100E-13
  -3.84000018E-02   3.60827335E-13
  -3.83500010E-02   4.09549239E-13
  -3.83000001E-02   4.61010733E-13
  -3.82499993E-02   5.14899701E-13
  -3.81999984E-02   5.71567479E-13
  -3.81500013E-02   6.31616016E-13
  -3.81000005E-02   6.95809079E-13
  -3.80499996E-02   7.65354739E-13
  -3.79999988E-02   8.41862821E-13
  -3.79500017E-02   9.26495751E-13
  -3.79000008E-02   1.01888214E-12
  -3.78500000E-02   1.11695625E-12
  -3.77999991E-02   1.21815492E-12
  -3.77499983E-02   1.32104104E-12
  -3.77000012E-02   1.42595939E-12
  -3.76500003E-02   1.53431597E-12
  -3.75999995E-02   1.64739034E-12
  -3.75499986E-02   1.76576646E-12
  -3.75000015E-02   1.88944216E-12
  -3.74500006E-02   2.01785572E-12
  -3.73999998E-02   2.14948241E-12
  -3.73499990E-02   2.28172104E-12
  -3.73000018E-02   2.41192678E-12
  -3.72500010E-02   2.53922035E-12
  -3.72000001E-02   2.66548675E-12
  -3.71499993E-02   2.79432575E-12
  -3.70999984E-02   2.92854044E-12
  -3.70500013E-02   3.06812366E-12
  -3.70000005E-02   3.21016282E-12
  -3.69499996E-02   3.35029248E-12
  -3.68999988E-02   3.48425715E-12
  -3.68500017E-02   3.60877300E-12
  -3.68000008E-02   3.72208471E-12
  -3.67500000E-02   3.82472483E-12
  -3.66999991E-02   3.91988568E-12
  -3.66499983E-02   4.01219336E-12
  -3.66000012E-02   4.10478682E-12
  -3.65500003E-02   4.19651943E-12
  -3.64999995E-02   4.28160155E-12
  -3.64499986E-02   4.35222258E-12
  -3.64000015E-02   4.40229884E-12
  -3.63500006E-02   4.42979074E-12
  -3.62999998E-02   4.43660646E-12
  -3.62499990E-02   4.42704467E-12
  -3.62000018E-02   4.40606969E-12
  -3.61500010E-02   4.37768008E-12
  -3.61000001E-02   4.34301857E-12
  -3.60499993E-02   4.29870028E-12
  -3.59999985E-02   4.23697969E-12
  -3.59500013E-02   4.14877724E-12
  -3.59000005E-02   4.02830243E-12
  -3.58499996E-02   3.87616762E-12
  -3.57999988E-02   3.69871234E-12
  -3.57500017E-02   3.50408721E-12
  -3.57000008E-02   3.29791099E-12
  -3.56500000E-02   3.08101374E-12
  -3.55999991E-02   2.84964652E-12
  -3.55499983E-02   2.59706839E-12
  -3.55000012E-02   2.31570318E-12
  -3.54500003E-02   1.99990111E-12
  -3.53999995E-02   1.64899106E-12
  -3.53499986E-02   1.26896074E-12
  -3.53000015E-02   8.70745912E-13
  -3.52500007E-02   4.65073563E-13
  -3.51999998E-02   5.66972278E-14
  -3.51499990E-02  -3.58142769E-13
  -3.51000018E-02  -7.89367649E-13
  -3.50500010E-02  -1.24757767E-12
  -3.50000001E-02  -1.73888367E-12
  -3.49499993E-02  -2.26238039E-12
  -3.48999985E-02  -2.81039883E-12
  -3.48500013E-02  -3.37068568E-12
  -3.48000005E-02  -3.93006331E-12
  -3.47499996E-02  -4.47924553E-12
  -3.46999988E-02  -5.01728260E-12
  -3.46500017E-02  -5.55284161E-12
  -3.46000008E-02  -6.10038495E-12
  -3.45500000E-02  -6.67251540E-12
  -3.44999991E-02  -7.27280128E-12
  -3.44499983E-02  -7.89336652E-12
  -3.44000012E-02  -8.51829631E-12
  -3.43500003E-02  -9.13027466E-12
  -3.42999995E-02  -9.71671962E-12
  -3.42499986E-02  -1.02732284E-11
  -3.42000015E-02  -1.08040755E-11
  -3.41500007E-02  -1.13200803E-11
  -3.40999998E-02  -1.18339201E-11
  -3.40499990E-02  -1.23536424E-11
  -3.40000018E-02  -1.28771169E-11
  -3.39500010E-02  -1.33910443E-11
  -3.39000002E-02  -1.38762439E-11
  -3.38499993E-02  -1.43166546E-11
  -3.37999985E-02  -1.47067480E-11
  -3.37500013E-02  -1.50530196E-11
  -3.37000005E-02  -1.53693863E-11
  -3.36499996E-02  -1.56698612E-11
  -3.35999988E-02  -1.59622853E-11
  -3.35500017E-02  -1.62449568E-11
  -3.35000008E-02  -1.65063727E-11
  -3.34500000E-02  -1.67281900E-11
  -3.33999991E-02  -1.68915628E-11
  -3.33499983E-02  -1.69853333E-11
  -3.33000012E-02  -1.70121486E-11
  -3.32500003E-02  -1.69880846E-11
  -3.31999995E-02  -1.69348199E-11
  -3.31499986E-02  -1.68684598E-11
  -3.31000015E-02  -1.67915074E-11
  -3.30500007E-02  -1.66921442E-11
  -3.29999998E-02  -1.65500044E-11
  -3.29499990E-02  -1.63443807E-11
  -3.29000019E-02  -1.60613033E-11
  -3.28500010E-02  -1.56980141E-11
  -3.28000002E-02  -1.52642204E-11
  -3.27499993E-02  -1.47790929E-11
  -3.26999985E-02  -1.42633908E-11
  -3.26500013E-02  -1.37292296E-11
  -3.26000005E-02  -1.31731240E-11
  -3.25499997E-02  -1.25775319E-11
  -3.24999988E-02  -1.19208870E-11
  -3.24500017E-02  -1.11903186E-11
  -3.24000008E-02  -1.03896839E-11
  -3.23500000E-02  -9.53951154E-12
  -3.22999991E-02  -8.67064493E-12
  -3.22499983E-02  -7.81561187E-12
  -3.22000012E-02  -7.00032523E-12
  -3.21500003E-02  -6.23722862E-12
  -3.20999995E-02  -5.52167123E-12
  -3.20499986E-02  -4.83439677E-12
  -3.20000015E-02  -4.15119978E-12
  -3.19500007E-02  -3.45580530E-12
  -3.18999998E-02  -2.74835254E-12
  -3.18499990E-02  -2.04390129E-12
  -3.18000019E-02  -1.36224896E-12
  -3.17500010E-02  -7.16100356E-13
  -3.17000002E-02  -1.04424072E-13
  -3.16499993E-02   4.87218176E-13
  -3.15999985E-02   1.08192882E-12
  -3.15500014E-02   1.70511196E-12
  -3.15000005E-02   2.37730734E-12
  -3.14499997E-02   3.10708620E-12
  -3.13999988E-02   3.88739908E-12
  -3.13500017E-02   4.69974233E-12
  -3.13000008E-02   5.52647988E-12
  -3.12500000E-02   6.36498319E-12
  -3.11999992E-02   7.23447127E-12
  -3.11500002E-02   8.17096651E-12
  -3.10999993E-02   9.21395165E-12
  -3.10500003E-02   1.03929261E-11
  -3.09999995E-02   1.17196738E-11
  -3.09500005E-02   1.31867928E-11
  -3.08999997E-02   1.47705095E-11
  -3.08500007E-02   1.64371659E-11
  -3.07999998E-02   1.81536852E-11
  -3.07500008E-02   1.98993044E-11
  -3.07000000E-02   2.16720843E-11
  -3.06499992E-02   2.34842042E-11
  -3.06000002E-02   2.53471428E-11
  -3.05499993E-02   2.72556248E-11
  -3.05000003E-02   2.91801548E-11
  -3.04499995E-02   3.10715238E-11
  -3.04000005E-02   3.28724235E-11
  -3.03499997E-02   3.45291677E-11
  -3.03000007E-02   3.59999495E-11
  -3.02499998E-02   3.72597543E-11
  -3.02000009E-02   3.83016084E-11
  -3.01500000E-02   3.91318263E-11
  -3.00999992E-02   3.97582904E-11
  -3.00500002E-02   4.01766606E-11
  -2.99999993E-02   4.03636014E-11
  -2.99500003E-02   4.02830339E-11
  -2.98999995E-02   3.99020816E-11
  -2.98500005E-02   3.92064645E-11
  -2.97999997E-02   3.82065109E-11
  -2.97500007E-02   3.69327416E-11
  -2.96999998E-02   3.54263910E-11
  -2.96500009E-02   3.37297204E-11
  -2.96000000E-02   3.18776984E-11
  -2.95499992E-02   2.98912596E-11
  -2.95000002E-02   2.77751225E-11
  -2.94499993E-02   2.55243483E-11
  -2.94000003E-02   2.31392197E-11
  -2.93499995E-02   2.06405917E-11
  -2.93000005E-02   1.80749408E-11
  -2.92499997E-02   1.55048110E-11
  -2.92000007E-02   1.29905973E-11
  -2.91499998E-02   1.05747694E-11
  -2.91000009E-02   8.27578717E-12
  -2.90500000E-02   6.09124166E-12
  -2.89999992E-02   4.00572370E-12
  -2.89500002E-02   2.00060281E-12
  -2.88999993E-02   6.51125204E-14
  -2.88500004E-02  -1.79376099E-12
  -2.87999995E-02  -3.54859913E-12
  -2.87500005E-02  -5.16107946E-12
  -2.86999997E-02  -6.60096500E-12
  -2.86500007E-02  -7.86359606E-12
  -2.85999998E-02  -8.97467864E-12
  -2.85500009E-02  -9.97995089E-12
  -2.85000000E-02  -1.09273901E-11
  -2.84499992E-02  -1.18524773E-11
  -2.84000002E-02  -1.27718565E-11
  -2.83499993E-02  -1.36842170E-11
  -2.83000004E-02  -1.45757937E-11
  -2.82499995E-02  -1.54299941E-11
  -2.82000005E-02  -1.62406026E-11
  -2.81499997E-02  -1.70237748E-11
  -2.81000007E-02  -1.78206165E-11
  -2.80499998E-02  -1.86858549E-11
  -2.80000009E-02  -1.96679478E-11
  -2.79500000E-02  -2.07930895E-11
  -2.78999992E-02  -2.20631517E-11
  -2.78500002E-02  -2.34671674E-11
  -2.77999993E-02  -2.49973185E-11
  -2.77500004E-02  -2.66602296E-11
  -2.76999995E-02  -2.84806484E-11
  -2.76500005E-02  -3.04994745E-11
  -2.75999997E-02  -3.27674832E-11
  -2.75500007E-02  -3.53342390E-11
  -2.74999999E-02  -3.82336662E-11
  -2.74500009E-02  -4.14732589E-11
  -2.74000000E-02  -4.50355725E-11
  -2.73499992E-02  -4.88941145E-11
  -2.73000002E-02  -5.30348578E-11
  -2.72499993E-02  -5.74694493E-11
  -2.72000004E-02  -6.22322471E-11
  -2.71499995E-02  -6.73649955E-11
  -2.71000005E-02  -7.28996377E-11
  -2.70499997E-02  -7.88473800E-11
  -2.70000007E-02  -8.51952744E-11
  -2.69499999E-02  -9.19083906E-11
  -2.69000009E-02  -9.89374138E-11
  -2.68500000E-02  -1.06232433E-10
  -2.67999992E-02  -1.13759356E-10
  -2.67500002E-02  -1.21509719E-10
  -2.66999993E-02  -1.29495137E-10
  -2.66500004E-02  -1.37727524E-10
  -2.65999995E-02  -1.46197013E-10
  -2.65500005E-02  -1.54862165E-10
  -2.64999997E-02  -1.63657060E-10
  -2.64500007E-02  -1.72508591E-10
  -2.63999999E-02  -1.81352502E-10
  -2.63500009E-02  -1.90142263E-10
  -2.63000000E-02  -1.98851713E-10
  -2.62499992E-02  -2.07473039E-10
  -2.62000002E-02  -2.16009169E-10
  -2.61499994E-02  -2.24459271E-10
  -2.61000004E-02  -2.32803596E-10
  -2.60499995E-02  -2.40997833E-10
  -2.60000005E-02  -2.48984638E-10
  -2.59499997E-02  -2.56716259E-10
  -2.59000007E-02  -2.64173544E-10
  -2.58499999E-02  -2.71368178E-10
  -2.58000009E-02  -2.78328721E-10
  -2.57500000E-02  -2.85081597E-10
  -2.56999992E-02  -2.91638130E-10
  -2.56500002E-02  -2.97990799E-10
  -2.55999994E-02  -3.04115455E-10
  -2.55500004E-02  -3.09978071E-10
  -2.54999995E-02  -3.15547810E-10
  -2.54500005E-02  -3.20814764E-10
  -2.53999997E-02  -3.25803440E-10
  -2.53500007E-02  -3.30570349E-10
  -2.52999999E-02  -3.35182437E-10
  -2.52500009E-02  -3.39688583E-10
  -2.52000000E-02  -3.44102774E-10
  -2.51499992E-02  -3.48408163E-10
  -2.51000002E-02  -3.52576551E-10
  -2.50499994E-02  -3.56589369E-10
  -2.50000004E-02  -3.60449587E-10
  -2.49499995E-02  -3.64185043E-10
  -2.49000005E-02  -3.67845088E-10
  -2.48499997E-02  -3.71490727E-10
  -2.48000007E-02  -3.75176362E-10
  -2.47499999E-02  -3.78928333E-10
  -2.47000009E-02  -3.82733151E-10
  -2.46500000E-02  -3.86546906E-10
  -2.45999992E-02  -3.90323218E-10
  -2.45500002E-02  -3.94041633E-10
  -2.44999994E-02  -3.97718330E-10
  -2.44500004E-02  -4.01394640E-10
  -2.43999995E-02  -4.05114081E-10
  -2.43500005E-02  -4.08902467E-10
  -2.42999997E-02  -4.12757800E-10
  -2.42500007E-02  -4.16648743E-10
  -2.41999999E-02  -4.20519980E-10
  -2.41500009E-02  -4.24306590E-10
  -2.41000000E-02  -4.27956837E-10
  -2.40499992E-02  -4.31454428E-10
  -2.40000002E-02  -4.34823871E-10
  -2.39499994E-02  -4.38111353E-10
  -2.39000004E-02  -4.41351233E-10
  -2.38499995E-02  -4.44539988E-10
  -2.38000005E-02  -4.47632986E-10
  -2.37499997E-02  -4.50563753E-10
  -2.37000007E-02  -4.53269977E-10
  -2.36499999E-02  -4.55713328E-10
  -2.36000009E-02  -4.57888699E-10
  -2.35500000E-02  -4.59824762E-10
  -2.34999992E-02  -4.61574223E-10
  -2.34500002E-02  -4.63192290E-10
  -2.33999994E-02  -4.64707078E-10
  -2.33500004E-02  -4.66098049E-10
  -2.32999995E-02  -4.67298977E-10
  -2.32500006E-02  -4.68227790E-10
  -2.31999997E-02  -4.68826866E-10
  -2.31500007E-02  -4.69089045E-10
  -2.30999999E-02  -4.69057071E-10
  -2.30500009E-02  -4.68802386E-10
  -2.30000000E-02  -4.68398320E-10
  -2.29499992E-02  -4.67898442E-10
  -2.29000002E-02  -4.67323291E-10
  -2.28499994E-02  -4.66655825E-10
  -2.28000004E-02  -4.65850858E-10
  -2.27499995E-02  -4.64861871E-10
  -2.27000006E-02  -4.63674377E-10
  -2.26499997E-02  -4.62327898E-10
  -2.26000007E-02  -4.60908978E-10
  -2.25499999E-02  -4.59517979E-10
  -2.25000009E-02  -4.58231231E-10
  -2.24500000E-02  -4.57080984E-10
  -2.23999992E-02  -4.56059995E-10
  -2.23500002E-02  -4.55142174E-10
  -2.22999994E-02  -4.54305593E-10
  -2.22500004E-02  -4.53552251E-10
  -2.21999995E-02  -4.52921728E-10
  -2.21500006E-02  -4.52495263E-10
  -2.20999997E-02  -4.52382715E-10
  -2.20500007E-02  -4.52690857E-10
  -2.19999999E-02  -4.53487359E-10
  -2.19500009E-02  -4.54783211E-10
  -2.19000001E-02  -4.56546578E-10
  -2.18499992E-02  -4.58739852E-10
  -2.18000002E-02  -4.61355842E-10
  -2.17499994E-02  -4.64433686E-10
  -2.17000004E-02  -4.68052153E-10
  -2.16499995E-02  -4.72309636E-10
  -2.16000006E-02  -4.77300588E-10
  -2.15499997E-02  -4.83092788E-10
  -2.15000007E-02  -4.89706831E-10
  -2.14499999E-02  -4.97109187E-10
  -2.14000009E-02  -5.05228415E-10
  -2.13500001E-02  -5.13992959E-10
  -2.12999992E-02  -5.23371457E-10
  -2.12500002E-02  -5.33391331E-10
  -2.11999994E-02  -5.44123746E-10
  -2.11500004E-02  -5.55648250E-10
  -2.10999995E-02  -5.68018910E-10
  -2.10500006E-02  -5.81247994E-10
  -2.09999997E-02  -5.95305805E-10
  -2.09500007E-02  -6.10131945E-10
  -2.08999999E-02  -6.25653751E-10
  -2.08500009E-02  -6.41811604E-10
  -2.08000001E-02  -6.58586630E-10
  -2.07499992E-02  -6.76013467E-10
  -2.07000002E-02  -6.94165836E-10
  -2.06499994E-02  -7.13119008E-10
  -2.06000004E-02  -7.32910010E-10
  -2.05499995E-02  -7.53520968E-10
  -2.05000006E-02  -7.74891096E-10
  -2.04499997E-02  -7.96946731E-10
  -2.04000007E-02  -8.19628421E-10
  -2.03499999E-02  -8.42907744E-10
  -2.03000009E-02  -8.66792416E-10
  -2.02500001E-02  -8.91324514E-10
  -2.01999992E-02  -9.16566656E-10
  -2.01500002E-02  -9.42573908E-10
  -2.00999994E-02  -9.69361924E-10
  -2.00500004E-02  -9.96891347E-10
  -1.99999996E-02  -1.02508246E-09
  -1.99500006E-02  -1.05385423E-09
  -1.98999997E-02  -1.08316334E-09
  -1.98500007E-02  -1.11302056E-09
  -1.97999999E-02  -1.14347865E-09
  -1.97500009E-02  -1.17460641E-09
  -1.97000001E-02  -1.20646371E-09
  -1.96499992E-02  -1.23908084E-09
  -1.96000002E-02  -1.27244382E-09
  -1.95499994E-02  -1.30648903E-09
  -1.95000004E-02  -1.34111922E-09
  -1.94499996E-02  -1.37623946E-09
  -1.94000006E-02  -1.41180234E-09
  -1.93499997E-02  -1.44782886E-09
  -1.93000007E-02  -1.48439405E-09
  -1.92499999E-02  -1.52158441E-09
  -1.92000009E-02  -1.55945534E-09
  -1.91500001E-02  -1.59800917E-09
  -1.90999992E-02  -1.63719716E-09
  -1.90500002E-02  -1.67693659E-09
  -1.89999994E-02  -1.71713321E-09
  -1.89500004E-02  -1.75770964E-09
  -1.88999996E-02  -1.79863602E-09
  -1.88500006E-02  -1.83994575E-09
  -1.87999997E-02  -1.88172145E-09
  -1.87500007E-02  -1.92404981E-09
  -1.86999999E-02  -1.96696903E-09
  -1.86500009E-02  -2.01044048E-09
  -1.86000001E-02  -2.05436246E-09
  -1.85499992E-02  -2.09860929E-09
  -1.85000002E-02  -2.14307305E-09
  -1.84499994E-02  -2.18768759E-09
  -1.84000004E-02  -2.23243557E-09
  -1.83499996E-02  -2.27734098E-09
  -1.83000006E-02  -2.32244757E-09
  -1.82499997E-02  -2.36778286E-09
  -1.82000007E-02  -2.41331954E-09
  -1.81499999E-02  -2.45895415E-09
  -1.81000009E-02  -2.50452525E-09
  -1.80500001E-02  -2.54986743E-09
  -1.79999992E-02  -2.59486965E-09
  -1.79500002E-02  -2.63950106E-09
  -1.78999994E-02  -2.68379252E-09
  -1.78500004E-02  -2.72779599E-09
  -1.77999996E-02  -2.77154077E-09
  -1.77500006E-02  -2.81500689E-09
  -1.76999997E-02  -2.85811419E-09
  -1.76500008E-02  -2.90072721E-09
  -1.75999999E-02  -2.94268432E-09
  -1.75500009E-02  -2.98384739E-09
  -1.75000001E-02  -3.02415537E-09
  -1.74499992E-02  -3.06364534E-09
  -1.74000002E-02  -3.10241877E-09
  -1.73499994E-02  -3.14057580E-09
  -1.73000004E-02  -3.17815130E-09
  -1.72499996E-02  -3.21509042E-09
  -1.72000006E-02  -3.25126881E-09
  -1.71499997E-02  -3.28653638E-09
  -1.71000008E-02  -3.32076433E-09
  -1.70499999E-02  -3.35388495E-09
  -1.70000009E-02  -3.38591333E-09
  -1.69500001E-02  -3.41694451E-09
  -1.68999992E-02  -3.44711393E-09
  -1.68500002E-02  -3.47653328E-09
  -1.67999994E-02  -3.50522855E-09
  -1.67500004E-02  -3.53312424E-09
  -1.66999996E-02  -3.56008378E-09
  -1.66500006E-02  -3.58598062E-09
  -1.65999997E-02  -3.61076236E-09
  -1.65500008E-02  -3.63446762E-09
  -1.64999999E-02  -3.65720854E-09
  -1.64500009E-02  -3.67912678E-09
  -1.64000001E-02  -3.70034692E-09
  -1.63499992E-02  -3.72093290E-09
  -1.63000003E-02  -3.74086406E-09
  -1.62499994E-02  -3.76004605E-09
  -1.62000004E-02  -3.77836029E-09
  -1.61499996E-02  -3.79573706E-09
  -1.61000006E-02  -3.81221410E-09
  -1.60499997E-02  -3.82793308E-09
  -1.60000008E-02  -3.84308674E-09
  -1.59499999E-02  -3.85783849E-09
  -1.59000009E-02  -3.87226695E-09
  -1.58500001E-02  -3.88635701E-09
  -1.57999992E-02  -3.90002919E-09
  -1.57500003E-02  -3.91318222E-09
  -1.56999994E-02  -3.92575039E-09
  -1.56500004E-02  -3.93774791E-09
  -1.55999996E-02  -3.94928934E-09
  -1.55499997E-02  -3.96056477E-09
  -1.54999997E-02  -3.97176647E-09
  -1.54499998E-02  -3.98300593E-09
  -1.53999999E-02  -3.99426936E-09
  -1.53500000E-02  -4.00543021E-09
  -1.53000001E-02  -4.01632638E-09
  -1.52500002E-02  -4.02684108E-09
  -1.52000003E-02  -4.03695744E-09
  -1.51500003E-02  -4.04675538E-09
  -1.51000004E-02  -4.05638234E-09
  -1.50499996E-02  -4.06599643E-09
  -1.49999997E-02  -4.07570644E-09
  -1.49499997E-02  -4.08552037E-09
  -1.48999998E-02  -4.09532896E-09
  -1.48499999E-02  -4.10494705E-09
  -1.48000000E-02  -4.11419654E-09
  -1.47500001E-02  -4.12299306E-09
  -1.47000002E-02  -4.13137835E-09
  -1.46500003E-02  -4.13948475E-09
  -1.46000003E-02  -4.14745127E-09
  -1.45500004E-02  -4.15534407E-09
  -1.44999996E-02  -4.16312051E-09
  -1.44499997E-02  -4.17063806E-09
  -1.43999998E-02  -4.17769641E-09
  -1.43499998E-02  -4.18409840E-09
  -1.42999999E-02  -4.18970947E-09
  -1.42500000E-02  -4.19450563E-09
  -1.42000001E-02  -4.19857260E-09
  -1.41500002E-02  -4.20204183E-09
  -1.41000003E-02  -4.20499813E-09
  -1.40500003E-02  -4.20740021E-09
  -1.40000004E-02  -4.20907176E-09
  -1.39499996E-02  -4.20977075E-09
  -1.38999997E-02  -4.20928314E-09
  -1.38499998E-02  -4.20750101E-09
  -1.37999998E-02  -4.20443813E-09
  -1.37499999E-02  -4.20020774E-09
  -1.37000000E-02  -4.19496793E-09
  -1.36500001E-02  -4.18884794E-09
  -1.36000002E-02  -4.18187573E-09
  -1.35500003E-02  -4.17393808E-09
  -1.35000004E-02  -4.16480628E-09
  -1.34500004E-02  -4.15423429E-09
  -1.33999996E-02  -4.14206935E-09
  -1.33499997E-02  -4.12832524E-09
  -1.32999998E-02  -4.11316536E-09
  -1.32499998E-02  -4.09681666E-09
  -1.31999999E-02  -4.07946654E-09
  -1.31500000E-02  -4.06119538E-09
  -1.31000001E-02  -4.04195877E-09
  -1.30500002E-02  -4.02161060E-09
  -1.30000003E-02  -3.99996569E-09
  -1.29500004E-02  -3.97688105E-09
  -1.29000004E-02  -3.95233668E-09
  -1.28499996E-02  -3.92646227E-09
  -1.27999997E-02  -3.89949140E-09
  -1.27499998E-02  -3.87165144E-09
  -1.26999998E-02  -3.84305832E-09
  -1.26499999E-02  -3.81367382E-09
  -1.26000000E-02  -3.78335452E-09
  -1.25500001E-02  -3.75195297E-09
  -1.25000002E-02  -3.71941322E-09
  -1.24500003E-02  -3.68581343E-09
  -1.24000004E-02  -3.65136033E-09
  -1.23500004E-02  -3.61633035E-09
  -1.22999996E-02  -3.58097862E-09
  -1.22499997E-02  -3.54543594E-09
  -1.21999998E-02  -3.50963303E-09
  -1.21499998E-02  -3.47330498E-09
  -1.20999999E-02  -3.43609718E-09
  -1.20500000E-02  -3.39772144E-09
  -1.20000001E-02  -3.35808470E-09
  -1.19500002E-02  -3.31732464E-09
  -1.19000003E-02  -3.27574656E-09
  -1.18500004E-02  -3.23370730E-09
  -1.18000004E-02  -3.19150217E-09
  -1.17499996E-02  -3.14929349E-09
  -1.16999997E-02  -3.10709081E-09
  -1.16499998E-02  -3.06478465E-09
  -1.15999999E-02  -3.02222736E-09
  -1.15499999E-02  -2.97933389E-09
  -1.15000000E-02  -2.93614311E-09
  -1.14500001E-02  -2.89279356E-09
  -1.14000002E-02  -2.84941803E-09
  -1.13500003E-02  -2.80601609E-09
  -1.13000004E-02  -2.76238277E-09
  -1.12500004E-02  -2.71814748E-09
  -1.11999996E-02  -2.67289257E-09
  -1.11499997E-02  -2.62630206E-09
  -1.10999998E-02  -2.57827848E-09
  -1.10499999E-02  -2.52899213E-09
  -1.09999999E-02  -2.47885001E-09
  -1.09500000E-02  -2.42838483E-09
  -1.09000001E-02  -2.37808573E-09
  -1.08500002E-02  -2.32823449E-09
  -1.08000003E-02  -2.27881980E-09
  -1.07500004E-02  -2.22957630E-09
  -1.07000005E-02  -2.18013163E-09
  -1.06499996E-02  -2.13017493E-09
  -1.05999997E-02  -2.07956474E-09
  -1.05499998E-02  -2.02833994E-09
  -1.04999999E-02  -1.97664618E-09
  -1.04499999E-02  -1.92462757E-09
  -1.04000000E-02  -1.87232985E-09
  -1.03500001E-02  -1.81965221E-09
  -1.03000002E-02  -1.76636517E-09
  -1.02500003E-02  -1.71220393E-09
  -1.02000004E-02  -1.65700298E-09
  -1.01500005E-02  -1.60080715E-09
  -1.00999996E-02  -1.54388735E-09
  -1.00499997E-02  -1.48664203E-09
  -9.99999978E-03  -1.42942758E-09
  -9.94999986E-03  -1.37240752E-09
  -9.89999995E-03  -1.31549360E-09
  -9.85000003E-03  -1.25839905E-09
  -9.80000012E-03  -1.20077071E-09
  -9.75000020E-03  -1.14234444E-09
  -9.70000029E-03  -1.08306486E-09
  -9.65000037E-03  -1.02312925E-09
  -9.60000046E-03  -9.62926960E-10
  -9.54999961E-03  -9.02886321E-10
  -9.49999969E-03  -8.43282666E-10
  -9.44999978E-03  -7.84101561E-10
  -9.39999986E-03  -7.25024818E-10
  -9.34999995E-03  -6.65554167E-10
  -9.30000003E-03  -6.05206218E-10
  -9.25000012E-03  -5.43686596E-10
  -9.20000020E-03  -4.80964879E-10
  -9.15000029E-03  -4.17236745E-10
  -9.10000037E-03  -3.52796653E-10
  -9.05000046E-03  -2.87880692E-10
  -8.99999961E-03  -2.22533880E-10
  -8.94999970E-03  -1.56559835E-10
  -8.89999978E-03  -8.95785252E-11
  -8.84999987E-03  -2.11772180E-11
  -8.79999995E-03   4.89132831E-11
  -8.75000004E-03   1.20708735E-10
  -8.70000012E-03   1.93990116E-10
  -8.65000021E-03   2.68442019E-10
  -8.60000029E-03   3.43839512E-10
  -8.55000038E-03   4.20191715E-10
  -8.50000046E-03   4.97778374E-10
  -8.44999962E-03   5.77073445E-10
  -8.39999970E-03   6.58590349E-10
  -8.34999979E-03   7.42715445E-10
  -8.29999987E-03   8.29591507E-10
  -8.24999996E-03   9.19106735E-10
  -8.20000004E-03   1.01100628E-09
  -8.15000013E-03   1.10508425E-09
  -8.10000021E-03   1.20137345E-09
  -8.05000030E-03   1.30023514E-09
  -8.00000038E-03   1.40229517E-09
  -7.95000046E-03   1.50825530E-09
  -7.89999962E-03   1.61866798E-09
  -7.84999970E-03   1.73377723E-09
  -7.79999979E-03   1.85348781E-09
  -7.74999987E-03   1.97746819E-09
  -7.69999996E-03   2.10534057E-09
  -7.65000004E-03   2.23688357E-09
  -7.60000013E-03   2.37217335E-09
  -7.55000021E-03   2.51159959E-09
  -7.49999983E-03   2.65573918E-09
  -7.44999992E-03   2.80514523E-09
  -7.40000000E-03   2.96014369E-09
  -7.35000009E-03   3.12073922E-09
  -7.30000017E-03   3.28667626E-09
  -7.24999979E-03   3.45762063E-09
  -7.19999988E-03   3.63337183E-09
  -7.14999996E-03   3.81400111E-09
  -7.10000005E-03   3.99986133E-09
  -7.05000013E-03   4.19147694E-09
  -7.00000022E-03   4.38935777E-09
  -6.94999984E-03   4.59381999E-09
  -6.89999992E-03   4.80487650E-09
  -6.85000001E-03   5.02225594E-09
  -6.80000009E-03   5.24555555E-09
  -6.75000018E-03   5.47445600E-09
  -6.69999979E-03   5.70890624E-09
  -6.64999988E-03   5.94916783E-09
  -6.59999996E-03   6.19570262E-09
  -6.55000005E-03   6.44895159E-09
  -6.50000013E-03   6.70912259E-09
  -6.45000022E-03   6.97608238E-09
  -6.39999984E-03   7.24938776E-09
  -6.34999992E-03   7.52844453E-09
  -6.30000001E-03   7.81272469E-09
  -6.25000009E-03   8.10195910E-09
  -6.20000018E-03   8.39623038E-09
  -6.14999980E-03   8.69591954E-09
  -6.09999988E-03   9.00149821E-09
  -6.04999997E-03   9.31326749E-09
  -6.00000005E-03   9.63116165E-09
  -5.95000014E-03   9.95472593E-09
  -5.90000022E-03   1.02832596E-08
  -5.84999984E-03   1.06160707E-08
  -5.79999993E-03   1.09526983E-08
  -5.75000001E-03   1.12930412E-08
  -5.70000010E-03   1.16373187E-08
  -5.65000018E-03   1.19859145E-08
  -5.59999980E-03   1.23391439E-08
  -5.54999989E-03   1.26970408E-08
  -5.49999997E-03   1.30592550E-08
  -5.45000006E-03   1.34251170E-08
  -5.40000014E-03   1.37938354E-08
  -5.35000023E-03   1.41647440E-08
  -5.29999984E-03   1.45374797E-08
  -5.24999993E-03   1.49120005E-08
  -5.20000001E-03   1.52884319E-08
  -5.15000010E-03   1.56668456E-08
  -5.10000018E-03   1.60470570E-08
  -5.04999980E-03   1.64285545E-08
  -4.99999989E-03   1.68105547E-08
  -4.94999997E-03   1.71921926E-08
  -4.90000006E-03   1.75727166E-08
  -4.85000014E-03   1.79516810E-08
  -4.80000023E-03   1.83289899E-08
  -4.74999985E-03   1.87047995E-08
  -4.69999993E-03   1.90792946E-08
  -4.65000002E-03   1.94524112E-08
  -4.60000010E-03   1.98237142E-08
  -4.55000019E-03   2.01924184E-08
  -4.49999981E-03   2.05575965E-08
  -4.44999989E-03   2.09184243E-08
  -4.39999998E-03   2.12743725E-08
  -4.35000006E-03   2.16252669E-08
  -4.30000015E-03   2.19712071E-08
  -4.25000023E-03   2.23123635E-08
  -4.19999985E-03   2.26487522E-08
  -4.14999994E-03   2.29800339E-08
  -4.10000002E-03   2.33054482E-08
  -4.05000011E-03   2.36239508E-08
  -4.00000019E-03   2.39344562E-08
  -3.94999981E-03   2.42361171E-08
  -3.89999989E-03   2.45284539E-08
  -3.84999998E-03   2.48113441E-08
  -3.80000006E-03   2.50848586E-08
  -3.74999992E-03   2.53490420E-08
  -3.70000000E-03   2.56037520E-08
  -3.65000009E-03   2.58485837E-08
  -3.59999994E-03   2.60829367E-08
  -3.55000002E-03   2.63061590E-08
  -3.50000011E-03   2.65177444E-08
  -3.44999996E-03   2.67174638E-08
  -3.40000005E-03   2.69053846E-08
  -3.34999990E-03   2.70816916E-08
  -3.29999998E-03   2.72464646E-08
  -3.25000007E-03   2.73994942E-08
  -3.19999992E-03   2.75402119E-08
  -3.15000000E-03   2.76677756E-08
  -3.10000009E-03   2.77812564E-08
  -3.04999994E-03   2.78798762E-08
  -3.00000003E-03   2.79631909E-08
  -2.95000011E-03   2.80311259E-08
  -2.89999996E-03   2.80838606E-08
  -2.85000005E-03   2.81216330E-08
  -2.79999990E-03   2.81445232E-08
  -2.74999999E-03   2.81523178E-08
  -2.70000007E-03   2.81445125E-08
  -2.64999992E-03   2.81204251E-08
  -2.60000001E-03   2.80794090E-08
  -2.55000009E-03   2.80210646E-08
  -2.49999994E-03   2.79452852E-08
  -2.45000003E-03   2.78521988E-08
  -2.40000011E-03   2.77419812E-08
  -2.34999997E-03   2.76146483E-08
  -2.30000005E-03   2.74699339E-08
  -2.24999990E-03   2.73073049E-08
  -2.19999999E-03   2.71260774E-08
  -2.15000007E-03   2.69255640E-08
  -2.09999993E-03   2.67052780E-08
  -2.05000001E-03   2.64650559E-08
  -2.00000009E-03   2.62050452E-08
  -1.94999995E-03   2.59255213E-08
  -1.90000003E-03   2.56266439E-08
  -1.85000000E-03   2.53082835E-08
  -1.79999997E-03   2.49699728E-08
  -1.75000005E-03   2.46109870E-08
  -1.70000002E-03   2.42305376E-08
  -1.64999999E-03   2.38279441E-08
  -1.59999996E-03   2.34027606E-08
  -1.55000004E-03   2.29547936E-08
  -1.50000001E-03   2.24840484E-08
  -1.44999998E-03   2.19905427E-08
  -1.39999995E-03   2.14741362E-08
  -1.35000004E-03   2.09344364E-08
  -1.30000000E-03   2.03708144E-08
  -1.24999997E-03   1.97825560E-08
  -1.20000006E-03   1.91690788E-08
  -1.15000003E-03   1.85300557E-08
  -1.09999999E-03   1.78654478E-08
  -1.04999996E-03   1.71753367E-08
  -1.00000005E-03   1.64597651E-08
  -9.50000016E-04   1.57185802E-08
  -8.99999985E-04   1.49513415E-08
  -8.50000011E-04   1.41573153E-08
  -7.99999980E-04   1.33355815E-08
  -7.50000007E-04   1.24852360E-08
  -6.99999975E-04   1.16055858E-08
  -6.50000002E-04   1.06962723E-08
  -6.00000028E-04   9.75720837E-09
  -5.49999997E-04   8.78836826E-09
  -5.00000024E-04   7.78954412E-09
  -4.49999992E-04   6.76022482E-09
  -3.99999990E-04   5.69959058E-09
  -3.49999988E-04   4.60665417E-09
  -3.00000014E-04   3.48044282E-09
  -2.50000012E-04   2.32017094E-09
  -1.99999995E-04   1.12537080E-09
  -1.50000007E-04  -1.04095586E-10
  -9.99999975E-05  -1.36815115E-09
  -4.99999987E-05  -2.66676858E-09
   0.00000000      -4.00020062E-09
   4.99999987E-05  -5.36910916E-09
   9.99999975E-05  -6.77451872E-09
   1.50000007E-04  -8.21756174E-09
   1.99999995E-04  -9.69923519E-09
   2.50000012E-04  -1.12202416E-08
   3.00000014E-04  -1.27809923E-08
   3.49999988E-04  -1.43817056E-08
   3.99999990E-04  -1.60226019E-08
   4.49999992E-04  -1.77040391E-08
   5.00000024E-04  -1.94267145E-08
   5.49999997E-04  -2.11916351E-08
   6.00000028E-04  -2.30000268E-08
   6.50000002E-04  -2.48530423E-08
   6.99999975E-04  -2.67514828E-08
   7.50000007E-04  -2.86956752E-08
   7.99999980E-04  -3.06856514E-08
   8.50000011E-04  -3.27214522E-08
   8.99999985E-04  -3.48033282E-08
   9.50000016E-04  -3.69319331E-08
   1.00000005E-03  -3.91082935E-08
   1.04999996E-03  -4.13337382E-08
   1.09999999E-03  -4.36095746E-08
   1.15000003E-03  -4.59368970E-08
   1.20000006E-03  -4.83163269E-08
   1.24999997E-03  -5.07480209E-08
   1.30000000E-03  -5.32318651E-08
   1.35000004E-03  -5.57678916E-08
   1.39999995E-03  -5.83565516E-08
   1.44999998E-03  -6.09988575E-08
   1.50000001E-03  -6.36962056E-08
   1.55000004E-03  -6.64500348E-08
   1.59999996E-03  -6.92615458E-08
   1.64999999E-03  -7.21314990E-08
   1.70000002E-03  -7.50601785E-08
   1.75000005E-03  -7.80475204E-08
   1.79999997E-03  -8.10934182E-08
   1.85000000E-03  -8.41980565E-08
   1.90000003E-03  -8.73621886E-08
   1.94999995E-03  -9.05871289E-08
   2.00000009E-03  -9.38745544E-08
   2.05000001E-03  -9.72259286E-08
   2.09999993E-03  -1.00642161E-07
   2.15000007E-03  -1.04123551E-07
   2.19999999E-03  -1.07669919E-07
   2.24999990E-03  -1.11280997E-07
   2.30000005E-03  -1.14956727E-07
   2.34999997E-03  -1.18697557E-07
   2.40000011E-03  -1.22504446E-07
   2.45000003E-03  -1.26378808E-07
   2.49999994E-03  -1.30322178E-07
   2.55000009E-03  -1.34335650E-07
   2.60000001E-03  -1.38419622E-07
   2.64999992E-03  -1.42573967E-07
   2.70000007E-03  -1.46798229E-07
   2.74999999E-03  -1.51092266E-07
   2.79999990E-03  -1.55456704E-07