  -3.99999991E-02   0.00000000    
  -3.99499983E-02   2.21919596E-12
  -3.99000011E-02   4.54609614E-12
  -3.98500003E-02   5.22760437E-12
  -3.97999994E-02   4.90384469E-12
  -3.97499986E-02   5.65461393E-12
  -3.97000015E-02   8.26471357E-12
  -3.96500006E-02   1.11053233E-11
  -3.95999998E-02   1.20271805E-11
  -3.95499989E-02   1.09446029E-11
  -3.95000018E-02   9.93583167E-12
  -3.94500010E-02   1.07332884E-11
  -3.94000001E-02   1.26656454E-11
  -3.93499993E-02   1.35330080E-11
  -3.92999984E-02   1.22915055E-11
  -3.92500013E-02   1.02395930E-11
  -3.92000005E-02   9.29097771E-12
  -3.91499996E-02   9.51566603E-12
  -3.90999988E-02   8.99893701E-12
  -3.90500017E-02   6.17831437E-12
  -3.90000008E-02   1.76443333E-12
  -3.89500000E-02  -2.11716885E-12
  -3.88999991E-02  -4.50430535E-12
  -3.88499983E-02  -6.74933373E-12
  -3.88000011E-02  -1.08739250E-11
  -3.87500003E-02  -1.71699772E-11
  -3.86999995E-02  -2.39511692E-11
  -3.86499986E-02  -2.96784645E-11
  -3.86000015E-02  -3.48041769E-11
  -3.85500006E-02  -4.11096400E-11
  -3.84999998E-02  -4.94374056E-11
  -3.84499989E-02  -5.86574470E-11
  -3.84000018E-02  -6.71213848E-11
  -3.83500010E-02  -7.47745268E-11
  -3.83000001E-02  -8.33162775E-11
  -3.82499993E-02  -9.42214154E-11
  -3.81999984E-02  -1.07033306E-10
  -3.81500013E-02  -1.19954768E-10
  -3.81000005E-02  -1.31948966E-10
  -3.80499996E-02  -1.43798931E-10
  -3.79999988E-02  -1.56944568E-10
  -3.79500017E-02  -1.71642159E-10
  -3.79000008E-02  -1.86720320E-10
  -3.78500000E-02  -2.01147446E-10
  -3.77999991E-02  -2.15397325E-10
  -3.77499983E-02  -2.30915898E-10
  -3.77000012E-02  -2.48368076E-10
  -3.76500003E-02  -2.66814487E-10
  -3.75999995E-02  -2.84784363E-10
  -3.75499986E-02  -3.01911690E-10
  -3.75000015E-02  -3.19198529E-10
  -3.74500006E-02  -3.37700978E-10
  -3.73999998E-02  -3.57301355E-10
  -3.73499990E-02  -3.76996406E-10
  -3.73000018E-02  -3.96215755E-10
  -3.72500010E-02  -4.15488949E-10
  -3.72000001E-02  -4.35692149E-10
  -3.71499993E-02  -4.56883142E-10
  -3.70999984E-02  -4.78176720E-10
  -3.70500013E-02  -4.98770025E-10
  -3.70000005E-02  -5.18839527E-10
  -3.69499996E-02  -5.39254974E-10
  -3.68999988E-02  -5.60521796E-10
  -3.68500017E-02  -5.82227655E-10
  -3.68000008E-02  -6.03567585E-10
  -3.67500000E-02  -6.24218732E-10
  -3.66999991E-02  -6.44531262E-10
  -3.66499983E-02  -6.64931554E-10
  -3.66000012E-02  -6.85365875E-10
  -3.65500003E-02  -7.05443648E-10
  -3.64999995E-02  -7.25004667E-10
  -3.64499986E-02  -7.44353690E-10
  -3.64000015E-02  -7.63890728E-10
  -3.63500006E-02  -7.83619614E-10
  -3.62999998E-02  -8.03111744E-10
  -3.62499990E-02  -8.21903101E-10
  -3.62000018E-02  -8.39843417E-10
  -3.61500010E-02  -8.57070082E-10
  -3.61000001E-02  -8.73771167E-10
  -3.60499993E-02  -8.90053975E-10
  -3.59999985E-02  -9.05984843E-10
  -3.59500013E-02  -9.21623999E-10
  -3.59000005E-02  -9.36971056E-10
  -3.58499996E-02  -9.51937196E-10
  -3.57999988E-02  -9.66425828E-10
  -3.57500017E-02  -9.80409087E-10
  -3.57000008E-02  -9.93869653E-10
  -3.56500000E-02  -1.00670072E-09
  -3.55999991E-02  -1.01876541E-09
  -3.55499983E-02  -1.03010556E-09
  -3.55000012E-02  -1.04100706E-09
  -3.54500003E-02  -1.05173936E-09
  -3.53999995E-02  -1.06222642E-09
  -3.53499986E-02  -1.07209397E-09
  -3.53000015E-02  -1.08112685E-09
  -3.52500007E-02  -1.08961529E-09
  -3.51999998E-02  -1.09812071E-09
  -3.51499990E-02  -1.10688336E-09
  -3.51000018E-02  -1.11558107E-09
  -3.50500010E-02  -1.12376930E-09
  -3.50000001E-02  -1.13148046E-09
  -3.49499993E-02  -1.13921717E-09
  -3.48999985E-02  -1.14730903E-09
  -3.48500013E-02  -1.15545040E-09
  -3.48000005E-02  -1.16306531E-09
  -3.47499996E-02  -1.17012799E-09
  -3.46999988E-02  -1.17740584E-09
  -3.46500017E-02  -1.18574739E-09
  -3.46000008E-02  -1.19520038E-09
  -3.45500000E-02  -1.20503052E-09
  -3.44999991E-02  -1.21465382E-09
  -3.44499983E-02  -1.22437027E-09
  -3.44000012E-02  -1.23500787E-09
  -3.43500003E-02  -1.24692423E-09
  -3.42999995E-02  -1.25963329E-09
  -3.42499986E-02  -1.27255673E-09
  -3.42000015E-02  -1.28597943E-09
  -3.41500007E-02  -1.30097322E-09
  -3.40999998E-02  -1.31829825E-09
  -3.40499990E-02  -1.33759304E-09
  -3.40000018E-02  -1.35786715E-09
  -3.39500010E-02  -1.37874978E-09
  -3.39000002E-02  -1.40098910E-09
  -3.38499993E-02  -1.42560574E-09
  -3.37999985E-02  -1.45274115E-09
  -3.37500013E-02  -1.48161661E-09
  -3.37000005E-02  -1.51164770E-09
  -3.36499996E-02  -1.54333557E-09
  -3.35999988E-02  -1.57779945E-09
  -3.35500017E-02  -1.61552871E-09
  -3.35000008E-02  -1.65589864E-09
  -3.34500000E-02  -1.69807279E-09
  -3.33999991E-02  -1.74221115E-09
  -3.33499983E-02  -1.78948178E-09
  -3.33000012E-02  -1.84083382E-09
  -3.32500003E-02  -1.89600469E-09
  -3.31999995E-02  -1.95394501E-09
  -3.31499986E-02  -2.01414041E-09
  -3.31000015E-02  -2.07722839E-09
  -3.30500007E-02  -2.14420925E-09
  -3.29999998E-02  -2.21527241E-09
  -3.29499990E-02  -2.28970887E-09
  -3.29000019E-02  -2.36701792E-09
  -3.28500010E-02  -2.44779841E-09
  -3.28000002E-02  -2.53329424E-09
  -3.27499993E-02  -2.62408473E-09
  -3.26999985E-02  -2.71951661E-09
  -3.26500013E-02  -2.81852475E-09
  -3.26000005E-02  -2.92087887E-09
  -3.25499997E-02  -3.02738679E-09
  -3.24999988E-02  -3.13889292E-09
  -3.24500017E-02  -3.25536353E-09
  -3.24000008E-02  -3.37614825E-09
  -3.23500000E-02  -3.50103102E-09
  -3.22999991E-02  -3.63072461E-09
  -3.22499983E-02  -3.76617360E-09
  -3.22000012E-02  -3.90751387E-09
  -3.21500003E-02  -4.05395673E-09
  -3.20999995E-02  -4.20474233E-09
  -3.20499986E-02  -4.36004877E-09
  -3.20000015E-02  -4.52078908E-09
  -3.19500007E-02  -4.68761074E-09
  -3.18999998E-02  -4.86032548E-09
  -3.18499990E-02  -5.03835951E-09
  -3.18000019E-02  -5.22160848E-09
  -3.17500010E-02  -5.41062439E-09
  -3.17000002E-02  -5.60596591E-09
  -3.16499993E-02  -5.80753312E-09
  -3.15999985E-02  -6.01476913E-09
  -3.15500014E-02  -6.22741680E-09
  -3.15000005E-02  -6.44595932E-09
  -3.14499997E-02  -6.67118893E-09
  -3.13999988E-02  -6.90345470E-09
  -3.13500017E-02  -7.14243509E-09
  -3.13000008E-02  -7.38760786E-09
  -3.12500000E-02  -7.63886732E-09
  -3.11999992E-02  -7.89656429E-09
  -3.11500002E-02  -8.16108514E-09
  -3.10999993E-02  -8.43252934E-09
  -3.10500003E-02  -8.71084982E-09
  -3.09999995E-02  -8.99623487E-09
  -3.09500005E-02  -9.28915966E-09
  -3.08999997E-02  -9.59006741E-09
  -3.08500007E-02  -9.89897853E-09
  -3.07999998E-02  -1.02155093E-08
  -3.07500008E-02  -1.05392157E-08
  -3.07000000E-02  -1.08699449E-08
  -3.06499992E-02  -1.12079190E-08
  -3.06000002E-02  -1.15536025E-08
  -3.05499993E-02  -1.19074794E-08
  -3.05000003E-02  -1.22698998E-08
  -3.04499995E-02  -1.26410837E-08
  -3.04000005E-02  -1.30211566E-08
  -3.03499997E-02  -1.34102232E-08
  -3.03000007E-02  -1.38083456E-08
  -3.02499998E-02  -1.42154537E-08
  -3.02000009E-02  -1.46313806E-08
  -3.01500000E-02  -1.50560702E-08
  -3.00999992E-02  -1.54898085E-08
  -3.00500002E-02  -1.59332405E-08
  -2.99999993E-02  -1.63870055E-08
  -2.99500003E-02  -1.68513132E-08
  -2.98999995E-02  -1.73258670E-08
  -2.98500005E-02  -1.78103239E-08
  -2.97999997E-02  -1.83047657E-08
  -2.97500007E-02  -1.88096827E-08
  -2.96999998E-02  -1.93255616E-08
  -2.96500009E-02  -1.98525232E-08
  -2.96000000E-02  -2.03905675E-08
  -2.95499992E-02  -2.09399893E-08
  -2.95000002E-02  -2.15014779E-08
  -2.94499993E-02  -2.20755432E-08
  -2.94000003E-02  -2.26619790E-08
  -2.93499995E-02  -2.32600943E-08
  -2.93000005E-02  -2.38695339E-08
  -2.92499997E-02  -2.44908787E-08
  -2.92000007E-02  -2.51253223E-08
  -2.91499998E-02  -2.57737209E-08
  -2.91000009E-02  -2.64361208E-08
  -2.90500000E-02  -2.71121827E-08
  -2.89999992E-02  -2.78019598E-08
  -2.89500002E-02  -2.85060278E-08
  -2.88999993E-02  -2.92247133E-08
  -2.88500004E-02  -2.99575902E-08
  -2.87999995E-02  -3.07040082E-08
  -2.87500005E-02  -3.14641007E-08
  -2.86999997E-02  -3.22391962E-08
  -2.86500007E-02  -3.30308580E-08
  -2.85999998E-02  -3.38397257E-08
  -2.85500009E-02  -3.46652627E-08
  -2.85000000E-02  -3.55066874E-08
  -2.84499992E-02  -3.63640460E-08
  -2.84000002E-02  -3.72381130E-08
  -2.83499993E-02  -3.81293894E-08
  -2.83000004E-02  -3.90375945E-08
  -2.82499995E-02  -3.99623694E-08
  -2.82000005E-02  -4.09043075E-08
  -2.81499997E-02  -4.18649684E-08
  -2.81000007E-02  -4.28456026E-08
  -2.80499998E-02  -4.38461250E-08
  -2.80000009E-02  -4.48654660E-08
  -2.79500000E-02  -4.59029934E-08
  -2.78999992E-02  -4.69594461E-08
  -2.78500002E-02  -4.80362488E-08
  -2.77999993E-02  -4.91342114E-08
  -2.77500004E-02  -5.02531670E-08
  -2.76999995E-02  -5.13927922E-08
  -2.76500005E-02  -5.25536095E-08
  -2.75999997E-02  -5.37368017E-08
  -2.75500007E-02  -5.49428449E-08
  -2.74999999E-02  -5.61711175E-08
  -2.74500009E-02  -5.74207526E-08
  -2.74000000E-02  -5.86920059E-08
  -2.73499992E-02  -5.99865757E-08
  -2.73000002E-02  -6.13063165E-08
  -2.72499993E-02  -6.26519281E-08
  -2.72000004E-02  -6.40229487E-08
  -2.71499995E-02  -6.54189307E-08
  -2.71000005E-02  -6.68403217E-08
  -2.70499997E-02  -6.82879531E-08
  -2.70000007E-02  -6.97621445E-08
  -2.69499999E-02  -7.12624839E-08
  -2.69000009E-02  -7.27889073E-08
  -2.68500000E-02  -7.43426156E-08
  -2.67999992E-02  -7.59255343E-08
  -2.67500002E-02  -7.75390916E-08
  -2.66999993E-02  -7.91832946E-08
  -2.66500004E-02  -8.08572480E-08
  -2.65999995E-02  -8.25606463E-08
  -2.65500005E-02  -8.42942072E-08
  -2.64999997E-02  -8.60590319E-08
  -2.64500007E-02  -8.78558026E-08
  -2.63999999E-02  -8.96846899E-08
  -2.63500009E-02  -9.15462763E-08
  -2.63000000E-02  -9.34419759E-08
  -2.62499992E-02  -9.53732311E-08
  -2.62000002E-02  -9.73406742E-08
  -2.61499994E-02  -9.93439713E-08
  -2.61000004E-02  -1.01382540E-07
  -2.60499995E-02  -1.03456784E-07
  -2.60000005E-02  -1.05568120E-07
  -2.59499997E-02  -1.07718158E-07
  -2.59000007E-02  -1.09907745E-07
  -2.58499999E-02  -1.12137101E-07
  -2.58000009E-02  -1.14406589E-07
  -2.57500000E-02  -1.16717146E-07
  -2.56999992E-02  -1.19069711E-07
  -2.56500002E-02  -1.21464637E-07
  -2.55999994E-02  -1.23901970E-07
  -2.55500004E-02  -1.26382318E-07
  -2.54999995E-02  -1.28907203E-07
  -2.54500005E-02  -1.31478444E-07
  -2.53999997E-02  -1.34097519E-07
  -2.53500007E-02  -1.36764896E-07
  -2.52999999E-02  -1.39480662E-07
  -2.52500009E-02  -1.42244957E-07
  -2.52000000E-02  -1.45058252E-07
  -2.51499992E-02  -1.47921384E-07
  -2.51000002E-02  -1.50835334E-07
  -2.50499994E-02  -1.53801309E-07
  -2.50000004E-02  -1.56820704E-07
  -2.49499995E-02  -1.59895137E-07
  -2.49000005E-02  -1.63025916E-07
  -2.48499997E-02  -1.66214150E-07
  -2.48000007E-02  -1.69460336E-07
  -2.47499999E-02  -1.72764743E-07
  -2.47000009E-02  -1.76127585E-07
  -2.46500000E-02  -1.79549673E-07
  -2.45999992E-02  -1.83032526E-07
  -2.45500002E-02  -1.86578063E-07
  -2.44999994E-02  -1.90187961E-07
  -2.44500004E-02  -1.93863329E-07
  -2.43999995E-02  -1.97604962E-07
  -2.43500005E-02  -2.01413670E-07
  -2.42999997E-02  -2.05290476E-07
  -2.42500007E-02  -2.09236617E-07
  -2.41999999E-02  -2.13252861E-07
  -2.41500009E-02  -2.17340087E-07
  -2.41000000E-02  -2.21499732E-07
  -2.40499992E-02  -2.25733899E-07
  -2.40000002E-02  -2.30044819E-07
  -2.39499994E-02  -2.34433728E-07
  -2.39000004E-02  -2.38901009E-07
  -2.38499995E-02  -2.43446948E-07
  -2.38000005E-02  -2.48072610E-07
  -2.37499997E-02  -2.52779984E-07
  -2.37000007E-02  -2.57571173E-07
  -2.36499999E-02  -2.62447742E-07
  -2.36000009E-02  -2.67410911E-07
  -2.35500000E-02  -2.72462188E-07
  -2.34999992E-02  -2.77603419E-07
  -2.34500002E-02  -2.82836481E-07
  -2.33999994E-02  -2.88162113E-07
  -2.33500004E-02  -2.93580541E-07
  -2.32999995E-02  -2.99092761E-07
  -2.32500006E-02  -3.04700734E-07
  -2.31999997E-02  -3.10407188E-07
  -2.31500007E-02  -3.16215306E-07
  -2.30999999E-02  -3.22126795E-07
  -2.30500009E-02  -3.28142761E-07
  -2.30000000E-02  -3.34264342E-07
  -2.29499992E-02  -3.40493216E-07
  -2.29000002E-02  -3.46831087E-07
  -2.28499994E-02  -3.53279034E-07
  -2.28000004E-02  -3.59837941E-07
  -2.27499995E-02  -3.66509624E-07
  -2.27000006E-02  -3.73296842E-07
  -2.26499997E-02  -3.80202778E-07
  -2.26000007E-02  -3.87230102E-07
  -2.25499999E-02  -3.94379867E-07
  -2.25000009E-02  -4.01652784E-07
  -2.24500000E-02  -4.09050415E-07
  -2.23999992E-02  -4.16575318E-07
  -2.23500002E-02  -4.24229881E-07
  -2.22999994E-02  -4.32015980E-07
  -2.22500004E-02  -4.39935548E-07
  -2.21999995E-02  -4.47990828E-07
  -2.21500006E-02  -4.56184694E-07
  -2.20999997E-02  -4.64519928E-07
  -2.20500007E-02  -4.72997897E-07
  -2.19999999E-02  -4.81619281E-07
  -2.19500009E-02  -4.90385503E-07
  -2.19000001E-02  -4.99299119E-07
  -2.18499992E-02  -5.08363655E-07
  -2.18000002E-02  -5.17581896E-07
  -2.17499994E-02  -5.26956228E-07
  -2.17000004E-02  -5.36488812E-07
  -2.16499995E-02  -5.46182150E-07
  -2.16000006E-02  -5.56038401E-07
  -2.15499997E-02  -5.66059612E-07
  -2.15000007E-02  -5.76246748E-07
  -2.14499999E-02  -5.86601743E-07
  -2.14000009E-02  -5.97127041E-07
  -2.13500001E-02  -6.07825939E-07
  -2.12999992E-02  -6.18702472E-07
  -2.12500002E-02  -6.29759995E-07
  -2.11999994E-02  -6.41000497E-07
  -2.11500004E-02  -6.52425342E-07
  -2.10999995E-02  -6.64035952E-07
  -2.10500006E-02  -6.75834656E-07
  -2.09999997E-02  -6.87824127E-07
  -2.09500007E-02  -7.00006296E-07
  -2.08999999E-02  -7.12383553E-07
  -2.08500009E-02  -7.24959364E-07
  -2.08000001E-02  -7.37737992E-07
  -2.07499992E-02  -7.50722620E-07
  -2.07000002E-02  -7.63915409E-07
  -2.06499994E-02  -7.77317666E-07
  -2.06000004E-02  -7.90930414E-07
  -2.05499995E-02  -8.04756098E-07
  -2.05000006E-02  -8.18798355E-07
  -2.04499997E-02  -8.33059858E-07
  -2.04000007E-02  -8.47542992E-07
  -2.03499999E-02  -8.62250602E-07
  -2.03000009E-02  -8.77186324E-07
  -2.02500001E-02  -8.92353341E-07
  -2.01999992E-02  -9.07753019E-07
  -2.01500002E-02  -9.23386267E-07
  -2.00999994E-02  -9.39255415E-07
  -2.00500004E-02  -9.55363134E-07
  -1.99999996E-02  -9.71712893E-07
  -1.99500006E-02  -9.88308898E-07
  -1.98999997E-02  -1.00515388E-06
  -1.98500007E-02  -1.02225067E-06
  -1.97999999E-02  -1.03960201E-06
  -1.97500009E-02  -1.05720994E-06
  -1.97000001E-02  -1.07507469E-06
  -1.96499992E-02  -1.09319865E-06
  -1.96000002E-02  -1.11158363E-06
  -1.95499994E-02  -1.13023225E-06
  -1.95000004E-02  -1.14914815E-06
  -1.94499996E-02  -1.16833610E-06
  -1.94000006E-02  -1.18779985E-06
  -1.93499997E-02  -1.20754157E-06
  -1.93000007E-02  -1.22756205E-06
  -1.92499999E-02  -1.24786254E-06
  -1.92000009E-02  -1.26844532E-06
  -1.91500001E-02  -1.28931231E-06
  -1.90999992E-02  -1.31046568E-06
  -1.90500002E-02  -1.33190883E-06
  -1.89999994E-02  -1.35364542E-06
  -1.89500004E-02  -1.37567861E-06
  -1.88999996E-02  -1.39801193E-06
  -1.88500006E-02  -1.42064710E-06
  -1.87999997E-02  -1.44358592E-06
  -1.87500007E-02  -1.46682919E-06
  -1.86999999E-02  -1.49037692E-06
  -1.86500009E-02  -1.51423126E-06
  -1.86000001E-02  -1.53839585E-06
  -1.85499992E-02  -1.56287615E-06
  -1.85000002E-02  -1.58767568E-06
  -1.84499994E-02  -1.61279559E-06
  -1.84000004E-02  -1.63823620E-06
  -1.83499996E-02  -1.66399991E-06
  -1.83000006E-02  -1.69008979E-06
  -1.82499997E-02  -1.71650674E-06
  -1.82000007E-02  -1.74325078E-06
  -1.81499999E-02  -1.77032348E-06
  -1.81000009E-02  -1.79773008E-06
  -1.80500001E-02  -1.82547603E-06
  -1.79999992E-02  -1.85356350E-06
  -1.79500002E-02  -1.88199351E-06
  -1.78999994E-02  -1.91076447E-06
  -1.78500004E-02  -1.93987603E-06
  -1.77999996E-02  -1.96933092E-06
  -1.77500006E-02  -1.99913302E-06
  -1.76999997E-02  -2.02928436E-06
  -1.76500008E-02  -2.05978540E-06
  -1.75999999E-02  -2.09063955E-06
  -1.75500009E-02  -2.12185091E-06
  -1.75000001E-02  -2.15342379E-06
  -1.74499992E-02  -2.18535888E-06
  -1.74000002E-02  -2.21765276E-06
  -1.73499994E-02  -2.25030340E-06
  -1.73000004E-02  -2.28331305E-06
  -1.72499996E-02  -2.31668605E-06
  -1.72000006E-02  -2.35042580E-06
  -1.71499997E-02  -2.38453413E-06
  -1.71000008E-02  -2.41901080E-06
  -1.70499999E-02  -2.45385786E-06
  -1.70000009E-02  -2.48907827E-06
  -1.69500001E-02  -2.52467453E-06
  -1.68999992E-02  -2.56064368E-06
  -1.68500002E-02  -2.59698209E-06
  -1.67999994E-02  -2.63369111E-06
  -1.67500004E-02  -2.67077553E-06
  -1.66999996E-02  -2.70824057E-06
  -1.66500006E-02  -2.74608738E-06
  -1.65999997E-02  -2.78431366E-06
  -1.65500008E-02  -2.82291853E-06
  -1.64999999E-02  -2.86190334E-06
  -1.64500009E-02  -2.90126968E-06
  -1.64000001E-02  -2.94101551E-06
  -1.63499992E-02  -2.98113923E-06
  -1.63000003E-02  -3.02163971E-06
  -1.62499994E-02  -3.06252105E-06
  -1.62000004E-02  -3.10378823E-06
  -1.61499996E-02  -3.14544150E-06
  -1.61000006E-02  -3.18747971E-06
  -1.60499997E-02  -3.22989877E-06
  -1.60000008E-02  -3.27269595E-06
  -1.59499999E-02  -3.31587125E-06
  -1.59000009E-02  -3.35942696E-06
  -1.58500001E-02  -3.40336192E-06
  -1.57999992E-02  -3.44767591E-06
  -1.57500003E-02  -3.49236848E-06
  -1.56999994E-02  -3.53744076E-06
  -1.56500004E-02  -3.58289435E-06
  -1.55999996E-02  -3.62872993E-06
  -1.55499997E-02  -3.67494158E-06
  -1.54999997E-02  -3.72152135E-06
  -1.54499998E-02  -3.76846765E-06
  -1.53999999E-02  -3.81578093E-06
  -1.53500000E-02  -3.86346665E-06
  -1.53000001E-02  -3.91152389E-06
  -1.52500002E-02  -3.95994994E-06
  -1.52000003E-02  -4.00874114E-06
  -1.51500003E-02  -4.05789706E-06
  -1.51000004E-02  -4.10741632E-06
  -1.50499996E-02  -4.15729619E-06
  -1.49999997E-02  -4.20753076E-06
  -1.49499997E-02  -4.25811504E-06
  -1.48999998E-02  -4.30904765E-06
  -1.48499999E-02  -4.36032997E-06
  -1.48000000E-02  -4.41196426E-06
  -1.47500001E-02  -4.46394733E-06
  -1.47000002E-02  -4.51627238E-06
  -1.46500003E-02  -4.56893395E-06
  -1.46000003E-02  -4.62192929E-06
  -1.45500004E-02  -4.67525524E-06
  -1.44999996E-02  -4.72890997E-06
  -1.44499997E-02  -4.78288848E-06
  -1.43999998E-02  -4.83718759E-06
  -1.43499998E-02  -4.89180593E-06
  -1.42999999E-02  -4.94674350E-06
  -1.42500000E-02  -5.00199894E-06
  -1.42000001E-02  -5.05756407E-06
  -1.41500002E-02  -5.11342887E-06
  -1.41000003E-02  -5.16958789E-06
  -1.40500003E-02  -5.22603841E-06
  -1.40000004E-02  -5.28277997E-06
  -1.39499996E-02  -5.33981120E-06
  -1.38999997E-02  -5.39712573E-06
  -1.38499998E-02  -5.45471767E-06
  -1.37999998E-02  -5.51258563E-06
  -1.37499999E-02  -5.57072781E-06
  -1.37000000E-02  -5.62913965E-06
  -1.36500001E-02  -5.68780752E-06
  -1.36000002E-02  -5.74672276E-06
  -1.35500003E-02  -5.80588130E-06
  -1.35000004E-02  -5.86528449E-06
  -1.34500004E-02  -5.92493234E-06
  -1.33999996E-02  -5.98481938E-06
  -1.33499997E-02  -6.04494016E-06
  -1.32999998E-02  -6.10528696E-06
  -1.32499998E-02  -6.16585476E-06
  -1.31999999E-02  -6.22663765E-06
  -1.31500000E-02  -6.28762746E-06
  -1.31000001E-02  -6.34881644E-06
  -1.30500002E-02  -6.41020097E-06
  -1.30000003E-02  -6.47177785E-06
  -1.29500004E-02  -6.53354437E-06
  -1.29000004E-02  -6.59549914E-06
  -1.28499996E-02  -6.65763582E-06
  -1.27999997E-02  -6.71994849E-06
  -1.27499998E-02  -6.78242941E-06
  -1.26999998E-02  -6.84507222E-06
  -1.26499999E-02  -6.90787101E-06
  -1.26000000E-02  -6.97082260E-06
  -1.25500001E-02  -7.03392470E-06
  -1.25000002E-02  -7.09717369E-06
  -1.24500003E-02  -7.16056684E-06
  -1.24000004E-02  -7.22409459E-06
  -1.23500004E-02  -7.28774830E-06
  -1.22999996E-02  -7.35152253E-06
  -1.22499997E-02  -7.41541044E-06
  -1.21999998E-02  -7.47940521E-06
  -1.21499998E-02  -7.54350322E-06
  -1.20999999E-02  -7.60770490E-06
  -1.20500000E-02  -7.67201254E-06
  -1.20000001E-02  -7.73643205E-06
  -1.19500002E-02  -7.80096434E-06
  -1.19000003E-02  -7.86560213E-06
  -1.18500004E-02  -7.93033632E-06
  -1.18000004E-02  -7.99515965E-06
  -1.17499996E-02  -8.06007120E-06
  -1.16999997E-02  -8.12506823E-06
  -1.16499998E-02  -8.19014622E-06
  -1.15999999E-02  -8.25529423E-06
  -1.15499999E-02  -8.32050682E-06
  -1.15000000E-02  -8.38579217E-06
  -1.14500001E-02  -8.45115301E-06
  -1.14000002E-02  -8.51658478E-06
  -1.13500003E-02  -8.58207932E-06
  -1.13000004E-02  -8.64763388E-06
  -1.12500004E-02  -8.71325483E-06
  -1.11999996E-02  -8.77896127E-06
  -1.11499997E-02  -8.84476140E-06
  -1.10999998E-02  -8.91065883E-06
  -1.10499999E-02  -8.97665086E-06
  -1.09999999E-02  -9.04273838E-06
  -1.09500000E-02  -9.10892868E-06
  -1.09000001E-02  -9.17522357E-06
  -1.08500002E-02  -9.24161304E-06
  -1.08000003E-02  -9.30808801E-06
  -1.07500004E-02  -9.37465029E-06
  -1.07000005E-02  -9.44131352E-06
  -1.06499996E-02  -9.50809408E-06
  -1.05999997E-02  -9.57500197E-06
  -1.05499998E-02  -9.64203900E-06
  -1.04999999E-02  -9.70921337E-06
  -1.04499999E-02  -9.77653508E-06
  -1.04000000E-02  -9.84402232E-06
  -1.03500001E-02  -9.91168690E-06
  -1.03000002E-02  -9.97953612E-06
  -1.02500003E-02  -1.00475781E-05
  -1.02000004E-02  -1.01158294E-05
  -1.01500005E-02  -1.01843152E-05
  -1.00999996E-02  -1.02530530E-05
  -1.00499997E-02  -1.03220536E-05
  -9.99999978E-03  -1.03913180E-05
  -9.94999986E-03  -1.04608562E-05
  -9.89999995E-03  -1.05306926E-05
  -9.85000003E-03  -1.06008520E-05
  -9.80000012E-03  -1.06713587E-05
  -9.75000020E-03  -1.07422366E-05
  -9.70000029E-03  -1.08135100E-05
  -9.65000037E-03  -1.08852055E-05
  -9.60000046E-03  -1.09573521E-05
  -9.54999961E-03  -1.10299716E-05
  -9.49999969E-03  -1.11030795E-05
  -9.44999978E-03  -1.11766931E-05
  -9.39999986E-03  -1.12508405E-05
  -9.34999995E-03  -1.13255628E-05
  -9.30000003E-03  -1.14008990E-05
  -9.25000012E-03  -1.14768845E-05
  -9.20000020E-03  -1.15535504E-05
  -9.15000029E-03  -1.16309357E-05
  -9.10000037E-03  -1.17090831E-05
  -9.05000046E-03  -1.17880300E-05
  -8.99999961E-03  -1.18678126E-05
  -8.94999970E-03  -1.19484675E-05
  -8.89999978E-03  -1.20300374E-05
  -8.84999987E-03  -1.21125786E-05
  -8.79999995E-03  -1.21961466E-05
  -8.75000004E-03  -1.22807924E-05
  -8.70000012E-03  -1.23665604E-05
  -8.65000021E-03  -1.24534954E-05
  -8.60000029E-03  -1.25416473E-05
  -8.55000038E-03  -1.26310715E-05
  -8.50000046E-03  -1.27218264E-05
  -8.44999962E-03  -1.28139718E-05
  -8.39999970E-03  -1.29075652E-05
  -8.34999979E-03  -1.30026783E-05
  -8.29999987E-03  -1.30993840E-05
  -8.24999996E-03  -1.31977577E-05
  -8.20000004E-03  -1.32978630E-05
  -8.15000013E-03  -1.33997528E-05
  -8.10000021E-03  -1.35034916E-05
  -8.05000030E-03  -1.36091576E-05
  -8.00000038E-03  -1.37168427E-05
  -7.95000046E-03  -1.38266323E-05
  -7.89999962E-03  -1.39386102E-05
  -7.84999970E-03  -1.40528609E-05
  -7.79999979E-03  -1.41694754E-05
  -7.74999987E-03  -1.42885492E-05
  -7.69999996E-03  -1.44101732E-05
  -7.65000004E-03  -1.45344338E-05
  -7.60000013E-03  -1.46614093E-05
  -7.55000021E-03  -1.47911987E-05
  -7.49999983E-03  -1.49239131E-05
  -7.44999992E-03  -1.50596707E-05
  -7.40000000E-03  -1.51985842E-05
  -7.35000009E-03  -1.53407545E-05
  -7.30000017E-03  -1.54862882E-05
  -7.24999979E-03  -1.56353035E-05
  -7.19999988E-03  -1.57879185E-05
  -7.14999996E-03  -1.59442534E-05
  -7.10000005E-03  -1.61044245E-05
  -7.05000013E-03  -1.62685519E-05
  -7.00000022E-03  -1.64367721E-05
  -6.94999984E-03  -1.66092286E-05
  -6.89999992E-03  -1.67860671E-05
  -6.85000001E-03  -1.69674149E-05
  -6.80000009E-03  -1.71534066E-05
  -6.75000018E-03  -1.73441695E-05
  -6.69999979E-03  -1.75398545E-05
  -6.64999988E-03  -1.77406182E-05
  -6.59999996E-03  -1.79466188E-05
  -6.55000005E-03  -1.81580162E-05
  -6.50000013E-03  -1.83749726E-05
  -6.45000022E-03  -1.85976460E-05
  -6.39999984E-03  -1.88262093E-05
  -6.34999992E-03  -1.90608334E-05
  -6.30000001E-03  -1.93016858E-05
  -6.25000009E-03  -1.95489247E-05
  -6.20000018E-03  -1.98027174E-05
  -6.14999980E-03  -2.00632512E-05
  -6.09999988E-03  -2.03307281E-05
  -6.04999997E-03  -2.06053519E-05
  -6.00000005E-03  -2.08873098E-05
  -5.95000014E-03  -2.11767892E-05
  -5.90000022E-03  -2.14739775E-05
  -5.84999984E-03  -2.17790785E-05
  -5.79999993E-03  -2.20922902E-05
  -5.75000001E-03  -2.24138257E-05
  -5.70000010E-03  -2.27438832E-05
  -5.65000018E-03  -2.30826681E-05
  -5.59999980E-03  -2.34304098E-05
  -5.54999989E-03  -2.37873410E-05
  -5.49999997E-03  -2.41537055E-05
  -5.45000006E-03  -2.45297160E-05
  -5.40000014E-03  -2.49155910E-05
  -5.35000023E-03  -2.53115522E-05
  -5.29999984E-03  -2.57178417E-05
  -5.24999993E-03  -2.61347122E-05
  -5.20000001E-03  -2.65624221E-05
  -5.15000010E-03  -2.70012115E-05
  -5.10000018E-03  -2.74513259E-05
  -5.04999980E-03  -2.79130199E-05
  -4.99999989E-03  -2.83865502E-05
  -4.94999997E-03  -2.88721767E-05
  -4.90000006E-03  -2.93701487E-05
  -4.85000014E-03  -2.98807154E-05
  -4.80000023E-03  -3.04041387E-05
  -4.74999985E-03  -3.09407005E-05
  -4.69999993E-03  -3.14907011E-05
  -4.65000002E-03  -3.20544204E-05
  -4.60000010E-03  -3.26321315E-05
  -4.55000019E-03  -3.32240961E-05
  -4.49999981E-03  -3.38306018E-05
  -4.44999989E-03  -3.44519467E-05
  -4.39999998E-03  -3.50884111E-05
  -4.35000006E-03  -3.57402787E-05
  -4.30000015E-03  -3.64078332E-05
  -4.25000023E-03  -3.70913949E-05
  -4.19999985E-03  -3.77912984E-05
  -4.14999994E-03  -3.85078492E-05
  -4.10000002E-03  -3.92413349E-05
  -4.05000011E-03  -3.99920209E-05
  -4.00000019E-03  -4.07602165E-05
  -3.94999981E-03  -4.15462637E-05
  -3.89999989E-03  -4.23504680E-05
  -3.84999998E-03  -4.31731132E-05
  -3.80000006E-03  -4.40145050E-05
  -3.74999992E-03  -4.48749888E-05
  -3.70000000E-03  -4.57549140E-05
  -3.65000009E-03  -4.66545971E-05
  -3.59999994E-03  -4.75743327E-05
  -3.55000002E-03  -4.85143937E-05
  -3.50000011E-03  -4.94751330E-05
  -3.44999996E-03  -5.04568889E-05
  -3.40000005E-03  -5.14599997E-05
  -3.34999990E-03  -5.24847746E-05
  -3.29999998E-03  -5.35315303E-05
  -3.25000007E-03  -5.46006013E-05
  -3.19999992E-03  -5.56923369E-05
  -3.15000000E-03  -5.68070682E-05
  -3.10000009E-03  -5.79450934E-05
  -3.04999994E-03  -5.91067037E-05
  -3.00000003E-03  -6.02922009E-05
  -2.95000011E-03  -6.15019526E-05
  -2.89999996E-03  -6.27362970E-05
  -2.85000005E-03  -6.39955615E-05
  -2.79999990E-03  -6.52800372E-05
  -2.74999999E-03  -6.65900443E-05
  -2.70000007E-03  -6.79259465E-05
  -2.64999992E-03  -6.92880640E-05
  -2.60000001E-03  -7.06766587E-05
  -2.55000009E-03  -7.20920143E-05
  -2.49999994E-03  -7.35344365E-05
  -2.45000003E-03  -7.50042818E-05
  -2.40000011E-03  -7.65018849E-05
  -2.34999997E-03  -7.80275295E-05
  -2.30000005E-03  -7.95814776E-05
  -2.24999990E-03  -8.11640421E-05
  -2.19999999E-03  -8.27755430E-05
  -2.15000007E-03  -8.44162423E-05
  -2.09999993E-03  -8.60863875E-05
  -2.05000001E-03  -8.77862185E-05
  -2.00000009E-03  -8.95160483E-05
  -1.94999995E-03  -9.12761825E-05
  -1.90000003E-03  -9.30669194E-05
  -1.85000000E-03  -9.48885136E-05
  -1.79999997E-03  -9.67411543E-05
  -1.75000005E-03  -9.86250961E-05
  -1.70000002E-03  -1.00540587E-04
  -1.64999999E-03  -1.02487909E-04
  -1.59999996E-03  -1.04467283E-04
  -1.55000004E-03  -1.06478845E-04
  -1.50000001E-03  -1.08522821E-04
  -1.44999998E-03  -1.10599438E-04
  -1.39999995E-03  -1.12708993E-04
  -1.35000004E-03  -1.14851646E-04
  -1.30000000E-03  -1.17027499E-04
  -1.24999997E-03  -1.19236684E-04
  -1.20000006E-03  -1.21479403E-04
  -1.15000003E-03  -1.23755846E-04
  -1.09999999E-03  -1.26066181E-04
  -1.04999996E-03  -1.28410524E-04
  -1.00000005E-03  -1.30788918E-04
  -9.50000016E-04  -1.33201524E-04
  -8.99999985E-04  -1.35648486E-04
  -8.50000011E-04  -1.38129966E-04
  -7.99999980E-04  -1.40645978E-04
  -7.50000007E-04  -1.43196477E-04
  -6.99999975E-04  -1.45781494E-04
  -6.50000002E-04  -1.48401145E-04
  -6.00000028E-04  -1.51055574E-04
  -5.49999997E-04  -1.53744768E-04
  -5.00000024E-04  -1.56468581E-04
  -4.49999992E-04  -1.59227013E-04
  -3.99999990E-04  -1.62020136E-04
  -3.49999988E-04  -1.64847952E-04
  -3.00000014E-04  -1.67710357E-04
  -2.50000012E-04  -1.70607207E-04
  -1.99999995E-04  -1.73538356E-04
  -1.50000007E-04  -1.76503745E-04
  -9.99999975E-05  -1.79503302E-04
  -4.99999987E-05  -1.82536998E-04
   0.00000000      -1.85604586E-04
   4.99999987E-05  -1.88705701E-04
   9.99999975E-05  -1.91840198E-04
   1.50000007E-04  -1.95008004E-04
   1.99999995E-04  -1.98208945E-04
   2.50000012E-04  -2.01442686E-04
   3.00000014E-04  -2.04708806E-04
   3.49999988E-04  -2.08006997E-04
   3.99999990E-04  -2.11337072E-04
   4.49999992E-04  -2.14698783E-04
   5.00000024E-04  -2.18091853E-04
   5.49999997E-04  -2.21515700E-04
   6.00000028E-04  -2.24969786E-04
   6.50000002E-04  -2.28453748E-04
   6.99999975E-04  -2.31967337E-04
   7.50000007E-04  -2.35510088E-04
   7.99999980E-04  -2.39081433E-04
   8.50000011E-04  -2.42680690E-04
   8.99999985E-04  -2.46307260E-04
   9.50000016E-04  -2.49960751E-04
   1.00000005E-03  -2.53640756E-04
   1.04999996E-03  -2.57346517E-04
   1.09999999E-03  -2.61077250E-04
   1.15000003E-03  -2.64832139E-04
   1.20000006E-03  -2.68610631E-04
   1.24999997E-03  -2.72412202E-04
   1.30000000E-03  -2.76236126E-04
   1.35000004E-03  -2.80081382E-04
   1.39999995E-03  -2.83946982E-04
   1.44999998E-03  -2.87832168E-04
   1.50000001E-03  -2.91736244E-04
   1.55000004E-03  -2.95658509E-04
   1.59999996E-03  -2.99597828E-04
   1.64999999E-03  -3.03553010E-04
   1.70000002E-03  -3.07522976E-04
   1.75000005E-03  -3.11506970E-04
   1.79999997E-03  -3.15504061E-04
   1.85000000E-03  -3.19513143E-04
   1.90000003E-03  -3.23532906E-04
   1.94999995E-03  -3.27562069E-04
   2.00000009E-03  -3.31599469E-04
   2.05000001E-03  -3.35644057E-04
   2.09999993E-03  -3.39694758E-04
   2.15000007E-03  -3.43750115E-04
   2.19999999E-03  -3.47808673E-04
   2.24999990E-03  -3.51868948E-04
   2.30000005E-03  -3.55929747E-04
   2.34999997E-03  -3.59989819E-04
   2.40000011E-03  -3.64047737E-04
   2.45000003E-03  -3.68101668E-04
   2.49999994E-03  -3.72150011E-04
   2.55000009E-03  -3.76191252E-04
   2.60000001E-03  -3.80224141E-04
   2.64999992E-03  -3.84247018E-04
   2.70000007E-03  -3.88257933E-04
   2.74999999E-03  -3.92254995E-04
   2.79999990E-03  -3.96236486E-04