  -6.00000000       0.00000000    
  -5.94999981       0.00000000    
  -5.90000010       0.00000000    
  -5.84999990       0.00000000    
  -5.80000019       0.00000000    
  -5.75000000       0.00000000    
  -5.69999981       0.00000000    
  -5.65000010       0.00000000    
  -5.59999990       0.00000000    
  -5.55000019       0.00000000    
  -5.50000000       0.00000000    
  -5.44999981      -7.93549356E-37
  -5.40000010      -7.97620126E-36
  -5.34999990      -8.31744848E-35
  -5.30000019      -9.84462652E-34
  -5.25000000      -8.33856240E-33
  -5.19999981      -4.83237764E-32
  -5.15000010      -1.98967536E-31
  -5.09999990      -5.85014997E-31
  -5.05000019      -1.12309655E-30
  -5.00000000      -6.54306816E-31
  -4.94999981       4.40325664E-30
  -4.90000010       1.94772350E-29
  -4.84999990       4.29997835E-29
  -4.80000019       4.31676433E-29
  -4.75000000      -6.62006279E-29
  -4.69999981      -3.82281205E-28
  -4.65000010      -7.65476890E-28
  -4.59999990      -2.91754264E-28
  -4.55000019       3.29415603E-27
  -4.50000000       1.28833296E-26
  -4.44999981       2.77264579E-26
  -4.40000010       3.36675881E-26
  -4.34999990      -8.98770646E-27
  -4.30000019      -1.64764114E-25
  -4.25000000      -4.78683460E-25
  -4.19999981      -8.55129856E-25
  -4.15000010      -8.69196133E-25
  -4.09999990       3.62229742E-25
  -4.05000019       3.94341982E-24
  -4.00000000       1.01736433E-23
  -3.95000005       1.65191844E-23
  -3.90000010       1.52307473E-23
  -3.84999990      -7.15222554E-24
  -3.79999995      -6.44736901E-23
  -3.75000000      -1.55838197E-22
  -3.70000005      -2.41015964E-22
  -3.65000010      -2.17384317E-22
  -3.59999990       7.50743588E-23
  -3.54999995       7.82573595E-22
  -3.50000000       1.87126410E-21
  -3.45000005       2.88726888E-21
  -3.40000010       2.76352460E-21
  -3.34999990      -8.45416300E-23
  -3.29999995      -7.06892557E-21
  -3.25000000      -1.79618522E-20
  -3.20000005      -2.89011736E-20
  -3.15000010      -3.08677018E-20
  -3.09999990      -1.04558441E-20
  -3.04999995       4.49249319E-20
  -3.00000000       1.36284546E-19
  -2.95000005       2.38580008E-19
  -2.90000010       2.89226467E-19
  -2.84999990       1.91286796E-19
  -2.79999995      -1.55262589E-19
  -2.75000000      -7.86916666E-19
  -2.70000005      -1.58469773E-18
  -2.65000010      -2.19409823E-18
  -2.59999990      -2.02199420E-18
  -2.54999995      -3.86125428E-19
  -2.50000000       3.13662422E-18
  -2.45000005       8.20218481E-18
  -2.40000010       1.32054430E-17
  -2.34999990       1.51160921E-17
  -2.29999995       1.00257301E-17
  -2.25000000      -5.32333531E-18
  -2.20000005      -3.11185876E-17
  -2.15000010      -6.18498296E-17
  -2.09999990      -8.48060041E-17
  -2.04999995      -8.14032147E-17
  -2.00000000      -3.27352128E-17
  -1.95000005       7.05833283E-17
  -1.89999998       2.16503779E-16
  -1.85000002       3.62449633E-16
  -1.79999995       4.35763247E-16
  -1.75000000       3.49874609E-16
  -1.70000005       3.82153340E-17
  -1.64999998      -4.99957862E-16
  -1.60000002      -1.15739514E-15
  -1.54999995      -1.70357267E-15
  -1.50000000      -1.81994812E-15
  -1.45000005      -1.19812090E-15
  -1.39999998       3.10664368E-16
  -1.35000002       2.53782379E-15
  -1.29999995       4.90227814E-15
  -1.25000000       6.45618507E-15
  -1.20000005       6.12318678E-15
  -1.14999998       3.11510639E-15
  -1.10000002      -2.57916662E-15
  -1.04999995      -9.82537128E-15
  -1.00000000      -1.63244120E-14
 -0.949999988      -1.91120313E-14
 -0.899999976      -1.55797955E-14
 -0.850000024      -4.77170717E-15
 -0.800000012       1.15325857E-14
 -0.750000000       2.85529792E-14
 -0.699999988       3.95394065E-14
 -0.649999976       3.81520478E-14
 -0.600000024       2.16030129E-14
 -0.550000012      -6.67204168E-15
 -0.500000000      -3.63642967E-14
 -0.449999988      -5.28999486E-14
 -0.400000006      -4.34477622E-14
 -0.349999994      -4.77923983E-15
 -0.300000012       5.02771686E-14
 -0.250000000       9.19256059E-14
 -0.200000003       8.13707012E-14
 -0.150000006      -1.19055665E-14
 -0.100000001      -1.87707651E-13
  -5.00000007E-02  -3.96480347E-13
   0.00000000      -5.36155105E-13
   5.00000007E-02  -4.74541955E-13
  0.100000001      -9.99177005E-14
  0.150000006       6.09937014E-13
  0.200000003       1.52389342E-12
  0.250000000       2.33203105E-12
  0.300000012       2.59052567E-12
  0.349999994       1.85217380E-12
  0.400000006      -1.33635060E-13
  0.449999988      -3.20664155E-12
  0.500000000      -6.65467464E-12
  0.550000012      -9.24197698E-12
  0.600000024      -9.47366231E-12
  0.649999976      -6.09208040E-12
  0.699999988       1.29891963E-12
  0.750000000       1.16840660E-11
  0.800000012       2.24179755E-11
  0.850000024       2.95653085E-11
  0.899999976       2.88930581E-11
  0.949999988       1.73831678E-11
   1.00000000      -5.12525786E-12
   1.04999995      -3.47555353E-11
   1.10000002      -6.35066097E-11
   1.14999998      -8.06976500E-11
   1.20000005      -7.59469571E-11
   1.25000000      -4.30988266E-11
   1.29999995       1.60528865E-11
   1.35000002       8.97093858E-11
   1.39999998       1.57001537E-10
   1.45000005       1.92543551E-10
   1.50000000       1.74081513E-10
   1.54999995       9.13961615E-11
   1.60000002      -4.64133038E-11
   1.64999998      -2.08405793E-10
   1.70000005      -3.46355333E-10
   1.75000000      -4.06784717E-10
   1.79999995      -3.48250179E-10
   1.85000002      -1.59112987E-10
   1.89999998       1.30453370E-10
   1.95000005       4.48067444E-10
   2.00000000       6.93547719E-10
   2.04999995       7.66795405E-10
   2.09999990       6.02616734E-10
   2.15000010       2.01799036E-10
   2.20000005      -3.53546581E-10
   2.25000000      -9.09629760E-10
   2.29999995      -1.27810584E-09
   2.34999990      -1.29388744E-09
   2.40000010      -8.77830197E-10
   2.45000005      -8.30832070E-11
   2.50000000       8.95057584E-10
   2.54999995       1.75736992E-09
   2.59999990       2.18386842E-09
   2.65000010       1.94193284E-09
   2.70000005       9.86109749E-10
   2.75000000      -4.87864416E-10
   2.79999995      -2.06374762E-09
   2.84999990      -3.20830273E-09
   2.90000010      -3.43756423E-09
   2.95000005      -2.49896992E-09
   3.00000000      -5.07039355E-10
   3.04999995       2.02571715E-09
   3.09999990       4.29497549E-09
   3.15000010       5.43709655E-09
   3.20000005       4.82919216E-09
   3.25000000       2.36160314E-09
   3.29999995      -1.42155965E-09
   3.34999990      -5.39129186E-09
   3.40000010      -8.12897749E-09
   3.45000005      -8.38622327E-09
   3.50000000      -5.57514079E-09
   3.54999995      -1.16921445E-10
   3.59999990       6.50665122E-09
   3.65000010       1.20776615E-08
   3.70000005       1.43010146E-08
   3.75000000       1.16270185E-08
   3.79999995       3.97320665E-09
   3.84999990      -6.93588520E-09
   3.90000010      -1.78113329E-08
   3.95000005      -2.46563676E-08
   4.00000000      -2.40549909E-08
   4.05000019      -1.45203423E-08
   4.09999990       2.56472643E-09
   4.15000010       2.28303367E-08
   4.19999981       3.98319280E-08
   4.25000000       4.68766785E-08
   4.30000019       3.93056716E-08
   4.34999990       1.65260587E-08
   4.40000010      -1.69598611E-08
   4.44999981      -5.20766541E-08
   4.50000000      -7.73637581E-08
   4.55000019      -8.23931359E-08
   4.59999990      -6.14794473E-08
   4.65000010      -1.64769709E-08
   4.69999981       4.24468389E-08
   4.75000000       9.86809070E-08
   4.80000019       1.33518199E-07
   4.84999990       1.31954593E-07
   4.90000010       8.82522997E-08
   4.94999981       9.37980094E-09
   5.00000000      -8.51609485E-08
   5.05000019      -1.67648594E-07
   5.09999990      -2.09837040E-07
   5.15000010      -1.92032971E-07
   5.19999981      -1.10794076E-07
   5.25000000       1.74809180E-08
   5.30000019       1.58858924E-07
   5.34999990       2.70197802E-07
   5.40000010       3.11662660E-07
   5.44999981       2.59977895E-07
   5.50000000       1.18232578E-07
   5.55000019      -8.14045009E-08
   5.59999990      -2.83905905E-07
   5.65000010      -4.25749278E-07
   5.69999981      -4.53900753E-07
   5.75000000      -3.43951768E-07
   5.80000019      -1.11519441E-07
   5.84999990       1.87559493E-07
   5.90000010       4.69678241E-07
   5.94999981       6.46131753E-07
   6.00000000       6.50053892E-07
   6.05000019       4.59626165E-07
   6.09999990       1.09847207E-07
   6.15000010      -3.12069574E-07
   6.19999981      -6.87962142E-07
   6.25000000      -9.01715396E-07
   6.30000019      -8.74861996E-07
   6.34999990      -5.93948641E-07
   6.40000010      -1.20381685E-07
   6.44999981       4.21888160E-07
   6.50000000       8.78943524E-07
   6.55000019       1.11131612E-06
   6.59999990       1.03738876E-06
   6.65000010       6.62202581E-07
   6.69999981       8.16020389E-08
   6.75000000      -5.41368593E-07
   6.80000019      -1.02238903E-06
   6.84999990      -1.21125697E-06
   6.90000010      -1.04001424E-06
   6.94999981      -5.48238518E-07
   7.00000000       1.23849318E-07
   7.05000019       7.74178829E-07
   7.09999990       1.19906917E-06
   7.15000010       1.25698671E-06
   7.19999981       9.15728094E-07
   7.25000000       2.67125358E-07
   7.30000019      -4.97031465E-07
   7.34999990      -1.14195711E-06
   7.40000010      -1.46283674E-06
   7.44999981      -1.35084133E-06
   7.50000000      -8.30391969E-07
   7.55000019      -5.43013599E-08
   7.59999990       7.43232647E-07
   7.65000010       1.32171317E-06
   7.69999981       1.51330426E-06
   7.75000000       1.27896078E-06
   7.80000019       7.21521246E-07
   7.84999990       4.94125381E-08
   7.90000010      -4.98413442E-07
   7.94999981      -7.41289853E-07
   8.00000000      -6.27740519E-07
   8.05000019      -2.60935138E-07
   8.10000038       1.34545957E-07
   8.14999962       2.97513168E-07
   8.19999981       3.96247906E-08
   8.25000000      -6.59529690E-07
   8.30000019      -1.61010155E-06
   8.35000038      -2.44621060E-06
   8.39999962      -2.73558953E-06
   8.44999981      -2.13581416E-06
   8.50000000      -5.47231480E-07
   8.55000019       1.79351775E-06
   8.60000038       4.32284924E-06
   8.64999962       6.27643067E-06
   8.69999981       6.90779916E-06
   8.75000000       5.73969828E-06
   8.80000019       2.76859464E-06
   8.85000038      -1.45289130E-06
   8.89999962      -5.90095351E-06
   8.94999981      -9.32935200E-06
   9.00000000      -1.06243388E-05
   9.05000019      -9.16615681E-06
   9.10000038      -5.08271069E-06
   9.14999962       6.98598228E-07
   9.19999981       6.64185518E-06
   9.25000000       1.10051024E-05
   9.30000019       1.23524369E-05
   9.35000038       1.00278849E-05
   9.39999962       4.43893987E-06
   9.44999981      -2.95901214E-06
   9.50000000      -1.00041761E-05
   9.55000019      -1.44236528E-05
   9.60000038      -1.45242911E-05
   9.64999962      -9.77539639E-06
   9.69999981      -1.09317818E-06
   9.75000000       9.28942791E-06
   9.80000019       1.83673692E-05
   9.85000038       2.31952417E-05
   9.89999962       2.17798133E-05
   9.94999981       1.37686429E-05
   10.0000000       7.09587084E-07
   10.0500002      -1.42325935E-05
   10.1000004      -2.70614419E-05
   10.1499996      -3.40404513E-05
   10.1999998      -3.27893540E-05
   10.2500000      -2.30604037E-05
   10.3000002      -6.94385153E-06
   10.3500004       1.15938565E-05
   10.3999996       2.77421877E-05
   10.4499998       3.71760580E-05
   10.5000000       3.73057483E-05
   10.5500002       2.80739423E-05
   10.6000004       1.20432260E-05
   10.6499996      -6.28228599E-06
   10.6999998      -2.17299912E-05
   10.7500000      -2.99685635E-05
   10.8000002      -2.88094780E-05
   10.8500004      -1.88997456E-05
   10.8999996      -3.57389195E-06
   10.9499998       1.21196836E-05
   11.0000000       2.29494890E-05
   11.0500002       2.51383390E-05
   11.1000004       1.76054673E-05
   11.1499996       2.41264001E-06
   11.1999998      -1.57570230E-05
   11.2500000      -3.09663919E-05
   11.3000002      -3.78487348E-05
   11.3500004      -3.33410535E-05
   11.3999996      -1.77818874E-05
   11.4499998       4.99786211E-06
   11.5000000       2.86667164E-05
   11.5500002       4.62099997E-05
   11.6000004       5.20483445E-05
   11.6499996       4.38161005E-05
   11.6999998       2.32355815E-05
   11.7500000      -4.22171706E-06
   11.8000002      -3.08340823E-05
   11.8500004      -4.88752557E-05
   11.8999996      -5.29461577E-05
   11.9499998      -4.16793591E-05
   12.0000000      -1.82692165E-05
   12.0500002       1.03769498E-05
   12.1000004       3.56524943E-05
   12.1499996       4.98474183E-05
   12.1999998       4.85431483E-05
   12.2500000       3.20576364E-05
   12.3000002       5.46144565E-06
   12.3500004      -2.28864756E-05
   12.3999996      -4.38753013E-05
   12.4499998      -5.04950258E-05
   12.5000000      -4.01251637E-05
   12.5500002      -1.55260168E-05
   12.6000004       1.58191269E-05
   12.6499996       4.38574680E-05
   12.6999998       5.89881929E-05
   12.7500000       5.50309596E-05
   12.8000002       3.12072152E-05
   12.8500004      -7.51894140E-06
   12.8999996      -5.18967609E-05
   12.9499998      -9.12343676E-05
   13.0000000      -1.16772520E-04
   13.0500002      -1.24529615E-04
   13.1000004      -1.16694369E-04
   13.1499996      -1.01077756E-04
   13.1999998      -8.87417627E-05
   13.2500000      -9.05165653E-05
   13.3000002      -1.13505244E-04
   13.3500004      -1.58724783E-04
   13.3999996      -2.20712449E-04
   13.4499998      -2.89323652E-04
   13.5000000      -3.53242562E-04
   13.5500002      -4.04141232E-04
   13.6000004      -4.40153817E-04
   13.6499996      -4.67478938E-04
   13.6999998      -4.99465736E-04
   13.7500000      -5.53318998E-04
   13.8000002      -6.45340711E-04
   13.8500004      -7.86162389E-04
   13.8999996      -9.77519667E-04
   13.9499998      -1.21173239E-03
   14.0000000      -1.47426687E-03
   14.0500002      -1.74880296E-03
   14.1000004      -2.02339399E-03
   14.1499996      -2.29587802E-03
   14.1999998      -2.57680705E-03
   14.2500000      -2.88882828E-03
   14.3000002      -3.26248957E-03
   14.3500004      -3.72954225E-03
   14.3999996      -4.31565894E-03
   14.4499998      -5.03476663E-03
   14.5000000      -5.88682620E-03
   14.5500002      -6.85995538E-03
   14.6000004      -7.93650746E-03
   14.6499996      -9.10150725E-03
   14.6999998      -1.03510786E-02
   14.7500000      -1.16983671E-02
   14.8000002      -1.31751252E-02
   14.8500004      -1.48283597E-02
   14.8999996      -1.67128425E-02
   14.9499998      -1.88816153E-02
   15.0000000      -2.13772133E-02
   15.0500002      -2.42262650E-02
   15.1000004      -2.74391212E-02
   15.1499996      -3.10148019E-02
   15.1999998      -3.49499024E-02
   15.2500000      -3.92489582E-02
   15.3000002      -4.39332500E-02
   15.3500004      -4.90454398E-02
   15.3999996      -5.46486415E-02
   15.4499998      -6.08202331E-02
   15.5000000      -6.76420927E-02
   15.5500002      -7.51903206E-02
   15.6000004      -8.35273638E-02
   15.6499996      -9.26990286E-02
   15.6999998     -0.102737240    
   15.7500000     -0.113667548    
   15.8000002     -0.125519335    
   15.8500004     -0.138335153    
   15.8999996     -0.152176484    
   15.9499998     -0.167123854    
   16.0000000     -0.183271140    
   16.0499992     -0.200715765    
   16.1000004     -0.219547674    
   16.1499996     -0.239840627    
   16.2000008     -0.261648417    
   16.2500000     -0.285007596    
   16.2999992     -0.309945822    
   16.3500004     -0.336493134    
   16.3999996     -0.364693135    
   16.4500008     -0.394609481    
   16.5000000     -0.426325917    
   16.5499992     -0.459938854    
   16.6000004     -0.495544195    
   16.6499996     -0.533222079    
   16.7000008     -0.573023558    
   16.7500000     -0.614963710    
   16.7999992     -0.659022629    
   16.8500004     -0.705154777    
   16.8999996     -0.753304243    
   16.9500008     -0.803420544    
   17.0000000     -0.855471373    
   17.0499992     -0.909447551    
   17.1000004     -0.965358317    
   17.1499996      -1.02321875    
   17.2000008      -1.08303118    
   17.2500000      -1.14476788    
   17.2999992      -1.20835781    
   17.3500004      -1.27368248    
   17.3999996      -1.34058332    
   17.4500008      -1.40887451    
   17.5000000      -1.47836363    
   17.5499992      -1.54886723    
   17.6000004      -1.62022257    
   17.6499996      -1.69228840    
   17.7000008      -1.76493669    
   17.7500000      -1.83803701    
   17.7999992      -1.91143870    
   17.8500004      -1.98495722    
   17.8999996      -2.05836678    
   17.9500008      -2.13140607    
   18.0000000      -2.20378947    
   18.0499992      -2.27522755    
   18.1000004      -2.34544444    
   18.1499996      -2.41419077    
   18.2000008      -2.48124743    
   18.2500000      -2.54641938    
   18.2999992      -2.60952115    
   18.3500004      -2.67035794    
   18.3999996      -2.72871280    
   18.4500008      -2.78433919    
   18.5000000      -2.83696580    
   18.5499992      -2.88631034    
   18.6000004      -2.93210196    
   18.6499996      -2.97410274    
   18.7000008      -3.01212621    
   18.7500000      -3.04604244    
   18.7999992      -3.07577372    
   18.8500004      -3.10127711    
   18.8999996      -3.12252474    
   18.9500008      -3.13947916    
   19.0000000      -3.15208077    
   19.0499992      -3.16024232    
   19.1000004      -3.16385841    
   19.1499996      -3.16282392    
   19.2000008      -3.15705824    
   19.2500000      -3.14652729    
   19.2999992      -3.13125730    
   19.3500004      -3.11133838    
   19.3999996      -3.08691406    
   19.4500008      -3.05816197    
   19.5000000      -3.02527165    
   19.5499992      -2.98842359    
   19.6000004      -2.94777656    
   19.6499996      -2.90346670    
   19.7000008      -2.85561562    
   19.7500000      -2.80434775    
   19.7999992      -2.74980903    
   19.8500004      -2.69217944    
   19.8999996      -2.63168049    
   19.9500008      -2.56856894    
   20.0000000      -2.50312090    
   20.0499992      -2.43561649    
   20.1000004      -2.36631942    
   20.1499996      -2.29546738    
   20.2000008      -2.22326970    
   20.2500000      -2.14991665    
   20.2999992      -2.07559419    
   20.3500004      -2.00050092    
   20.3999996      -1.92485857    
   20.4500008      -1.84891498    
   20.5000000      -1.77293515    
   20.5499992      -1.69718277    
   20.6000004      -1.62189817    
   20.6499996      -1.54727924    
   20.7000008      -1.47347033    
   20.7500000      -1.40056503    
   20.7999992      -1.32862139    
   20.8500004      -1.25768578    
   20.8999996      -1.18781817    
   20.9500008      -1.11911166    
   21.0000000      -1.05169940    
   21.0499992     -0.985746741    
   21.1000004     -0.921430051    
   21.1499996     -0.858908951    
   21.2000008     -0.798299134    
   21.2500000     -0.739655316    
   21.2999992     -0.682967246    
   21.3500004     -0.628171504    
   21.3999996     -0.575176954    
   21.4500008     -0.523892462    
   21.5000000     -0.474252909    
   21.5499992     -0.426233590    
   21.6000004     -0.379850388    
   21.6499996     -0.335146129    
   21.7000008     -0.292168051    
   21.7500000     -0.250944346    
   21.7999992     -0.211466029    
   21.8500004     -0.173680529    
   21.8999996     -0.137497112    
   21.9500008     -0.102803774    
   22.0000000      -6.94879293E-02
   22.0499992      -3.74547988E-02
   22.1000004      -6.63850363E-03
   22.1499996       2.29982678E-02
   22.2000008       5.14746048E-02
   22.2500000       7.88080692E-02
   22.2999992      0.105031267    
   22.3500004      0.130203113    
   22.3999996      0.154410332    
   22.4500008      0.177758574    
   22.5000000      0.200356916    
   22.5499992      0.222299486    
   22.6000004      0.243650809    
   22.6499996      0.264440179    
   22.7000008      0.284665316    
   22.7500000      0.304306895    
   22.7999992      0.323347300    
   22.8500004      0.341790527    
   22.8999996      0.359676361    
   22.9500008      0.377083004    
   23.0000000      0.394120306    
   23.0499992      0.410911918    
   23.1000004      0.427571952    
   23.1499996      0.444182575    
   23.2000008      0.460778505    
   23.2500000      0.477342486    
   23.2999992      0.493814200    
   23.3500004      0.510110319    
   23.3999996      0.526151896    
   23.4500008      0.541890442    
   23.5000000      0.557326972    
   23.5499992      0.572519064    
   23.6000004      0.587571919    
   23.6499996      0.602617085    
   23.7000008      0.617782474    
   23.7500000      0.633162796    
   23.7999992      0.648797810    
   23.8500004      0.664664328    
   23.8999996      0.680684984    
   23.9500008      0.696750998    
   24.0000000      0.712752759    
   24.0499992      0.728610754    
   24.1000004      0.744296253    
   24.1499996      0.759837031    
   24.2000008      0.775308132    
   24.2500000      0.790809035    
   24.2999992      0.806435943    
   24.3500004      0.822255909    
   24.3999996      0.838292241    
   24.4500008      0.854524136    
   24.5000000      0.870900035    
   24.5499992      0.887358487    
   24.6000004      0.903850853    
   24.6499996      0.920357943    
   24.7000008      0.936893940    
   24.7500000      0.953498304    
   24.7999992      0.970219672    
   24.8500004      0.987096608    
   24.8999996       1.00414252    
   24.9500008       1.02134073    
   25.0000000       1.03865063    
   25.0499992       1.05602193    
   25.1000004       1.07341409    
   25.1499996       1.09081054    
   25.2000008       1.10822606    
   25.2500000       1.12570345    
   25.2999992       1.14330006    
   25.3500004       1.16106904    
   25.3999996       1.17904401    
   25.4500008       1.19722819    
   25.5000000       1.21559405    
   25.5499992       1.23409247    
   25.6000004       1.25266647    
   25.6499996       1.27126825    
   25.7000008       1.28986931    
   25.7500000       1.30846655    
   25.7999992       1.32707965    
   25.8500004       1.34574246    
   25.8999996       1.36449325    
   25.9500008       1.38336492    
   26.0000000       1.40237880    
   26.0499992       1.42154300    
   26.1000004       1.44085443    
   26.1499996       1.46030307    
   26.2000008       1.47987616    
   26.2500000       1.49956083    
   26.2999992       1.51934636    
   26.3500004       1.53922307    
   26.3999996       1.55918193    
   26.4500008       1.57921433    
   26.5000000       1.59931386    
   26.5499992       1.61947596    
   26.6000004       1.63969910    
   26.6499996       1.65998459    
   26.7000008       1.68033493    
   26.7500000       1.70075417    
   26.7999992       1.72124636    
   26.8500004       1.74181628    
   26.8999996       1.76247144    
   26.9500008       1.78322375    
   27.0000000       1.80409098    
   27.0499992       1.82509577    
   27.1000004       1.84626114    
   27.1499996       1.86760342    
   27.2000008       1.88912570    
   27.2500000       1.91081262    
   27.2999992       1.93263006    
   27.3500004       1.95452940    
   27.3999996       1.97645903    
   27.4500008       1.99837589    
   27.5000000       2.02025962    
   27.5499992       2.04211903    
   27.6000004       2.06399226    
   27.6499996       2.08593845    
   27.7000008       2.10802364    
   27.7500000       2.13030577    
   27.7999992       2.15281963    
   27.8500004       2.17557168    
   27.8999996       2.19853997    
   27.9500008       2.22168255    
   28.0000000       2.24495316    
   28.0499992       2.26831341    
   28.1000004       2.29174280    
   28.1499996       2.31524611    
   28.2000008       2.33884835    
   28.2500000       2.36258984    
   28.2999992       2.38651586    
   28.3500004       2.41066813    
   28.3999996       2.43508172    
   28.4500008       2.45978355    
   28.5000000       2.48479724    
   28.5499992       2.51014662    
   28.6000004       2.53585935    
   28.6499996       2.56196761    
   28.7000008       2.58850312    
   28.7500000       2.61549139    
   28.7999992       2.64294624    
   28.8500004       2.67086601    
   28.8999996       2.69923711    
   28.9500008       2.72804070    
   29.0000000       2.75726485    
   29.0499992       2.78691506    
   29.1000004       2.81702375    
   29.1499996       2.84765291    
   29.2000008       2.87888956    
   29.2500000       2.91083455    
   29.2999992       2.94358683    
   29.3500004       2.97723484    
   29.3999996       3.01184511    
   29.4500008       3.04746294    
   29.5000000       3.08411908    
   29.5499992       3.12184000    
   29.6000004       3.16066027    
   29.6499996       3.20063186    
   29.7000008       3.24182653    
   29.7500000       3.28433251    
   29.7999992       3.32824588    
   29.8500004       3.37365985    
   29.8999996       3.42065835    
   29.9500008       3.46931553    
   30.0000000       3.51969957    
   30.0499992       3.57188320    
   30.1000004       3.62594962    
   30.1499996       3.68199778    
   30.2000008       3.74013615    
   30.2500000       3.80047131    
   30.2999992       3.86308980    
   30.3500004       3.92804217    
   30.3999996       3.99533176    
   30.4500008       4.06491613    
   30.5000000       4.13672066    
   30.5499992       4.21065378    
   30.6000004       4.28662968    
   30.6499996       4.36458063    
   30.7000008       4.44445658    
   30.7500000       4.52621365    
   30.7999992       4.60979366    
   30.8500004       4.69509888    
   30.8999996       4.78197050    
   30.9500008       4.87018871    
   31.0000000       4.95947599    
   31.0499992       5.04951954    
   31.1000004       5.13999462    
   31.1499996       5.23058224    
   31.2000008       5.32097721    
   31.2500000       5.41087770    
   31.2999992       5.49996853    
   31.3500004       5.58789921    
   31.3999996       5.67426443    
   31.4500008       5.75860262    
   31.5000000       5.84040213    
   31.5499992       5.91911983    
   31.6000004       5.99420309    
   31.6499996       6.06510401    
   31.7000008       6.13128090    
   31.7500000       6.19218731    
   31.7999992       6.24725437    
   31.8500004       6.29587603    
   31.8999996       6.33739758    
   31.9500008       6.37112665    
   32.0000000       6.39635038    
   32.0499992       6.41236115    
   32.0999985       6.41847706    
   32.1500015       6.41404963    
   32.2000008       6.39845133    
   32.2500000       6.37105083    
   32.2999992       6.33118057    
   32.3499985       6.27811432    
   32.4000015       6.21105814    
   32.4500008       6.12916422    
   32.5000000       6.03156376    
   32.5499992       5.91740704    
   32.5999985       5.78589010    
   32.6500015       5.63627529    
   32.7000008       5.46787691    
   32.7500000       5.28004360    
   32.7999992       5.07212353    
   32.8499985       4.84344673    
   32.9000015       4.59332705    
   32.9500008       4.32108068    
   33.0000000       4.02606440    
   33.0499992       3.70771480    
   33.0999985       3.36557341    
   33.1500015       2.99928880    
   33.2000008       2.60859203    
   33.2500000       2.19326496    
   33.2999992       1.75310326    
   33.3499985       1.28790319    
   33.4000015      0.797476828    
   33.4500008      0.281693995    
   33.5000000     -0.259459853    
   33.5499992     -0.825827718    
   33.5999985      -1.41704893    
   33.6500015      -2.03255939    
   33.7000008      -2.67162347    
   33.7500000      -3.33338761    
   33.7999992      -4.01693010    
   33.8499985      -4.72128916    
   33.9000015      -5.44546366    
   33.9500008      -6.18837452    
   34.0000000      -6.94882107    
   34.0499992      -7.72543287    
   34.0999985      -8.51665020    
   34.1500015      -9.32073212    
   34.2000008      -10.1358089    
   34.2500000      -10.9599295    
   34.2999992      -11.7911129    
   34.3499985      -12.6273794    
   34.4000015      -13.4667358    
   34.4500008      -14.3071356    
   34.5000000      -15.1464357    
   34.5499992      -15.9823580    
   34.5999985      -16.8124866    
   34.6500015      -17.6343060    
   34.7000008      -18.4452667    
   34.7500000      -19.2428780    
   34.7999992      -20.0247440    
   34.8499985      -20.7886238    
   34.9000015      -21.5324078    
   34.9500008      -22.2540722    
   35.0000000      -22.9516354    
   35.0499992      -23.6231079    
   35.0999985      -24.2664948    
   35.1500015      -24.8798256    
   35.2000008      -25.4612217    
   35.2500000      -26.0089607    
   35.2999992      -26.5215378    
   35.3499985      -26.9976883    
   35.4000015      -27.4363575    
   35.4500008      -27.8366585    
   35.5000000      -28.1978245    
   35.5499992      -28.5191631    
   35.5999985      -28.8000603    
   35.6500015      -29.0400143    
   35.7000008      -29.2386894    
   35.7500000      -29.3959732    
   35.7999992      -29.5120220    
   35.8499985      -29.5872478    
   35.9000015      -29.6222878    
   35.9500008      -29.6179447    
   36.0000000      -29.5751190    
   36.0499992      -29.4947739    
   36.0999985      -29.3779221    
   36.1500015      -29.2256527    
   36.2000008      -29.0391731    
   36.2500000      -28.8198338    
   36.2999992      -28.5691528    
   36.3499985      -28.2887840    
   36.4000015      -27.9804878    
   36.4500008      -27.6460571    
   36.5000000      -27.2872887    
   36.5499992      -26.9059639    
   36.5999985      -26.5038433    
   36.6500015      -26.0827255    
   36.7000008      -25.6444607    
   36.7500000      -25.1909828    
   36.7999992      -24.7242889    