  -6.00000000       0.00000000    
  -5.94999981       0.00000000    
  -5.90000010       0.00000000    
  -5.84999990       0.00000000    
  -5.80000019       0.00000000    
  -5.75000000       0.00000000    
  -5.69999981       0.00000000    
  -5.65000010       0.00000000    
  -5.59999990       0.00000000    
  -5.55000019       0.00000000    
  -5.50000000       0.00000000    
  -5.44999981       2.25136400E-37
  -5.40000010       1.98461242E-35
  -5.34999990       2.65907957E-34
  -5.30000019       1.82043796E-33
  -5.25000000       8.24165538E-33
  -5.19999981       2.90229026E-32
  -5.15000010       9.61988607E-32
  -5.09999990       3.48030023E-31
  -5.05000019       1.29064051E-30
  -5.00000000       4.16229459E-30
  -4.94999981       1.01635303E-29
  -4.90000010       1.44609308E-29
  -4.84999990      -1.17368849E-29
  -4.80000019      -1.50522367E-28
  -4.75000000      -5.41811279E-28
  -4.69999981      -1.25215038E-27
  -4.65000010      -1.83380944E-27
  -4.59999990      -5.30553977E-28
  -4.55000019       6.28805727E-27
  -4.50000000       2.26241117E-26
  -4.44999981       4.62626800E-26
  -4.40000010       5.53364416E-26
  -4.34999990      -6.24372698E-27
  -4.30000019      -2.22928813E-25
  -4.25000000      -6.41822114E-25
  -4.19999981      -1.11078173E-24
  -4.15000010      -1.04716276E-24
  -4.09999990       6.81128439E-25
  -4.05000019       5.36704909E-24
  -4.00000000       1.30716382E-23
  -3.95000005       2.00743517E-23
  -3.90000010       1.61655096E-23
  -3.84999990      -1.52525357E-23
  -3.79999995      -8.94266101E-23
  -3.75000000      -2.00552234E-22
  -3.70000005      -2.91824665E-22
  -3.65000010      -2.30569098E-22
  -3.59999990       1.77818008E-22
  -3.54999995       1.09174270E-21
  -3.50000000       2.42177461E-21
  -3.45000005       3.54262635E-21
  -3.40000010       3.08845209E-21
  -3.34999990      -8.68145844E-22
  -3.29999995      -9.89582259E-21
  -3.25000000      -2.33649830E-20
  -3.20000005      -3.60629292E-20
  -3.15000010      -3.65454728E-20
  -3.09999990      -8.44723385E-21
  -3.04999995       6.27637636E-20
  -3.00000000       1.76467623E-19
  -2.95000005       2.99604482E-19
  -2.90000010       3.53774782E-19
  -2.84999990       2.20792574E-19
  -2.79999995      -2.17759329E-19
  -2.75000000      -9.99371802E-19
  -2.70000005      -1.97122062E-18
  -2.65000010      -2.69790975E-18
  -2.59999990      -2.46345926E-18
  -2.54999995      -4.54999795E-19
  -2.50000000       3.82104793E-18
  -2.45000005       9.94058345E-18
  -2.40000010       1.59879074E-17
  -2.34999990       1.83738172E-17
  -2.29999995       1.24839041E-17
  -2.25000000      -5.53855736E-18
  -2.20000005      -3.59889906E-17
  -2.15000010      -7.25657163E-17
  -2.09999990      -1.00623431E-16
  -2.04999995      -9.86525112E-17
  -2.00000000      -4.45564973E-17
  -1.95000005       7.31885171E-17
  -1.89999998       2.41975184E-16
  -1.85000002       4.14562224E-16
  -1.79999995       5.09130752E-16
  -1.75000000       4.26831125E-16
  -1.70000005       8.92101916E-17
  -1.64999998      -5.10701310E-16
  -1.60000002      -1.26054840E-15
  -1.54999995      -1.90948098E-15
  -1.50000000      -2.10381427E-15
  -1.45000005      -1.49183138E-15
  -1.39999998       1.13543668E-16
  -1.35000002       2.55954044E-15
  -1.29999995       5.24144665E-15
  -1.25000000       7.13885636E-15
  -1.20000005       7.05895066E-15
  -1.14999998       4.07737012E-15
  -1.10000002      -1.93009946E-15
  -1.04999995      -9.86555198E-15
  -1.00000000      -1.73402146E-14
 -0.949999988      -2.11498316E-14
 -0.899999976      -1.83173890E-14
 -0.850000024      -7.47144215E-15
 -0.800000012       9.93047367E-15
 -0.750000000       2.91629683E-14
 -0.699999988       4.31058421E-14
 -0.649999976       4.45550985E-14
 -0.600000024       2.94601379E-14
 -0.550000012      -9.08785818E-17
 -0.500000000      -3.46947745E-14
 -0.449999988      -5.96000435E-14
 -0.400000006      -6.01640862E-14
 -0.349999994      -2.95465489E-14
 -0.300000012       2.43161018E-14
 -0.250000000       7.64042827E-14
 -0.200000003       9.03949089E-14
 -0.150000006       3.34420093E-14
 -0.100000001      -1.03277013E-13
  -5.00000007E-02  -2.86003561E-13
   0.00000000      -4.32420592E-13
   5.00000007E-02  -4.27829240E-13
  0.100000001      -1.66856654E-13
  0.150000006       3.86743290E-13
  0.200000003       1.14207634E-12
  0.250000000       1.85370187E-12
  0.300000012       2.15331507E-12
  0.349999994       1.65528864E-12
  0.400000006       1.24034761E-13
  0.449999988      -2.34247994E-12
  0.500000000      -5.18707082E-12
  0.550000012      -7.40770292E-12
  0.600000024      -7.76983512E-12
  0.649999976      -5.21492441E-12
  0.699999988       6.21079793E-13
  0.750000000       8.94824926E-12
  0.800000012       1.76369717E-11
  0.850000024       2.34954192E-11
  0.899999976       2.30859897E-11
  0.949999988       1.39677575E-11
   1.00000000      -3.96296147E-12
   1.04999995      -2.75249389E-11
   1.10000002      -5.02150266E-11
   1.14999998      -6.34301570E-11
   1.20000005      -5.89296320E-11
   1.25000000      -3.20315302E-11
   1.29999995       1.54199448E-11
   1.35000002       7.35163388E-11
   1.39999998       1.25228980E-10
   1.45000005       1.50289142E-10
   1.50000000       1.31495745E-10
   1.54999995       6.18720561E-11
   1.60000002      -4.97097398E-11
   1.64999998      -1.76963805E-10
   1.70000005      -2.80457657E-10
   1.75000000      -3.17843696E-10
   1.79999995      -2.58031263E-10
   1.85000002      -9.52633042E-11
   1.89999998       1.42015219E-10
   1.95000005       3.92092608E-10
   2.00000000       5.72982828E-10
   2.04999995       6.05942352E-10
   2.09999990       4.43778042E-10
   2.15000010       9.50361942E-11
   2.20000005      -3.65563968E-10
   2.25000000      -8.07489242E-10
   2.29999995      -1.07680298E-09
   2.34999990      -1.04427356E-09
   2.40000010      -6.55728694E-10
   2.45000005       3.26767814E-11
   2.50000000       8.50117809E-10
   2.54999995       1.54598911E-09
   2.59999990       1.86014115E-09
   2.65000010       1.61113223E-09
   2.70000005       7.75058129E-10
   2.75000000      -4.74860429E-10
   2.79999995      -1.78992288E-09
   2.84999990      -2.73346012E-09
   2.90000010      -2.91628321E-09
   2.95000005      -2.14145990E-09
   3.00000000      -5.08862896E-10
   3.04999995       1.56536073E-09
   3.09999990       3.43750783E-09
   3.15000010       4.42205028E-09
   3.20000005       4.02633527E-09
   3.25000000       2.15958207E-09
   3.29999995      -7.63298369E-10
   3.34999990      -3.87964105E-09
   3.40000010      -6.10769080E-09
   3.45000005      -6.49526832E-09
   3.50000000      -4.58516070E-09
   3.54999995      -6.68930522E-10
   3.59999990       4.18261248E-09
   3.65000010       8.36413694E-09
   3.70000005       1.02180762E-08
   3.75000000       8.62447713E-09
   3.79999995       3.50602569E-09
   3.84999990      -3.94876665E-09
   3.90000010      -1.14760130E-08
   3.95000005      -1.63481300E-08
   4.00000000      -1.62650871E-08
   4.05000019      -1.02582511E-08
   4.09999990       7.12633286E-10
   4.15000010       1.37369431E-08
   4.19999981       2.46168170E-08
   4.25000000       2.91057614E-08
   4.30000019       2.43888607E-08
   4.34999990       1.03280522E-08
   4.40000010      -1.00042366E-08
   4.44999981      -3.08128669E-08
   4.50000000      -4.50956108E-08
   4.55000019      -4.68369556E-08
   4.59999990      -3.32370611E-08
   4.65000010      -6.21437302E-09
   4.69999981       2.74534457E-08
   4.75000000       5.76205359E-08
   4.80000019       7.36497867E-08
   4.84999990       6.79174477E-08
   4.90000010       3.88547434E-08
   4.94999981      -7.57429852E-09
   5.00000000      -5.86971396E-08
   5.05000019      -9.83295507E-08
   5.09999990      -1.11625894E-07
   5.15000010      -9.02025477E-08
   5.19999981      -3.58641330E-08
   5.25000000       3.85074266E-08
   5.30000019       1.11595206E-07
   5.34999990       1.59435459E-07
   5.40000010       1.62869611E-07
   5.44999981       1.14430840E-07
   5.50000000       2.23315322E-08
   5.55000019      -9.01253685E-08
   5.59999990      -1.90095292E-07
   5.65000010      -2.44506765E-07
   5.69999981      -2.30573065E-07
   5.75000000      -1.44239891E-07
   5.80000019      -3.60757535E-09
   5.84999990       1.54331303E-07
   5.90000010       2.83309220E-07
   5.94999981       3.41332623E-07
   6.00000000       3.04218418E-07
   6.05000019       1.74785086E-07
   6.09999990      -1.56495794E-08
   6.15000010      -2.14640281E-07
   6.19999981      -3.63273955E-07
   6.25000000      -4.14040159E-07
   6.30000019      -3.46450776E-07
   6.34999990      -1.75223832E-07
   6.40000010       5.21559080E-08
   6.44999981       2.68481614E-07
   6.50000000       4.07001920E-07
   6.55000019       4.22673395E-07
   6.59999990       3.07644797E-07
   6.65000010       9.55482449E-08
   6.69999981      -1.47505801E-07
   6.75000000      -3.43070099E-07
   6.80000019      -4.25629707E-07
   6.84999990      -3.64881629E-07
   6.90000010      -1.77383328E-07
   6.94999981       7.69793473E-08
   7.00000000       3.13397550E-07
   7.05000019       4.50012067E-07
   7.09999990       4.36237201E-07
   7.15000010       2.71752640E-07
   7.19999981       8.94888519E-09
   7.25000000      -2.63111502E-07
   7.30000019      -4.48782629E-07
   7.34999990      -4.80212748E-07
   7.40000010      -3.43927894E-07
   7.44999981      -8.93123158E-08
   7.50000000       1.85704693E-07
   7.55000019       3.68603054E-07
   7.59999990       3.75220850E-07
   7.65000010       1.86605305E-07
   7.69999981      -1.34806939E-07
   7.75000000      -4.58407783E-07
   7.80000019      -6.27061752E-07
   7.84999990      -5.15656211E-07
   7.90000010      -8.72679564E-08
   7.94999981       5.74214937E-07
   8.00000000       1.27078033E-06
   8.05000019       1.74031925E-06
   8.10000038       1.73925218E-06
   8.14999962       1.13392844E-06
   8.19999981      -2.97003346E-08
   8.25000000      -1.50575056E-06
   8.30000019      -2.89234004E-06
   8.35000038      -3.73521016E-06
   8.39999962      -3.66584004E-06
   8.44999981      -2.53384428E-06
   8.50000000      -4.89739193E-07
   8.55000019       2.01563967E-06
   8.60000038       4.32631623E-06
   8.64999962       5.75329477E-06
   8.69999981       5.77928722E-06
   8.75000000       4.23601477E-06
   8.80000019       1.39570716E-06
   8.85000038      -2.06131131E-06
   8.89999962      -5.20656931E-06
   8.94999981      -7.11529492E-06
   9.00000000      -7.14240377E-06
   9.05000019      -5.14068688E-06
   9.10000038      -1.54913175E-06
   9.14999962       2.68751501E-06
   9.19999981       6.35863898E-06
   9.25000000       8.32819660E-06
   9.30000019       7.88102534E-06
   9.35000038       4.97069823E-06
   9.39999962       2.86072463E-07
   9.44999981      -4.89770628E-06
   9.50000000      -9.05527668E-06
   9.55000019      -1.08469676E-05
   9.60000038      -9.53087238E-06
   9.64999962      -5.22601567E-06
   9.69999981       1.06199866E-06
   9.75000000       7.67583424E-06
   9.80000019       1.27479998E-05
   9.85000038       1.47302890E-05
   9.89999962       1.28592701E-05
   9.94999981       7.41696340E-06
   10.0000000      -3.00158234E-07
   10.0500002      -8.30789213E-06
   10.1000004      -1.44728938E-05
   10.1499996      -1.71127267E-05
   10.1999998      -1.54829431E-05
   10.2500000      -1.00044681E-05
   10.3000002      -2.15743034E-06
   10.3500004       5.93459572E-06
   10.3999996       1.21124804E-05
   10.4499998       1.48034933E-05
   10.5000000       1.34712654E-05
   10.5500002       8.75648220E-06
   10.6000004       2.26303587E-06
   10.6499996      -3.94748167E-06
   10.6999998      -7.99907502E-06
   10.7500000      -8.78349601E-06
   10.8000002      -6.29851320E-06
   10.8500004      -1.63350478E-06
   10.8999996       3.39650978E-06
   10.9499998       6.85534906E-06
   11.0000000       7.33709430E-06
   11.0500002       4.45380601E-06
   11.1000004      -1.00303873E-06
   11.1499996      -7.28824398E-06
   11.1999998      -1.22523670E-05
   11.2500000      -1.40443553E-05
   11.3000002      -1.17415821E-05
   11.3500004      -5.69821941E-06
   11.3999996       2.51191591E-06
   11.4499998       1.05533154E-05
   11.5000000       1.60515247E-05
   11.5500002       1.73532426E-05
   11.6000004       1.40762950E-05
   11.6499996       7.26236976E-06
   11.6999998      -9.30567126E-07
   11.7500000      -7.90995091E-06
   11.8000002      -1.14917120E-05
   11.8500004      -1.06312154E-05
   11.8999996      -5.79574680E-06
   11.9499998       1.15759462E-06
   12.0000000       7.57489897E-06
   12.0500002       1.08870763E-05
   12.1000004       9.49362311E-06
   12.1499996       3.34931246E-06
   12.1999998      -5.95770007E-06
   12.2500000      -1.56845181E-05
   12.3000002      -2.28288627E-05
   12.3500004      -2.51505608E-05
   12.3999996      -2.19686390E-05
   12.4499998      -1.44399710E-05
   12.5000000      -5.18680599E-06
   12.5500002       2.64155437E-06
   12.6000004       6.58258750E-06
   12.6499996       5.93864024E-06
   12.6999998       2.31847071E-06
   12.7500000      -6.09583594E-07
   12.8000002       1.84417479E-06
   12.8500004       1.38317509E-05
   12.8999996       3.73672119E-05
   12.9499998       7.12337205E-05
   13.0000000       1.10839726E-04
   13.0500002       1.49202067E-04
   13.1000004       1.78885311E-04
   13.1499996       1.94396081E-04
   13.1999998       1.94330249E-04
   13.2500000       1.82571093E-04
   13.3000002       1.68060054E-04
   13.3500004       1.63054225E-04
   13.3999996       1.80241143E-04
   13.4499998       2.29462938E-04
   13.5000000       3.14987585E-04
   13.5500002       4.34182177E-04
   13.6000004       5.78096369E-04
   13.6499996       7.33939291E-04
   13.6999998       8.88883253E-04
   13.7500000       1.03419891E-03
   13.8000002       1.16857735E-03
   13.8500004       1.29966310E-03
   13.8999996       1.44328736E-03
   13.9499998       1.62053434E-03
   14.0000000       1.85339130E-03
   14.0500002       2.16017803E-03
   14.1000004       2.55204900E-03
   14.1499996       3.03159724E-03
   14.1999998       3.59401223E-03
   14.2500000       4.23052721E-03
   14.3000002       4.93323384E-03
   14.3500004       5.69993164E-03
   14.3999996       6.53766328E-03
   14.4499998       7.46395998E-03
   14.5000000       8.50548036E-03
   14.5500002       9.69449710E-03
   14.6000004       1.10643152E-02
   14.6499996       1.26450155E-02
   14.6999998       1.44608291E-02
   14.7500000       1.65299531E-02
   14.8000002       1.88668519E-02
   14.8500004       2.14863643E-02
   14.8999996       2.44083516E-02
   14.9499998       2.76614595E-02
   15.0000000       3.12848575E-02
   15.0500002       3.53274122E-02
   15.1000004       3.98446061E-02
   15.1499996       4.48942110E-02
   15.1999998       5.05321398E-02
   15.2500000       5.68099506E-02
   15.3000002       6.37748465E-02
   15.3500004       7.14724064E-02
   15.3999996       7.99512267E-02
   15.4499998       8.92682597E-02
   15.5000000       9.94929373E-02
   15.5500002      0.110708937    
   15.6000004      0.123012736    
   15.6499996      0.136509359    
   15.6999998      0.151306272    
   15.7500000      0.167507321    
   15.8000002      0.185208634    
   15.8500004      0.204497620    
   15.8999996      0.225455552    
   15.9499998      0.248163283    
   16.0000000      0.272708148    
   16.0499992      0.299190104    
   16.1000004      0.327725470    
   16.1499996      0.358446181    
   16.2000008      0.391495287    
   16.2500000      0.427019000    
   16.2999992      0.465157896    
   16.3500004      0.506038785    
   16.3999996      0.549770355    
   16.4500008      0.596442699    
   16.5000000      0.646131754    
   16.5499992      0.698906243    
   16.6000004      0.754835784    
   16.6499996      0.813997567    
   16.7000008      0.876479030    
   16.7500000      0.942376673    
   16.7999992       1.01178956    
   16.8500004       1.08481061    
   16.8999996       1.16151762    
   16.9500008       1.24196458    
   17.0000000       1.32617831    
   17.0499992       1.41415703    
   17.1000004       1.50587511    
   17.1499996       1.60128844    
   17.2000008       1.70034099    
   17.2500000       1.80296850    
   17.2999992       1.90910113    
   17.3500004       2.01866055    
   17.3999996       2.13155699    
   17.4500008       2.24768209    
   17.5000000       2.36690664    
   17.5499992       2.48907614    
   17.6000004       2.61401320    
   17.6499996       2.74151874    
   17.7000008       2.87137604    
   17.7500000       3.00335550    
   17.7999992       3.13721561    
   17.8500004       3.27270389    
   17.8999996       3.40955353    
   17.9500008       3.54748034    
   18.0000000       3.68618131    
   18.0499992       3.82533431    
   18.1000004       3.96460080    
   18.1499996       4.10363293    
   18.2000008       4.24208164    
   18.2500000       4.37960339    
   18.2999992       4.51586866    
   18.3500004       4.65056324    
   18.3999996       4.78338480    
   18.4500008       4.91403723    
   18.5000000       5.04222345    
   18.5499992       5.16763830    
   18.6000004       5.28996277    
   18.6499996       5.40887260    
   18.7000008       5.52403927    
   18.7500000       5.63514614    
   18.7999992       5.74190092    
   18.8500004       5.84405041    
   18.8999996       5.94138384    
   18.9500008       6.03373623    
   19.0000000       6.12098169    
   19.0499992       6.20302439    
   19.1000004       6.27978516    
   19.1499996       6.35119247    
   19.2000008       6.41717768    
   19.2500000       6.47767496    
   19.2999992       6.53262997    
   19.3500004       6.58201027    
   19.3999996       6.62581491    
   19.4500008       6.66408443    
   19.5000000       6.69690275    
   19.5499992       6.72439575    
   19.6000004       6.74671984    
   19.6499996       6.76405573    
   19.7000008       6.77659178    
   19.7500000       6.78452158    
   19.7999992       6.78803730    
   19.8500004       6.78733683    
   19.8999996       6.78262520    
   19.9500008       6.77412415    
   20.0000000       6.76207924    
   20.0499992       6.74675703    
   20.1000004       6.72844553    
   20.1499996       6.70744324    
   20.2000008       6.68405056    
   20.2500000       6.65856218    
   20.2999992       6.63125563    
   20.3500004       6.60239458    
   20.3999996       6.57222843    
   20.4500008       6.54099989    
   20.5000000       6.50895214    
   20.5499992       6.47633266    
   20.6000004       6.44339514    
   20.6499996       6.41039419    
   20.7000008       6.37757826    
   20.7500000       6.34518051    
   20.7999992       6.31340933    
   20.8500004       6.28244543    
   20.8999996       6.25244188    
   20.9500008       6.22352934    
   21.0000000       6.19582605    
   21.0499992       6.16944456    
   21.1000004       6.14449835    
   21.1499996       6.12110376    
   21.2000008       6.09937382    
   21.2500000       6.07941246    
   21.2999992       6.06130266    
   21.3500004       6.04509926    
   21.3999996       6.03082705    
   21.4500008       6.01848412    
   21.5000000       6.00804996    
   21.5499992       5.99949932    
   21.6000004       5.99281311    
   21.6499996       5.98798704    
   21.7000008       5.98503351    
   21.7500000       5.98397684    
   21.7999992       5.98483706    
   21.8500004       5.98761940    
   21.8999996       5.99229860    
   21.9500008       5.99881315    
   22.0000000       6.00706482    
   22.0499992       6.01693153    
   22.1000004       6.02828264    
   22.1499996       6.04100037    
   22.2000008       6.05499458    
   22.2500000       6.07021379    
   22.2999992       6.08664560    
   22.3500004       6.10430336    
   22.3999996       6.12321329    
   22.4500008       6.14339066    
   22.5000000       6.16482210    
   22.5499992       6.18745756    
   22.6000004       6.21120548    
   22.6499996       6.23594427    
   22.7000008       6.26153755    
   22.7500000       6.28785372    
   22.7999992       6.31478357    
   22.8500004       6.34225225    
   22.8999996       6.37022161    
   22.9500008       6.39868546    
   23.0000000       6.42765999    
   23.0499992       6.45716715    
   23.1000004       6.48722363    
   23.1499996       6.51783228    
   23.2000008       6.54897690    
   23.2500000       6.58062315    
   23.2999992       6.61272430    
   23.3500004       6.64522505    
   23.3999996       6.67806959    
   23.4500008       6.71120262    
   23.5000000       6.74457121    
   23.5499992       6.77812767    
   23.6000004       6.81182957    
   23.6499996       6.84564352    
   23.7000008       6.87954998    
   23.7500000       6.91354752    
   23.7999992       6.94765329    
   23.8500004       6.98190308    
   23.8999996       7.01634407    
   23.9500008       7.05102539    
   24.0000000       7.08598280    
   24.0499992       7.12122869    
   24.1000004       7.15674210    
   24.1499996       7.19247198    
   24.2000008       7.22834110    
   24.2500000       7.26426506    
   24.2999992       7.30016708    
   24.3500004       7.33599758    
   24.3999996       7.37174654    
   24.4500008       7.40744543    
   24.5000000       7.44315863    
   24.5499992       7.47897196    
   24.6000004       7.51496935    
   24.6499996       7.55121517    
   24.7000008       7.58774042    
   24.7500000       7.62453747    
   24.7999992       7.66156149    
   24.8500004       7.69874525    
   24.8999996       7.73601294    
   24.9500008       7.77330160    
   25.0000000       7.81057072    
   25.0499992       7.84780884    
   25.1000004       7.88503599    
   25.1499996       7.92229319    
   25.2000008       7.95963097    
   25.2500000       7.99710035    
   25.2999992       8.03473473    
   25.3500004       8.07255173    
   25.3999996       8.11054611    
   25.4500008       8.14869785    
   25.5000000       8.18697453    
   25.5499992       8.22534561    
   25.6000004       8.26378918    
   25.6499996       8.30229378    
   25.7000008       8.34085846    
   25.7500000       8.37949657    
   25.7999992       8.41822147    
   25.8500004       8.45704651    
   25.8999996       8.49597263    
   25.9500008       8.53499413    
   26.0000000       8.57409191    
   26.0499992       8.61324883    
   26.1000004       8.65244865    
   26.1499996       8.69168949    
   26.2000008       8.73098660    
   26.2500000       8.77037334    
   26.2999992       8.80989075    
   26.3500004       8.84957981    
   26.3999996       8.88946819    
   26.4500008       8.92956066    
   26.5000000       8.96982956    
   26.5499992       9.01021957    
   26.6000004       9.05066490    
   26.6499996       9.09109592    
   26.7000008       9.13146687    
   26.7500000       9.17176628    
   26.7999992       9.21202374    
   26.8500004       9.25230408    
   26.8999996       9.29269695    
   26.9500008       9.33329582    
   27.0000000       9.37417316    
   27.0499992       9.41536808    
   27.1000004       9.45687580    
   27.1499996       9.49865246    
   27.2000008       9.54062366    
   27.2500000       9.58270454    
   27.2999992       9.62482166    
   27.3500004       9.66691971    
   27.3999996       9.70897484    
   27.4500008       9.75099564    
   27.5000000       9.79300976    
   27.5499992       9.83506298    
   27.6000004       9.87719917    
   27.6499996       9.91945744    
   27.7000008       9.96186447    
   27.7500000       10.0044289    
   27.7999992       10.0471439    
   27.8500004       10.0899887    
   27.8999996       10.1329260    
   27.9500008       10.1759100    
   28.0000000       10.2188797    
   28.0499992       10.2617779    
   28.1000004       10.3045444    
   28.1499996       10.3471279    
   28.2000008       10.3894939    
   28.2500000       10.4316225    
   28.2999992       10.4735088    
   28.3500004       10.5151596    
   28.3999996       10.5565815    
   28.4500008       10.5977764    
   28.5000000       10.6387262    
   28.5499992       10.6793919    
   28.6000004       10.7197094    
   28.6499996       10.7595930    
   28.7000008       10.7989435    
   28.7500000       10.8376493    
   28.7999992       10.8755980    
   28.8500004       10.9126787    
   28.8999996       10.9487925    
   28.9500008       10.9838448    
   29.0000000       11.0177584    
   29.0499992       11.0504637    
   29.1000004       11.0819006    
   29.1499996       11.1120119    
   29.2000008       11.1407299    
   29.2500000       11.1679678    
   29.2999992       11.1936064    
   29.3500004       11.2174902    
   29.3999996       11.2394190    
   29.4500008       11.2591562    
   29.5000000       11.2764463    
   29.5499992       11.2910290    
   29.6000004       11.3026638    
   29.6499996       11.3111391    
   29.7000008       11.3162794    
   29.7500000       11.3179369    
   29.7999992       11.3159771    
   29.8500004       11.3102541    
   29.8999996       11.3005981    
   29.9500008       11.2867994    
   30.0000000       11.2686081    
   30.0499992       11.2457485    
   30.1000004       11.2179356    
   30.1499996       11.1848879    
   30.2000008       11.1463547    
   30.2500000       11.1021128    
   30.2999992       11.0519648    
   30.3500004       10.9957333    
   30.3999996       10.9332523    
   30.4500008       10.8643637    
   30.5000000       10.7889156    
   30.5499992       10.7067795    
   30.6000004       10.6178656    
   30.6499996       10.5221300    
   30.7000008       10.4195929    
   30.7500000       10.3103285    
   30.7999992       10.1944551    
   30.8500004       10.0721235    
   30.8999996       9.94349670    
   30.9500008       9.80874252    
   31.0000000       9.66804028    
   31.0499992       9.52159023    
   31.1000004       9.36964035    
   31.1499996       9.21250439    
   31.2000008       9.05058861    
   31.2500000       8.88439083    
   31.2999992       8.71450043    
   31.3500004       8.54158974    
   31.3999996       8.36638737    
   31.4500008       8.18967152    
   31.5000000       8.01224899    
   31.5499992       7.83495903    
   31.6000004       7.65866566    
   31.6499996       7.48426628    
   31.7000008       7.31269073    
   31.7500000       7.14489841    
   31.7999992       6.98187256    
   31.8500004       6.82460785    
   31.8999996       6.67410469    
   31.9500008       6.53136349    
   32.0000000       6.39738607    
   32.0499992       6.27318239    
   32.0999985       6.15977764    
   32.1500015       6.05821562    
   32.2000008       5.96955490    
   32.2500000       5.89485788    
   32.2999992       5.83516979    
   32.3499985       5.79149199    
   32.4000015       5.76475620    
   32.4500008       5.75580311    
   32.5000000       5.76536894    
   32.5499992       5.79407930    
   32.5999985       5.84245110    
   32.6500015       5.91089869    
   32.7000008       5.99974251    
   32.7500000       6.10921812    
   32.7999992       6.23947620    
   32.8499985       6.39058828    
   32.9000015       6.56254625    
   32.9500008       6.75525951    
   33.0000000       6.96855259    
   33.0499992       7.20215559    
   33.0999985       7.45569658    
   33.1500015       7.72868872    
   33.2000008       8.02051353    
   33.2500000       8.33041477    
   33.2999992       8.65748405    
   33.3499985       9.00067043    
   33.4000015       9.35878468    
   33.4500008       9.73052216    
   33.5000000       10.1144838    
   33.5499992       10.5092020    
   33.5999985       10.9131651    
   33.6500015       11.3248272    
   33.7000008       11.7426195    
   33.7500000       12.1649485    
   33.7999992       12.5901937    
   33.8499985       13.0167093    
   33.9000015       13.4428225    
   33.9500008       13.8668375    
   34.0000000       14.2870426    
   34.0499992       14.7017212    
   34.0999985       15.1091557    
   34.1500015       15.5076408    
   34.2000008       15.8954859    
   34.2500000       16.2710304    
   34.2999992       16.6326542    
   34.3499985       16.9787922    
   34.4000015       17.3079681    
   34.4500008       17.6187954    
   34.5000000       17.9100189    
   34.5499992       18.1805134    
   34.5999985       18.4292984    
   34.6500015       18.6555290    
   34.7000008       18.8584862    
   34.7500000       19.0375633    
   34.7999992       19.1922588    
   34.8499985       19.3221550    
   34.9000015       19.4269199    
   34.9500008       19.5063171    
   35.0000000       19.5602036    
   35.0499992       19.5885410    
   35.0999985       19.5914078    
   35.1500015       19.5690002    
   35.2000008       19.5216427    
   35.2500000       19.4497929    
   35.2999992       19.3540421    
   35.3499985       19.2350979    
   35.4000015       19.0938015    
   35.4500008       18.9311047    
   35.5000000       18.7480564    
   35.5499992       18.5457802    
   35.5999985       18.3254585    
   35.6500015       18.0883026    
   35.7000008       17.8355293    
   35.7500000       17.5683460    
   35.7999992       17.2879601    
   35.8499985       16.9955559    
   35.9000015       16.6923275    
   35.9500008       16.3794785    
   36.0000000       16.0582390    
   36.0499992       15.7298679    
   36.0999985       15.3956585    
   36.1500015       15.0569334    
   36.2000008       14.7150164    
   36.2500000       14.3712244    
   36.2999992       14.0268364    
   36.3499985       13.6830740    
   36.4000015       13.3410797    
   36.4500008       13.0019016    
   36.5000000       12.6664877    
   36.5499992       12.3356876    
   36.5999985       12.0102558    
   36.6500015       11.6908722    
   36.7000008       11.3781557    
   36.7500000       11.0726814    
   36.7999992       10.7749929    