  -1.00000000      -1.01273584E-19
 -0.992999971      -1.21538909E-18
 -0.986000001      -3.20971906E-18
 -0.978999972       3.38811525E-19
 -0.972000003       2.30559060E-17
 -0.964999974       7.37720897E-17
 -0.958000004       1.30025553E-16
 -0.950999975       1.09204490E-16
 -0.944000006      -1.39529143E-16
 -0.936999977      -8.03102007E-16
 -0.930000007      -2.03397873E-15
 -0.922999978      -3.87022440E-15
 -0.916000009      -6.19071224E-15
 -0.908999979      -8.74405071E-15
 -0.902000010      -1.12657601E-14
 -0.894999981      -1.36651173E-14
 -0.888000011      -1.62266153E-14
 -0.880999982      -1.97367333E-14
 -0.874000013      -2.54322473E-14
 -0.866999984      -3.47006630E-14
 -0.860000014      -4.85629942E-14
 -0.852999985      -6.71064631E-14
 -0.846000016      -8.91324503E-14
 -0.838999987      -1.12262162E-13
 -0.832000017      -1.33572271E-13
 -0.824999988      -1.50582712E-13
 -0.818000019      -1.62213301E-13
 -0.810999990      -1.69276241E-13
 -0.804000020      -1.74213440E-13
 -0.796999991      -1.80072998E-13
 -0.790000021      -1.89045380E-13
 -0.782999992      -2.01133991E-13
 -0.776000023      -2.13606219E-13
 -0.768999994      -2.21678971E-13
 -0.762000024      -2.20436476E-13
 -0.754999995      -2.07387940E-13
 -0.748000026      -1.84610750E-13
 -0.740999997      -1.59376852E-13
 -0.734000027      -1.42657763E-13
 -0.726999998      -1.45798358E-13
 -0.720000029      -1.76554246E-13
 -0.713000000      -2.36153599E-13
 -0.705999970      -3.18808890E-13
 -0.699000001      -4.14212420E-13
 -0.691999972      -5.12334749E-13
 -0.685000002      -6.08766564E-13
 -0.677999973      -7.08343757E-13
 -0.671000004      -8.25153585E-13
 -0.663999975      -9.78236047E-13
 -0.657000005      -1.18404462E-12
 -0.649999976      -1.44835782E-12
 -0.643000007      -1.76108086E-12
 -0.635999978      -2.09671516E-12
 -0.629000008      -2.42125222E-12
 -0.621999979      -2.70362530E-12
 -0.615000010      -2.92768262E-12
 -0.607999980      -3.09998229E-12
 -0.601000011      -3.24992290E-12
 -0.593999982      -3.42141549E-12
 -0.587000012      -3.65852574E-12
 -0.579999983      -3.99001752E-12
 -0.573000014      -4.41855450E-12
 -0.565999985      -4.91896541E-12
 -0.559000015      -5.44679362E-12
 -0.551999986      -5.95435853E-12
 -0.545000017      -6.40829273E-12
 -0.537999988      -6.80151768E-12
 -0.531000018      -7.15445238E-12
 -0.523999989      -7.50455774E-12
 -0.517000020      -7.88827857E-12
 -0.509999990      -8.32302022E-12
 -0.503000021      -8.79731444E-12
 -0.495999992      -9.27440503E-12
 -0.488999993      -9.70916403E-12
 -0.481999993      -1.00725227E-11
 -0.474999994      -1.03737401E-11
 -0.467999995      -1.06706050E-11
 -0.460999995      -1.10612648E-11
 -0.453999996      -1.16581016E-11
 -0.446999997      -1.25514529E-11
 -0.439999998      -1.37759431E-11
 -0.432999998      -1.52927965E-11
 -0.425999999      -1.69966298E-11
 -0.419000000      -1.87464905E-11
 -0.412000000      -2.04116758E-11
 -0.405000001      -2.19164981E-11
 -0.398000002      -2.32677662E-11
 -0.391000003      -2.45541833E-11
 -0.384000003      -2.59169422E-11
 -0.377000004      -2.75010830E-11
 -0.370000005      -2.94046801E-11
 -0.363000005      -3.16437397E-11
 -0.356000006      -3.41454746E-11
 -0.349000007      -3.67716552E-11
 -0.342000008      -3.93621767E-11
 -0.335000008      -4.17811237E-11
 -0.328000009      -4.39460308E-11
 -0.321000010      -4.58282891E-11
 -0.314000010      -4.74245088E-11
 -0.307000011      -4.87115279E-11
 -0.300000012      -4.96058021E-11
 -0.293000013      -4.99475114E-11
 -0.286000013      -4.95211337E-11
 -0.279000014      -4.81097870E-11
 -0.272000015      -4.55663215E-11
 -0.264999986      -4.18757251E-11
 -0.257999986      -3.71838081E-11
 -0.250999987      -3.17776534E-11
 -0.244000003      -2.60196188E-11
 -0.237000003      -2.02541196E-11
 -0.230000004      -1.47166116E-11
 -0.223000005      -9.47485493E-12
 -0.216000006      -4.42095015E-12
 -0.209000006       6.85186608E-13
 -0.202000007       6.13908707E-12
 -0.194999993       1.22117082E-11
 -0.187999994       1.90955047E-11
 -0.180999994       2.68960566E-11
 -0.173999995       3.56688221E-11
 -0.166999996       4.54838354E-11
 -0.159999996       5.64888657E-11
 -0.152999997       6.89437396E-11
 -0.145999998       8.32086067E-11
 -0.138999999       9.96897634E-11
 -0.131999999       1.18764276E-10
 -0.125000000       1.40715176E-10
 -0.118000001       1.65706129E-10
 -0.111000001       1.93812480E-10
 -0.104000002       2.25101271E-10
  -9.70000029E-02   2.59736649E-10
  -9.00000036E-02   2.98074954E-10
  -8.29999968E-02   3.40716733E-10
  -7.59999976E-02   3.88499954E-10
  -6.89999983E-02   4.42438725E-10
  -6.19999990E-02   5.03634745E-10
  -5.49999997E-02   5.73195269E-10
  -4.80000004E-02   6.52191801E-10
  -4.10000011E-02   7.41675388E-10
  -3.40000018E-02   8.42746428E-10
  -2.70000007E-02   9.56651314E-10
  -1.99999996E-02   1.08487352E-09
  -1.30000003E-02   1.22918997E-09
  -6.00000005E-03   1.39167577E-09
   1.00000005E-03   1.57466662E-09
   8.00000038E-03   1.78069914E-09
   1.49999997E-02   2.01246730E-09
   2.19999999E-02   2.27282082E-09
   2.89999992E-02   2.56482391E-09
   3.59999985E-02   2.89186097E-09
   4.30000015E-02   3.25777405E-09
   5.00000007E-02   3.66698805E-09
   5.70000000E-02   4.12459888E-09
   6.40000030E-02   4.63640770E-09
   7.10000023E-02   5.20890620E-09
   7.80000016E-02   5.84923310E-09
   8.50000009E-02   6.56513377E-09
   9.20000002E-02   7.36494998E-09
   9.89999995E-02   8.25765056E-09
  0.105999999       9.25290955E-09
  0.112999998       1.03612061E-08
  0.119999997       1.15939223E-08
  0.127000004       1.29634357E-08
  0.134000003       1.44831791E-08
  0.141000003       1.61676823E-08
  0.148000002       1.80325976E-08
  0.155000001       2.00947508E-08
  0.162000000       2.23721965E-08
  0.169000000       2.48843062E-08
  0.175999999       2.76518914E-08
  0.182999998       3.06973185E-08
  0.189999998       3.40446036E-08
  0.196999997       3.77195022E-08
  0.203999996       4.17495620E-08
  0.210999995       4.61641712E-08
  0.217999995       5.09945863E-08
  0.224999994       5.62739118E-08
  0.231999993       6.20371736E-08
  0.238999993       6.83212917E-08
  0.246000007       7.51651115E-08
  0.252999991       8.26094606E-08
  0.259999990       9.06970854E-08
  0.266999990       9.94727358E-08
  0.273999989       1.08983137E-07
  0.280999988       1.19276947E-07
  0.287999988       1.30404899E-07
  0.294999987       1.42419808E-07
  0.301999986       1.55376512E-07
  0.308999985       1.69331969E-07
  0.316000015       1.84345197E-07
  0.323000014       2.00477260E-07
  0.330000013       2.17791097E-07
  0.337000012       2.36351383E-07
  0.344000012       2.56224297E-07
  0.351000011       2.77477454E-07
  0.358000010       3.00179750E-07
  0.365000010       3.24401157E-07
  0.372000009       3.50212758E-07
  0.379000008       3.77686490E-07
  0.386000007       4.06895055E-07
  0.393000007       4.37911439E-07
  0.400000006       4.70808800E-07
  0.407000005       5.05660296E-07
  0.414000005       5.42538430E-07
  0.421000004       5.81515337E-07
  0.428000003       6.22662355E-07
  0.435000002       6.66050141E-07
  0.442000002       7.11748214E-07
  0.449000001       7.59824843E-07
  0.456000000       8.10346364E-07
  0.463000000       8.63377068E-07
  0.469999999       9.18978685E-07
  0.476999998       9.77209652E-07
  0.483999997       1.03812511E-06
  0.490999997       1.10177621E-06
  0.497999996       1.16821047E-06
  0.504999995       1.23747134E-06
  0.512000024       1.30959847E-06
  0.518999994       1.38462701E-06
  0.526000023       1.46258742E-06
  0.532999992       1.54350607E-06
  0.540000021       1.62740264E-06
  0.546999991       1.71429201E-06
  0.554000020       1.80418181E-06
  0.560999990       1.89707384E-06
  0.568000019       1.99296414E-06
  0.574999988       2.09184168E-06
  0.582000017       2.19368985E-06
  0.588999987       2.29848570E-06
  0.596000016       2.40620125E-06
  0.602999985       2.51680012E-06
  0.610000014       2.63024072E-06
  0.616999984       2.74647414E-06
  0.624000013       2.86544332E-06
  0.630999982       2.98708483E-06
  0.638000011       3.11132817E-06
  0.644999981       3.23809695E-06
  0.652000010       3.36730864E-06
  0.658999979       3.49887523E-06
  0.666000009       3.63270419E-06
  0.672999978       3.76869662E-06
  0.680000007       3.90674904E-06
  0.686999977       4.04675029E-06
  0.694000006       4.18858463E-06
  0.700999975       4.33213245E-06
  0.708000004       4.47726870E-06
  0.714999974       4.62386379E-06
  0.722000003       4.77178492E-06
  0.728999972       4.92089748E-06
  0.736000001       5.07106324E-06
  0.742999971       5.22214214E-06
  0.750000000       5.37399046E-06
  0.757000029       5.52646134E-06
  0.763999999       5.67941015E-06
  0.771000028       5.83268684E-06
  0.777999997       5.98613951E-06
  0.785000026       6.13962038E-06
  0.791999996       6.29297801E-06
  0.799000025       6.44606371E-06
  0.805999994       6.59873012E-06
  0.813000023       6.75082902E-06
  0.819999993       6.90221441E-06
  0.827000022       7.05274078E-06
  0.833999991       7.20226308E-06
  0.841000021       7.35063850E-06
  0.847999990       7.49772562E-06
  0.855000019       7.64338711E-06
  0.861999989       7.78749018E-06
  0.869000018       7.92990522E-06
  0.875999987       8.07050674E-06
  0.883000016       8.20917194E-06
  0.889999986       8.34577804E-06
  0.897000015       8.48021227E-06
  0.903999984       8.61235731E-06
  0.911000013       8.74210582E-06
  0.917999983       8.86934959E-06
  0.925000012       8.99398947E-06
  0.931999981       9.11592724E-06
  0.939000010       9.23507196E-06
  0.945999980       9.35133630E-06
  0.953000009       9.46463661E-06
  0.959999979       9.57489374E-06
  0.967000008       9.68203312E-06
  0.973999977       9.78598655E-06
  0.981000006       9.88668580E-06
  0.987999976       9.98406722E-06
  0.995000005       1.00780762E-05
   1.00199997       1.01686610E-05
   1.00899994       1.02557788E-05
   1.01600003       1.03393877E-05
   1.02300000       1.04194542E-05
   1.02999997       1.04959445E-05
   1.03699994       1.05688259E-05
   1.04400003       1.06380767E-05
   1.05100000       1.07036694E-05
   1.05799997       1.07655906E-05
   1.06500006       1.08238273E-05
   1.07200003       1.08783779E-05
   1.07900000       1.09292423E-05
   1.08599997       1.09764251E-05
   1.09300005       1.10199389E-05
   1.10000002       1.10598003E-05
   1.10699999       1.10960273E-05
   1.11399996       1.11286390E-05
   1.12100005       1.11576601E-05
   1.12800002       1.11831232E-05
   1.13499999       1.12050711E-05
   1.14199996       1.12235475E-05
   1.14900005       1.12386097E-05
   1.15600002       1.12503139E-05
   1.16299999       1.12587240E-05
   1.16999996       1.12639063E-05
   1.17700005       1.12659300E-05
   1.18400002       1.12648722E-05
   1.19099998       1.12608113E-05
   1.19799995       1.12538337E-05
   1.20500004       1.12440330E-05
   1.21200001       1.12315129E-05
   1.21899998       1.12163780E-05
   1.22599995       1.11987429E-05
   1.23300004       1.11787267E-05
   1.24000001       1.11564550E-05
   1.24699998       1.11320551E-05
   1.25399995       1.11056552E-05
   1.26100004       1.10773917E-05
   1.26800001       1.10474093E-05
   1.27499998       1.10158526E-05
   1.28199995       1.09828816E-05
   1.28900003       1.09486591E-05
   1.29600000       1.09133534E-05
   1.30299997       1.08771328E-05
   1.30999994       1.08401728E-05
   1.31700003       1.08026479E-05
   1.32400000       1.07647302E-05
   1.33099997       1.07265951E-05
   1.33800006       1.06884172E-05
   1.34500003       1.06503885E-05
   1.35200000       1.06126918E-05
   1.35899997       1.05755244E-05
   1.36600006       1.05390809E-05
   1.37300003       1.05035524E-05
   1.38000000       1.04691298E-05
   1.38699996       1.04359979E-05
   1.39400005       1.04043393E-05
   1.40100002       1.03743296E-05
   1.40799999       1.03461480E-05
   1.41499996       1.03199673E-05
   1.42200005       1.02959648E-05
   1.42900002       1.02743161E-05
   1.43599999       1.02551930E-05
   1.44299996       1.02387603E-05
   1.45000005       1.02251743E-05
   1.45700002       1.02145759E-05
   1.46399999       1.02070990E-05
   1.47099996       1.02028644E-05
   1.47800004       1.02019849E-05
   1.48500001       1.02045706E-05
   1.49199998       1.02107251E-05
   1.49899995       1.02205431E-05
   1.50600004       1.02341073E-05
   1.51300001       1.02514923E-05
   1.51999998       1.02727581E-05
   1.52699995       1.02979502E-05
   1.53400004       1.03271004E-05
   1.54100001       1.03602233E-05
   1.54799998       1.03973234E-05
   1.55499995       1.04383926E-05
   1.56200004       1.04834153E-05
   1.56900001       1.05323643E-05
   1.57599998       1.05851977E-05
   1.58299994       1.06418593E-05
   1.59000003       1.07022779E-05
   1.59700000       1.07663682E-05
   1.60399997       1.08340273E-05
   1.61099994       1.09051380E-05
   1.61800003       1.09795737E-05
   1.62500000       1.10571928E-05
   1.63199997       1.11378504E-05
   1.63900006       1.12213920E-05
   1.64600003       1.13076549E-05
   1.65300000       1.13964616E-05
   1.65999997       1.14876211E-05
   1.66700006       1.15809307E-05
   1.67400002       1.16761767E-05
   1.68099999       1.17731379E-05
   1.68799996       1.18715843E-05
   1.69500005       1.19712840E-05
   1.70200002       1.20720006E-05
   1.70899999       1.21734956E-05
   1.71599996       1.22755246E-05
   1.72300005       1.23778400E-05
   1.73000002       1.24801863E-05
   1.73699999       1.25823053E-05
   1.74399996       1.26839323E-05
   1.75100005       1.27848070E-05
   1.75800002       1.28846732E-05
   1.76499999       1.29832797E-05
   1.77199996       1.30803810E-05
   1.77900004       1.31757379E-05
   1.78600001       1.32691093E-05
   1.79299998       1.33602543E-05
   1.79999995       1.34489419E-05
   1.80700004       1.35349374E-05
   1.81400001       1.36180179E-05
   1.82099998       1.36979697E-05
   1.82799995       1.37745856E-05
   1.83500004       1.38476753E-05
   1.84200001       1.39170597E-05
   1.84899998       1.39825734E-05
   1.85599995       1.40440525E-05
   1.86300004       1.41013434E-05
   1.87000000       1.41542978E-05
   1.87699997       1.42027802E-05
   1.88399994       1.42466643E-05
   1.89100003       1.42858416E-05
   1.89800000       1.43202224E-05
   1.90499997       1.43497336E-05
   1.91199994       1.43743137E-05
   1.91900003       1.43939187E-05
   1.92600000       1.44085107E-05
   1.93299997       1.44180585E-05
   1.94000006       1.44225360E-05
   1.94700003       1.44219257E-05
   1.95400000       1.44162195E-05
   1.96099997       1.44054266E-05
   1.96800005       1.43895750E-05
   1.97500002       1.43687057E-05
   1.98199999       1.43428742E-05
   1.98899996       1.43121451E-05
   1.99600005       1.42765866E-05
   2.00300002       1.42362733E-05
   2.00999999       1.41912806E-05
   2.01699996       1.41416886E-05
   2.02399993       1.40875818E-05
   2.03099990       1.40290595E-05
   2.03800011       1.39662361E-05
   2.04500008       1.38992355E-05
   2.05200005       1.38281921E-05
   2.05900002       1.37532488E-05
   2.06599998       1.36745366E-05
   2.07299995       1.35921873E-05
   2.07999992       1.35063301E-05
   2.08699989       1.34170896E-05
   2.09400010       1.33245967E-05
   2.10100007       1.32289870E-05
   2.10800004       1.31304068E-05
   2.11500001       1.30290091E-05
   2.12199998       1.29249520E-05
   2.12899995       1.28183974E-05
   2.13599992       1.27095045E-05
   2.14299989       1.25984207E-05
   2.15000010       1.24852859E-05
   2.15700006       1.23702357E-05
   2.16400003       1.22534047E-05
   2.17100000       1.21349321E-05
   2.17799997       1.20149607E-05
   2.18499994       1.18936423E-05
   2.19199991       1.17711261E-05
   2.19899988       1.16475649E-05
   2.20600009       1.15231060E-05
   2.21300006       1.13978922E-05
   2.22000003       1.12720645E-05
   2.22700000       1.11457512E-05
   2.23399997       1.10190831E-05
   2.24099994       1.08921840E-05
   2.24799991       1.07651904E-05
   2.25500011       1.06382422E-05
   2.26200008       1.05114859E-05
   2.26900005       1.03850653E-05
   2.27600002       1.02591257E-05
   2.28299999       1.01338046E-05
   2.28999996       1.00092366E-05
   2.29699993       9.88554621E-06
   2.30399990       9.76285901E-06
   2.31100011       9.64129777E-06
   2.31800008       9.52098890E-06
   2.32500005       9.40206610E-06
   2.33200002       9.28467125E-06
   2.33899999       9.16894805E-06
   2.34599996       9.05503930E-06
   2.35299993       8.94308141E-06
   2.35999990       8.83320445E-06
   2.36700010       8.72553119E-06
   2.37400007       8.62018533E-06
   2.38100004       8.51728691E-06
   2.38800001       8.41696146E-06
   2.39499998       8.31933539E-06
   2.40199995       8.22453239E-06
   2.40899992       8.13268616E-06
   2.41599989       8.04392312E-06
   2.42300010       7.95836422E-06
   2.43000007       7.87611771E-06
   2.43700004       7.79728452E-06
   2.44400001       7.72195654E-06
   2.45099998       7.65022287E-06
   2.45799994       7.58216538E-06
   2.46499991       7.51787593E-06
   2.47199988       7.45743864E-06
   2.47900009       7.40093492E-06
   2.48600006       7.34843934E-06
   2.49300003       7.30001693E-06
   2.50000000       7.25572181E-06
   2.50699997       7.21559536E-06
   2.51399994       7.17966759E-06
   2.52099991       7.14795533E-06
   2.52800012       7.12047040E-06
   2.53500009       7.09721871E-06
   2.54200006       7.07820118E-06
   2.54900002       7.06340825E-06
   2.55599999       7.05282127E-06
   2.56299996       7.04640615E-06
   2.56999993       7.04411832E-06
   2.57699990       7.04590093E-06
   2.58400011       7.05168395E-06
   2.59100008       7.06138690E-06
   2.59800005       7.07491881E-06
   2.60500002       7.09217875E-06
   2.61199999       7.11305847E-06
   2.61899996       7.13743884E-06
   2.62599993       7.16519071E-06
   2.63299990       7.19617174E-06
   2.64000010       7.23023095E-06
   2.64700007       7.26720782E-06
   2.65400004       7.30693455E-06
   2.66100001       7.34923651E-06
   2.66799998       7.39393499E-06
   2.67499995       7.44084173E-06
   2.68199992       7.48976390E-06
   2.68899989       7.54049825E-06
   2.69600010       7.59283785E-06
   2.70300007       7.64657216E-06
   2.71000004       7.70148836E-06
   2.71700001       7.75736771E-06
   2.72399998       7.81399376E-06
   2.73099995       7.87115096E-06
   2.73799992       7.92862556E-06
   2.74499989       7.98620567E-06
   2.75200009       8.04367846E-06
   2.75900006       8.10082838E-06
   2.76600003       8.15744261E-06
   2.77300000       8.21331469E-06
   2.77999997       8.26824726E-06
   2.78699994       8.32205296E-06
   2.79399991       8.37455082E-06
   2.80100012       8.42556710E-06
   2.80800009       8.47493629E-06
   2.81500006       8.52250287E-06
   2.82200003       8.56811494E-06
   2.82900000       8.61163608E-06
   2.83599997       8.65293532E-06
   2.84299994       8.69189080E-06
   2.84999990       8.72839246E-06
   2.85700011       8.76234662E-06
   2.86400008       8.79366871E-06
   2.87100005       8.82229415E-06
   2.87800002       8.84816563E-06
   2.88499999       8.87123679E-06
   2.89199996       8.89147123E-06
   2.89899993       8.90884621E-06
   2.90599990       8.92334629E-06
   2.91300011       8.93497236E-06
   2.92000008       8.94373443E-06
   2.92700005       8.94965160E-06
   2.93400002       8.95275480E-06
   2.94099998       8.95308858E-06
   2.94799995       8.95070752E-06
   2.95499992       8.94567529E-06
   2.96199989       8.93806282E-06
   2.96900010       8.92795197E-06
   2.97600007       8.91542550E-06
   2.98300004       8.90057800E-06
   2.99000001       8.88351042E-06
   2.99699998       8.86432372E-06
   3.00399995       8.84312522E-06
   3.01099992       8.82001859E-06
   3.01799989       8.79511572E-06
   3.02500010       8.76853028E-06
   3.03200006       8.74037869E-06
   3.03900003       8.71078100E-06
   3.04600000       8.67985818E-06
   3.05299997       8.64772846E-06
   3.05999994       8.61450917E-06
   3.06699991       8.58031672E-06
   3.07399988       8.54526206E-06
   3.08100009       8.50945162E-06
   3.08800006       8.47298452E-06
   3.09500003       8.43596081E-06
   3.10200000       8.39847598E-06
   3.10899997       8.36063009E-06
   3.11599994       8.32251862E-06
   3.12299991       8.28423163E-06
   3.13000011       8.24585095E-06
   3.13700008       8.20745026E-06
   3.14400005       8.16909869E-06
   3.15100002       8.13085353E-06
   3.15799999       8.09276935E-06
   3.16499996       8.05489799E-06
   3.17199993       8.01728038E-06
   3.17899990       7.97995835E-06
   3.18600011       7.94297557E-06
   3.19300008       7.90636568E-06
   3.20000005       7.87016961E-06
   3.20700002       7.83441465E-06
   3.21399999       7.79911443E-06
   3.22099996       7.76428715E-06
   3.22799993       7.72994281E-06
   3.23499990       7.69609233E-06
   3.24200010       7.66274479E-06
   3.24900007       7.62991203E-06
   3.25600004       7.59760678E-06
   3.26300001       7.56584041E-06
   3.26999998       7.53462382E-06
   3.27699995       7.50396930E-06
   3.28399992       7.47388367E-06
   3.29099989       7.44437193E-06
   3.29800010       7.41543909E-06
   3.30500007       7.38709014E-06
   3.31200004       7.35933600E-06
   3.31900001       7.33219031E-06
   3.32599998       7.30566853E-06
   3.33299994       7.27978932E-06
   3.33999991       7.25457176E-06
   3.34699988       7.23003768E-06
   3.35400009       7.20621210E-06
   3.36100006       7.18312094E-06
   3.36800003       7.16079194E-06
   3.37500000       7.13925374E-06
   3.38199997       7.11853954E-06
   3.38899994       7.09868436E-06
   3.39599991       7.07972913E-06
   3.40300012       7.06171795E-06
   3.41000009       7.04469630E-06
   3.41700006       7.02870830E-06
   3.42400002       7.01379940E-06
   3.43099999       7.00001601E-06
   3.43799996       6.98740541E-06
   3.44499993       6.97601445E-06
   3.45199990       6.96588813E-06
   3.45900011       6.95707240E-06
   3.46600008       6.94960727E-06
   3.47300005       6.94353594E-06
   3.48000002       6.93890388E-06
   3.48699999       6.93575385E-06
   3.49399996       6.93413085E-06
   3.50099993       6.93407355E-06
   3.50799990       6.93561378E-06
   3.51500010       6.93878155E-06
   3.52200007       6.94360006E-06
   3.52900004       6.95008657E-06
   3.53600001       6.95825111E-06
   3.54299998       6.96809593E-06
   3.54999995       6.97962105E-06
   3.55699992       6.99282782E-06
   3.56399989       7.00771216E-06
   3.57100010       7.02426723E-06
   3.57800007       7.04247759E-06
   3.58500004       7.06231822E-06
   3.59200001       7.08375364E-06
   3.59899998       7.10673976E-06
   3.60599995       7.13122154E-06
   3.61299992       7.15713804E-06
   3.61999989       7.18442288E-06
   3.62700009       7.21300512E-06
   3.63400006       7.24281153E-06
   3.64100003       7.27376982E-06
   3.64800000       7.30579859E-06
   3.65499997       7.33881234E-06
   3.66199994       7.37271375E-06
   3.66899991       7.40739461E-06
   3.67600012       7.44273757E-06
   3.68300009       7.47862168E-06
   3.69000006       7.51492053E-06
   3.69700003       7.55150950E-06
   3.70400000       7.58826263E-06
   3.71099997       7.62505715E-06
   3.71799994       7.66176800E-06
   3.72499990       7.69827238E-06
   3.73200011       7.73443844E-06
   3.73900008       7.77013247E-06
   3.74600005       7.80521441E-06
   3.75300002       7.83954056E-06
   3.75999999       7.87297085E-06
   3.76699996       7.90536978E-06
   3.77399993       7.93661275E-06
   3.78099990       7.96657787E-06
   3.78800011       7.99515146E-06
   3.79500008       8.02222621E-06
   3.80200005       8.04769388E-06
   3.80900002       8.07144897E-06
   3.81599998       8.09338599E-06
   3.82299995       8.11340396E-06
   3.82999992       8.13140105E-06
   3.83699989       8.14728264E-06
   3.84400010       8.16096235E-06
   3.85100007       8.17236469E-06
   3.85800004       8.18142871E-06
   3.86500001       8.18810076E-06
   3.87199998       8.19233810E-06
   3.87899995       8.19410343E-06
   3.88599992       8.19336401E-06
   3.89299989       8.19008892E-06
   3.90000010       8.18425178E-06
   3.90700006       8.17583259E-06
   3.91400003       8.16481224E-06
   3.92100000       8.15118983E-06
   3.92799997       8.13496808E-06
   3.93499994       8.11616883E-06
   3.94199991       8.09482663E-06
   3.94899988       8.07097422E-06
   3.95600009       8.04465162E-06
   3.96300006       8.01588976E-06
   3.97000003       7.98472411E-06
   3.97700000       7.95118649E-06
   3.98399997       7.91531966E-06
   3.99099994       7.87716635E-06
   3.99799991       7.83678570E-06
   4.00500011       7.79424590E-06
   4.01200008       7.74961973E-06
   4.01900005       7.70299266E-06
   4.02600002       7.65444383E-06
   4.03299999       7.60405146E-06
   4.03999996       7.55188330E-06
   4.04699993       7.49800211E-06
   4.05399990       7.44247063E-06
   4.06099987       7.38535437E-06
   4.06799984       7.32672743E-06
   4.07499981       7.26666985E-06
   4.08199978       7.20526714E-06
   4.08900023       7.14260341E-06
   4.09600019       7.07876234E-06
   4.10300016       7.01382305E-06
   4.11000013       6.94785876E-06
   4.11700010       6.88093724E-06
   4.12400007       6.81312304E-06
   4.13100004       6.74448302E-06
   4.13800001       6.67509039E-06
   4.14499998       6.60502292E-06
   4.15199995       6.53436427E-06
   4.15899992       6.46319813E-06
   4.16599989       6.39160226E-06
   4.17299986       6.31964667E-06
   4.17999983       6.24739687E-06
   4.18699980       6.17491423E-06
   4.19399977       6.10225879E-06
   4.20100021       6.02949331E-06
   4.20800018       5.95668371E-06
   4.21500015       5.88390139E-06
   4.22200012       5.81122276E-06
   4.22900009       5.73872967E-06
   4.23600006       5.66650033E-06
   4.24300003       5.59460705E-06
   4.25000000       5.52311985E-06
   4.25699997       5.45210514E-06
   4.26399994       5.38163067E-06
   4.27099991       5.31176602E-06
   4.27799988       5.24258667E-06
   4.28499985       5.17416765E-06
   4.29199982       5.10658447E-06
   4.29899979       5.03991396E-06
   4.30600023       4.97423071E-06
   4.31300020       4.90960792E-06
   4.32000017       4.84611292E-06
   4.32700014       4.78381025E-06
   4.33400011       4.72275815E-06
   4.34100008       4.66301708E-06
   4.34800005       4.60464844E-06
   4.35500002       4.54771498E-06
   4.36199999       4.49227991E-06
   4.36899996       4.43840327E-06
   4.37599993       4.38614279E-06
   4.38299990       4.33554897E-06
   4.38999987       4.28667045E-06
   4.39699984       4.23954771E-06
   4.40399981       4.19421622E-06
   4.41099977       4.15070144E-06
   4.41800022       4.10902794E-06
   4.42500019       4.06921617E-06
   4.43200016       4.03128888E-06
   4.43900013       3.99526380E-06
   4.44600010       3.96115456E-06
   4.45300007       3.92896163E-06
   4.46000004       3.89867955E-06
   4.46700001       3.87028967E-06
   4.47399998       3.84376563E-06
   4.48099995       3.81907148E-06
   4.48799992       3.79616381E-06
   4.49499989       3.77499828E-06
   4.50199986       3.75552759E-06
   4.50899982       3.73770536E-06
   4.51599979       3.72148338E-06
   4.52299976       3.70680755E-06
   4.53000021       3.69361305E-06
   4.53700018       3.68182145E-06
   4.54400015       3.67134294E-06
   4.55100012       3.66207951E-06
   4.55800009       3.65392930E-06
   4.56500006       3.64678613E-06
   4.57200003       3.64054472E-06
   4.57900000       3.63510071E-06
   4.58599997       3.63035224E-06
   4.59299994       3.62619903E-06
   4.59999990       3.62253581E-06
   4.60699987       3.61925208E-06
   4.61399984       3.61622779E-06
   4.62099981       3.61333559E-06
   4.62799978       3.61044522E-06
   4.63500023       3.60742979E-06
   4.64200020       3.60416652E-06
   4.64900017       3.60053991E-06
   4.65600014       3.59644105E-06
   4.66300011       3.59176693E-06
   4.67000008       3.58641933E-06
   4.67700005       3.58030297E-06
   4.68400002       3.57331965E-06
   4.69099998       3.56536816E-06
   4.69799995       3.55634393E-06
   4.70499992       3.54614281E-06
   4.71199989       3.53466726E-06
   4.71899986       3.52183133E-06
   4.72599983       3.50756204E-06
   4.73299980       3.49179959E-06
   4.73999977       3.47449350E-06
   4.74700022       3.45560352E-06
   4.75400019       3.43509419E-06
   4.76100016       3.41293321E-06
   4.76800013       3.38908853E-06
   4.77500010       3.36352741E-06
   4.78200006       3.33622188E-06
   4.78900003       3.30715170E-06
   4.79600000       3.27631187E-06
   4.80299997       3.24371308E-06
   4.80999994       3.20937966E-06
   4.81699991       3.17334434E-06
   4.82399988       3.13564510E-06
   4.83099985       3.09632173E-06
   4.83799982       3.05541403E-06
   4.84499979       3.01296200E-06
   4.85200024       2.96900726E-06
   4.85900021       2.92359800E-06
   4.86600018       2.87679609E-06
   4.87300014       2.82867950E-06
   4.88000011       2.77934305E-06
   4.88700008       2.72889406E-06
   4.89400005       2.67744440E-06
   4.90100002       2.62510366E-06
   4.90799999       2.57197416E-06
   4.91499996       2.51815300E-06
   4.92199993       2.46373452E-06
   4.92899990       2.40881468E-06
   4.93599987       2.35349694E-06
   4.94299984       2.29789430E-06
   4.94999981       2.24213363E-06
   4.95699978       2.18635250E-06
   4.96400023       2.13069507E-06
   4.97100019       2.07530411E-06
   4.97800016       2.02031424E-06
   4.98500013       1.96585029E-06
   4.99200010       1.91202730E-06