  -1.00000000       1.28250310E-26
 -0.992999971       2.44145982E-24
 -0.986000001       2.86288099E-23
 -0.978999972      -9.91371203E-24
 -0.972000003      -1.57434281E-21
 -0.964999974      -1.18631602E-20
 -0.958000004      -5.20445853E-20
 -0.950999975      -1.65105819E-19
 -0.944000006      -4.12865696E-19
 -0.936999977      -8.51118961E-19
 -0.930000007      -1.48279735E-18
 -0.922999978      -2.20977247E-18
 -0.916000009      -2.82271227E-18
 -0.908999979      -3.06782326E-18
 -0.902000010      -2.79659198E-18
 -0.894999981      -2.14313170E-18
 -0.888000011      -1.60985581E-18
 -0.880999982      -1.92044289E-18
 -0.874000013      -3.56168090E-18
 -0.866999984      -6.09063177E-18
 -0.860000014      -7.47877566E-18
 -0.852999985      -3.89294854E-18
 -0.846000016       9.74188475E-18
 -0.838999987       3.83388255E-17
 -0.832000017       8.47836504E-17
 -0.824999988       1.48375595E-16
 -0.818000019       2.24434270E-16
 -0.810999990       3.05575977E-16
 -0.804000020       3.84409465E-16
 -0.796999991       4.56549806E-16
 -0.790000021       5.22338802E-16
 -0.782999992       5.85881361E-16
 -0.776000023       6.51072616E-16
 -0.768999994       7.15875083E-16
 -0.762000024       7.67498142E-16
 -0.754999995       7.81502032E-16
 -0.748000026       7.26668242E-16
 -0.740999997       5.74928748E-16
 -0.734000027       3.12736026E-16
 -0.726999998      -5.15171626E-17
 -0.720000029      -4.88714135E-16
 -0.713000000      -9.60040166E-16
 -0.705999970      -1.43375171E-15
 -0.699000001      -1.89901526E-15
 -0.691999972      -2.36685485E-15
 -0.685000002      -2.85205840E-15
 -0.677999973      -3.33839190E-15
 -0.671000004      -3.73977413E-15
 -0.663999975      -3.87748305E-15
 -0.657000005      -3.49333836E-15
 -0.649999976      -2.30882653E-15
 -0.643000007      -1.22135097E-16
 -0.635999978       3.08483237E-15
 -0.629000008       7.07048005E-15
 -0.621999979       1.13281831E-14
 -0.615000010       1.51723133E-14
 -0.607999980       1.79042165E-14
 -0.601000011       1.90125405E-14
 -0.593999982       1.83399506E-14
 -0.587000012       1.61497690E-14
 -0.579999983       1.30547547E-14
 -0.573000014       9.81861280E-15
 -0.565999985       7.09188796E-15
 -0.559000015       5.17668379E-15
 -0.551999986       3.91294917E-15
 -0.545000017       2.73917199E-15
 -0.537999988       9.14390278E-16
 -0.531000018      -2.17872438E-15
 -0.523999989      -6.76947334E-15
 -0.517000020      -1.25849851E-14
 -0.509999990      -1.89401734E-14
 -0.503000021      -2.49981479E-14
 -0.495999992      -3.00860750E-14
 -0.488999993      -3.39132273E-14
 -0.481999993      -3.65664293E-14
 -0.474999994      -3.82495922E-14
 -0.467999995      -3.88565116E-14
 -0.460999995      -3.75692485E-14
 -0.453999996      -3.27081230E-14
 -0.446999997      -2.19971238E-14
 -0.439999998      -3.26043713E-15
 -0.432999998       2.46190414E-14
 -0.425999999       6.07978362E-14
 -0.419000000       1.01991773E-13
 -0.412000000       1.42691143E-13
 -0.405000001       1.76132234E-13
 -0.398000002       1.95819340E-13
 -0.391000003       1.97169090E-13
 -0.384000003       1.78758999E-13
 -0.377000004       1.42754271E-13
 -0.370000005       9.43409643E-14
 -0.363000005       4.03276621E-14
 -0.356000006      -1.26298262E-14
 -0.349000007      -5.95867146E-14
 -0.342000008      -9.81329682E-14
 -0.335000008      -1.28238647E-13
 -0.328000009      -1.51250635E-13
 -0.321000010      -1.68504872E-13
 -0.314000010      -1.80176268E-13
 -0.307000011      -1.84901763E-13
 -0.300000012      -1.80396889E-13
 -0.293000013      -1.64861858E-13
 -0.286000013      -1.38598375E-13
 -0.279000014      -1.05093919E-13
 -0.272000015      -7.09592771E-14
 -0.264999986      -4.44994519E-14
 -0.257999986      -3.32292923E-14
 -0.250999987      -4.11120316E-14
 -0.244000003      -6.65181072E-14
 -0.237000003      -1.01762701E-13
 -0.230000004      -1.34607725E-13
 -0.223000005      -1.51453503E-13
 -0.216000006      -1.41329968E-13
 -0.209000006      -9.94515546E-14
 -0.202000007      -2.91663259E-14
 -0.194999993       5.83924321E-14
 -0.187999994       1.46909801E-13
 -0.180999994       2.18962042E-13
 -0.173999995       2.60286123E-13
 -0.166999996       2.62922171E-13
 -0.159999996       2.26310317E-13
 -0.152999997       1.56151676E-13
 -0.145999998       6.16271967E-14
 -0.138999999      -4.78754575E-14
 -0.131999999      -1.65256589E-13
 -0.125000000      -2.86515711E-13
 -0.118000001      -4.09695146E-13
 -0.111000001      -5.32571058E-13
 -0.104000002      -6.50281315E-13
  -9.70000029E-02  -7.54187891E-13
  -9.00000036E-02  -8.32851203E-13
  -8.29999968E-02  -8.75169891E-13
  -7.59999976E-02  -8.74816983E-13
  -6.89999983E-02  -8.34415165E-13
  -6.19999990E-02  -7.67737219E-13
  -5.49999997E-02  -6.98681347E-13
  -4.80000004E-02  -6.56750424E-13
  -4.10000011E-02  -6.69933781E-13
  -3.40000018E-02  -7.56868797E-13
  -2.70000007E-02  -9.20577850E-13
  -1.99999996E-02  -1.14577597E-12
  -1.30000003E-02  -1.40078454E-12
  -6.00000005E-03  -1.64375338E-12
   1.00000005E-03  -1.83161797E-12
   8.00000038E-03  -1.92941583E-12
   1.49999997E-02  -1.91749589E-12
   2.19999999E-02  -1.79482785E-12
   2.89999992E-02  -1.57780928E-12
   3.59999985E-02  -1.29530414E-12
   4.30000015E-02  -9.81682726E-13
   5.00000007E-02  -6.70052338E-13
   5.70000000E-02  -3.87570401E-13
   6.40000030E-02  -1.53830412E-13
   7.10000023E-02   1.78582497E-14
   7.80000016E-02   1.17498960E-13
   8.50000009E-02   1.35496920E-13
   9.20000002E-02   6.14351980E-14
   9.89999995E-02  -1.14572983E-13
  0.105999999      -3.98161593E-13
  0.112999998      -7.85891968E-13
  0.119999997      -1.26128405E-12
  0.127000004      -1.79365702E-12
  0.134000003      -2.34104446E-12
  0.141000003      -2.85724092E-12
  0.148000002      -3.30164064E-12
  0.155000001      -3.64940023E-12
  0.162000000      -3.89899701E-12
  0.169000000      -4.07460263E-12
  0.175999999      -4.22193010E-12
  0.182999998      -4.39793688E-12
  0.189999998      -4.65660843E-12
  0.196999997      -5.03436529E-12
  0.203999996      -5.53907788E-12
  0.210999995      -6.14593706E-12
  0.217999995      -6.80166210E-12
  0.224999994      -7.43622872E-12
  0.231999993      -7.97899594E-12
  0.238999993      -8.37473407E-12
  0.246000007      -8.59483752E-12
  0.252999991      -8.64042345E-12
  0.259999990      -8.53642851E-12
  0.266999990      -8.31871811E-12
  0.273999989      -8.01850773E-12
  0.280999988      -7.64936378E-12
  0.287999988      -7.20119320E-12
  0.294999987      -6.64316952E-12
  0.301999986      -5.93410911E-12
  0.308999985      -5.03598812E-12
  0.316000015      -3.92460803E-12
  0.323000014      -2.59214980E-12
  0.330000013      -1.03906781E-12
  0.337000012       7.43016054E-13
  0.344000012       2.79181539E-12
  0.351000011       5.19049820E-12
  0.358000010       8.07230324E-12
  0.365000010       1.16094270E-11
  0.372000009       1.59882940E-11
  0.379000008       2.13778960E-11
  0.386000007       2.79022326E-11
  0.393000007       3.56276987E-11
  0.400000006       4.45724811E-11
  0.407000005       5.47380336E-11
  0.414000005       6.61552479E-11
  0.421000004       7.89323398E-11
  0.428000003       9.32897440E-11
  0.435000002       1.09570485E-10
  0.442000002       1.28222488E-10
  0.449000001       1.49759719E-10
  0.456000000       1.74715090E-10
  0.463000000       2.03603384E-10
  0.469999999       2.36908243E-10
  0.476999998       2.75100748E-10
  0.483999997       3.18685300E-10
  0.490999997       3.68258452E-10
  0.497999996       4.24561525E-10
  0.504999995       4.88511065E-10
  0.512000024       5.61195701E-10
  0.518999994       6.43845532E-10
  0.526000023       7.37787109E-10
  0.532999992       8.44406822E-10
  0.540000021       9.65142855E-10
  0.546999991       1.10151621E-09
  0.554000020       1.25519983E-09
  0.560999990       1.42810563E-09
  0.568000019       1.62246772E-09
  0.574999988       1.84089310E-09
  0.582000017       2.08636886E-09
  0.588999987       2.36222308E-09
  0.596000016       2.67205791E-09
  0.602999985       3.01968295E-09
  0.610000014       3.40908635E-09
  0.616999984       3.84445320E-09
  0.624000013       4.33024772E-09
  0.630999982       4.87133445E-09
  0.638000011       5.47311085E-09
  0.644999981       6.14160944E-09
  0.652000010       6.88356128E-09
  0.658999979       7.70639019E-09
  0.666000009       8.61816840E-09
  0.672999978       9.62755209E-09
  0.680000007       1.07437446E-08
  0.686999977       1.19765025E-08
  0.694000006       1.33362130E-08
  0.700999975       1.48340211E-08
  0.708000004       1.64819713E-08
  0.714999974       1.82931306E-08
  0.722000003       2.02816572E-08
  0.728999972       2.24628085E-08
  0.736000001       2.48528647E-08
  0.742999971       2.74690546E-08
  0.750000000       3.03294989E-08
  0.757000029       3.34531904E-08
  0.763999999       3.68600652E-08
  0.771000028       4.05711411E-08
  0.777999997       4.46086794E-08
  0.785000026       4.89963377E-08
  0.791999996       5.37592619E-08
  0.799000025       5.89240834E-08
  0.805999994       6.45188507E-08
  0.813000023       7.05728738E-08
  0.819999993       7.71166739E-08
  0.827000022       8.41817993E-08
  0.833999991       9.18009206E-08
  0.841000021       1.00007796E-07
  0.847999990       1.08837483E-07
  0.855000019       1.18326433E-07
  0.861999989       1.28512539E-07
  0.869000018       1.39435073E-07
  0.875999987       1.51134628E-07
  0.883000016       1.63652771E-07
  0.889999986       1.77031993E-07
  0.897000015       1.91315408E-07
  0.903999984       2.06546673E-07
  0.911000013       2.22769941E-07
  0.917999983       2.40029863E-07
  0.925000012       2.58371614E-07
  0.931999981       2.77840854E-07
  0.939000010       2.98483684E-07
  0.945999980       3.20346373E-07
  0.953000009       3.43474994E-07
  0.959999979       3.67915192E-07
  0.967000008       3.93711844E-07
  0.973999977       4.20908805E-07
  0.981000006       4.49548793E-07
  0.987999976       4.79673190E-07
  0.995000005       5.11322241E-07
   1.00199997       5.44534430E-07
   1.00899994       5.79346988E-07
   1.01600003       6.15794931E-07
   1.02300000       6.53911286E-07
   1.02999997       6.93726292E-07
   1.03699994       7.35267065E-07
   1.04400003       7.78557421E-07
   1.05100000       8.23617654E-07
   1.05799997       8.70464305E-07
   1.06500006       9.19109993E-07
   1.07200003       9.69563416E-07
   1.07900000       1.02182912E-06
   1.08599997       1.07590768E-06
   1.09300005       1.13179465E-06
   1.10000002       1.18948117E-06
   1.10699999       1.24895257E-06
   1.11399996       1.31018930E-06
   1.12100005       1.37316590E-06
   1.12800002       1.43785132E-06
   1.13499999       1.50420885E-06
   1.14199996       1.57219642E-06
   1.14900005       1.64176606E-06
   1.15600002       1.71286479E-06
   1.16299999       1.78543394E-06
   1.16999996       1.85940883E-06
   1.17700005       1.93471919E-06
   1.18400002       2.01128910E-06
   1.19099998       2.08903725E-06
   1.19799995       2.16787566E-06
   1.20500004       2.24771293E-06
   1.21200001       2.32845036E-06
   1.21899998       2.40998679E-06
   1.22599995       2.49221512E-06
   1.23300004       2.57502597E-06
   1.24000001       2.65830499E-06
   1.24699998       2.74193553E-06
   1.25399995       2.82579595E-06
   1.26100004       2.90976232E-06
   1.26800001       2.99370845E-06
   1.27499998       3.07750429E-06
   1.28199995       3.16101864E-06
   1.28900003       3.24412099E-06
   1.29600000       3.32667810E-06
   1.30299997       3.40855877E-06
   1.30999994       3.48963067E-06
   1.31700003       3.56976238E-06
   1.32400000       3.64882362E-06
   1.33099997       3.72668546E-06
   1.33800006       3.80322012E-06
   1.34500003       3.87830278E-06
   1.35200000       3.95181223E-06
   1.35899997       4.02362957E-06
   1.36600006       4.09364111E-06
   1.37300003       4.16173771E-06
   1.38000000       4.22781341E-06
   1.38699996       4.29176998E-06
   1.39400005       4.35351285E-06
   1.40100002       4.41295379E-06
   1.40799999       4.47000730E-06
   1.41499996       4.52459653E-06
   1.42200005       4.57665101E-06
   1.42900002       4.62610433E-06
   1.43599999       4.67290147E-06
   1.44299996       4.71699195E-06
   1.45000005       4.75833667E-06
   1.45700002       4.79690061E-06
   1.46399999       4.83265831E-06
   1.47099996       4.86558974E-06
   1.47800004       4.89567856E-06
   1.48500001       4.92291838E-06
   1.49199998       4.94730784E-06
   1.49899995       4.96885605E-06
   1.50600004       4.98757981E-06
   1.51300001       5.00350279E-06
   1.51999998       5.01665772E-06
   1.52699995       5.02708144E-06
   1.53400004       5.03481715E-06
   1.54100001       5.03991305E-06
   1.54799998       5.04242007E-06
   1.55499995       5.04239870E-06
   1.56200004       5.03990987E-06
   1.56900001       5.03502406E-06
   1.57599998       5.02781404E-06
   1.58299994       5.01836121E-06
   1.59000003       5.00674969E-06
   1.59700000       4.99306771E-06
   1.60399997       4.97740575E-06
   1.61099994       4.95985614E-06
   1.61800003       4.94051210E-06
   1.62500000       4.91946957E-06
   1.63199997       4.89682452E-06
   1.63900006       4.87267789E-06
   1.64600003       4.84713200E-06
   1.65300000       4.82029009E-06
   1.65999997       4.79225810E-06
   1.66700006       4.76314062E-06
   1.67400002       4.73304044E-06
   1.68099999       4.70206078E-06
   1.68799996       4.67029986E-06
   1.69500005       4.63785545E-06
   1.70200002       4.60482488E-06
   1.70899999       4.57130272E-06
   1.71599996       4.53738494E-06
   1.72300005       4.50316566E-06
   1.73000002       4.46873582E-06
   1.73699999       4.43418503E-06
   1.74399996       4.39959786E-06
   1.75100005       4.36505388E-06
   1.75800002       4.33062860E-06
   1.76499999       4.29639158E-06
   1.77199996       4.26240967E-06
   1.77900004       4.22874336E-06
   1.78600001       4.19545222E-06
   1.79299998       4.16258945E-06
   1.79999995       4.13020598E-06
   1.80700004       4.09834729E-06
   1.81400001       4.06705385E-06
   1.82099998       4.03635568E-06
   1.82799995       4.00627732E-06
   1.83500004       3.97683607E-06
   1.84200001       3.94804101E-06
   1.84899998       3.91989488E-06
   1.85599995       3.89239949E-06
   1.86300004       3.86554802E-06
   1.87000000       3.83933184E-06
   1.87699997       3.81373320E-06
   1.88399994       3.78872915E-06
   1.89100003       3.76428784E-06
   1.89800000       3.74036995E-06
   1.90499997       3.71692749E-06
   1.91199994       3.69390523E-06
   1.91900003       3.67124244E-06
   1.92600000       3.64887524E-06
   1.93299997       3.62673381E-06
   1.94000006       3.60474519E-06
   1.94700003       3.58283273E-06
   1.95400000       3.56091391E-06
   1.96099997       3.53889982E-06
   1.96800005       3.51669632E-06
   1.97500002       3.49420429E-06
   1.98199999       3.47131959E-06
   1.98899996       3.44793602E-06
   1.99600005       3.42394674E-06
   2.00300002       3.39924622E-06
   2.00999999       3.37373058E-06
   2.01699996       3.34729725E-06
   2.02399993       3.31984484E-06
   2.03099990       3.29127170E-06
   2.03800011       3.26147619E-06
   2.04500008       3.23035965E-06
   2.05200005       3.19782271E-06
   2.05900002       3.16377236E-06
   2.06599998       3.12811812E-06
   2.07299995       3.09077836E-06
   2.07999992       3.05168032E-06
   2.08699989       3.01075920E-06
   2.09400010       2.96796111E-06
   2.10100007       2.92323989E-06
   2.10800004       2.87655689E-06
   2.11500001       2.82788187E-06
   2.12199998       2.77719437E-06
   2.12899995       2.72448256E-06
   2.13599992       2.66974689E-06
   2.14299989       2.61300056E-06
   2.15000010       2.55427153E-06
   2.15700006       2.49360210E-06
   2.16400003       2.43104978E-06
   2.17100000       2.36668507E-06
   2.17799997       2.30059231E-06
   2.18499994       2.23286634E-06
   2.19199991       2.16361445E-06
   2.19899988       2.09295308E-06
   2.20600009       2.02101114E-06
   2.21300006       1.94793029E-06
   2.22000003       1.87386570E-06
   2.22700000       1.79898450E-06
   2.23399997       1.72346813E-06
   2.24099994       1.64751009E-06
   2.24799991       1.57131524E-06
   2.25500011       1.49509674E-06
   2.26200008       1.41907503E-06
   2.26900005       1.34347499E-06
   2.27600002       1.26852706E-06
   2.28299999       1.19446509E-06
   2.28999996       1.12152782E-06
   2.29699993       1.04995638E-06
   2.30399990       9.79996116E-07
   2.31100011       9.11895427E-07
   2.31800008       8.45905447E-07
   2.32500005       7.82277255E-07
   2.33200002       7.21259937E-07
   2.33899999       6.63097182E-07
   2.34599996       6.08026426E-07
   2.35299993       5.56276461E-07
   2.35999990       5.08067160E-07
   2.36700010       4.63609666E-07
   2.37400007       4.23106400E-07
   2.38100004       3.86750571E-07
   2.38800001       3.54727007E-07
   2.39499998       3.27210472E-07
   2.40199995       3.04364562E-07
   2.40899992       2.86338178E-07
   2.41599989       2.73263225E-07
   2.42300010       2.65252311E-07
   2.43000007       2.62399112E-07
   2.43700004       2.64778549E-07
   2.44400001       2.72447920E-07
   2.45099998       2.85448522E-07
   2.45799994       3.03806388E-07
   2.46499991       3.27533400E-07
   2.47199988       3.56626714E-07
   2.47900009       3.91067459E-07
   2.48600006       4.30817465E-07
   2.49300003       4.75817615E-07
   2.50000000       5.25986763E-07
   2.50699997       5.81221570E-07
   2.51399994       6.41399538E-07
   2.52099991       7.06382082E-07
   2.52800012       7.76016748E-07
   2.53500009       8.50140111E-07
   2.54200006       9.28578288E-07
   2.54900002       1.01114654E-06
   2.55599999       1.09764756E-06
   2.56299996       1.18787148E-06
   2.56999993       1.28159297E-06
   2.57699990       1.37857239E-06
   2.58400011       1.47855553E-06
   2.59100008       1.58127841E-06
   2.59800005       1.68647216E-06
   2.60500002       1.79386552E-06
   2.61199999       1.90318804E-06
   2.61899996       2.01416833E-06
   2.62599993       2.12653390E-06
   2.63299990       2.24000905E-06
   2.64000010       2.35431730E-06
   2.64700007       2.46917693E-06
   2.65400004       2.58430509E-06
   2.66100001       2.69941779E-06
   2.66799998       2.81423399E-06
   2.67499995       2.92848131E-06
   2.68199992       3.04189939E-06
   2.68899989       3.15423858E-06
   2.69600010       3.26526106E-06
   2.70300007       3.37473625E-06
   2.71000004       3.48243884E-06
   2.71700001       3.58814896E-06
   2.72399998       3.69165332E-06
   2.73099995       3.79274798E-06
   2.73799992       3.89123852E-06
   2.74499989       3.98694374E-06
   2.75200009       4.07969810E-06
   2.75900006       4.16935609E-06
   2.76600003       4.25579174E-06
   2.77300000       4.33889318E-06
   2.77999997       4.41856309E-06
   2.78699994       4.49471008E-06
   2.79399991       4.56725411E-06
   2.80100012       4.63612241E-06
   2.80800009       4.70125678E-06
   2.81500006       4.76261221E-06
   2.82200003       4.82015912E-06
   2.82900000       4.87388661E-06
   2.83599997       4.92379695E-06
   2.84299994       4.96991015E-06
   2.84999990       5.01225850E-06
   2.85700011       5.05088337E-06
   2.86400008       5.08583344E-06
   2.87100005       5.11716098E-06
   2.87800002       5.14492422E-06
   2.88499999       5.16919272E-06
   2.89199996       5.19004789E-06
   2.89899993       5.20758249E-06
   2.90599990       5.22190021E-06
   2.91300011       5.23311292E-06
   2.92000008       5.24134020E-06
   2.92700005       5.24670622E-06
   2.93400002       5.24933830E-06
   2.94099998       5.24936240E-06
   2.94799995       5.24690586E-06
   2.95499992       5.24209054E-06
   2.96199989       5.23504468E-06
   2.96900010       5.22589789E-06
   2.97600007       5.21478569E-06
   2.98300004       5.20184403E-06
   2.99000001       5.18721072E-06
   2.99699998       5.17101716E-06
   3.00399995       5.15339343E-06
   3.01099992       5.13446503E-06
   3.01799989       5.11435383E-06
   3.02500010       5.09317442E-06
   3.03200006       5.07103596E-06
   3.03900003       5.04804302E-06
   3.04600000       5.02429930E-06
   3.05299997       4.99990847E-06
   3.05999994       4.97496876E-06
   3.06699991       4.94957067E-06
   3.07399988       4.92379741E-06
   3.08100009       4.89772037E-06
   3.08800006       4.87140505E-06
   3.09500003       4.84490920E-06
   3.10200000       4.81828602E-06
   3.10899997       4.79158143E-06
   3.11599994       4.76483274E-06
   3.12299991       4.73807177E-06
   3.13000011       4.71132898E-06
   3.13700008       4.68462804E-06
   3.14400005       4.65798712E-06
   3.15100002       4.63141259E-06
   3.15799999       4.60490401E-06
   3.16499996       4.57845226E-06
   3.17199993       4.55204554E-06
   3.17899990       4.52567110E-06
   3.18600011       4.49931122E-06
   3.19300008       4.47294315E-06
   3.20000005       4.44654052E-06
   3.20700002       4.42007240E-06
   3.21399999       4.39350470E-06
   3.22099996       4.36680102E-06
   3.22799993       4.33992182E-06
   3.23499990       4.31282251E-06
   3.24200010       4.28545718E-06
   3.24900007       4.25777716E-06
   3.25600004       4.22973608E-06
   3.26300001       4.20128799E-06
   3.26999998       4.17238925E-06
   3.27699995       4.14298938E-06
   3.28399992       4.11303608E-06
   3.29099989       4.08248070E-06
   3.29800010       4.05127867E-06
   3.30500007       4.01938405E-06
   3.31200004       3.98675775E-06
   3.31900001       3.95336247E-06
   3.32599998       3.91915910E-06
   3.33299994       3.88411763E-06
   3.33999991       3.84820942E-06
   3.34699988       3.81140740E-06
   3.35400009       3.77368679E-06
   3.36100006       3.73502235E-06
   3.36800003       3.69539498E-06
   3.37500000       3.65479150E-06
   3.38199997       3.61320826E-06
   3.38899994       3.57064823E-06
   3.39599991       3.52711731E-06
   3.40300012       3.48262438E-06
   3.41000009       3.43718193E-06
   3.41700006       3.39080566E-06
   3.42400002       3.34351785E-06
   3.43099999       3.29534578E-06
   3.43799996       3.24631947E-06
   3.44499993       3.19647529E-06
   3.45199990       3.14585577E-06
   3.45900011       3.09451252E-06
   3.46600008       3.04250307E-06
   3.47300005       2.98988948E-06
   3.48000002       2.93673406E-06
   3.48699999       2.88310116E-06
   3.49399996       2.82905785E-06
   3.50099993       2.77467871E-06
   3.50799990       2.72004377E-06
   3.51500010       2.66523830E-06
   3.52200007       2.61034893E-06
   3.52900004       2.55546342E-06
   3.53600001       2.50067251E-06
   3.54299998       2.44607168E-06
   3.54999995       2.39175824E-06
   3.55699992       2.33782930E-06
   3.56399989       2.28438216E-06
   3.57100010       2.23151346E-06
   3.57800007       2.17932438E-06
   3.58500004       2.12791861E-06
   3.59200001       2.07740163E-06
   3.59899998       2.02787646E-06
   3.60599995       1.97944132E-06
   3.61299992       1.93218989E-06
   3.61999989       1.88621539E-06
   3.62700009       1.84161001E-06
   3.63400006       1.79846404E-06
   3.64100003       1.75686341E-06
   3.64800000       1.71688851E-06
   3.65499997       1.67861515E-06
   3.66199994       1.64211667E-06
   3.66899991       1.60746390E-06
   3.67600012       1.57472221E-06
   3.68300009       1.54394945E-06
   3.69000006       1.51519509E-06
   3.69700003       1.48850290E-06
   3.70400000       1.46391278E-06
   3.71099997       1.44146043E-06
   3.71799994       1.42117483E-06
   3.72499990       1.40307509E-06
   3.73200011       1.38716985E-06
   3.73900008       1.37346058E-06
   3.74600005       1.36194262E-06
   3.75300002       1.35260609E-06
   3.75999999       1.34543427E-06
   3.76699996       1.34040135E-06
   3.77399993       1.33747221E-06
   3.78099990       1.33660558E-06
   3.78800011       1.33775541E-06
   3.79500008       1.34086940E-06
   3.80200005       1.34588686E-06
   3.80900002       1.35273763E-06
   3.81599998       1.36134406E-06
   3.82299995       1.37162374E-06
   3.82999992       1.38349242E-06
   3.83699989       1.39686381E-06
   3.84400010       1.41164742E-06
   3.85100007       1.42774627E-06
   3.85800004       1.44505907E-06
   3.86500001       1.46348077E-06
   3.87199998       1.48290621E-06
   3.87899995       1.50322830E-06
   3.88599992       1.52433597E-06
   3.89299989       1.54611496E-06
   3.90000010       1.56844976E-06
   3.90700006       1.59122737E-06
   3.91400003       1.61433832E-06
   3.92100000       1.63767561E-06
   3.92799997       1.66113193E-06
   3.93499994       1.68459871E-06
   3.94199991       1.70796864E-06
   3.94899988       1.73113801E-06
   3.95600009       1.75400896E-06
   3.96300006       1.77648747E-06
   3.97000003       1.79848325E-06
   3.97700000       1.81991027E-06
   3.98399997       1.84068858E-06
   3.99099994       1.86074783E-06
   3.99799991       1.88002662E-06
   4.00500011       1.89846992E-06
   4.01200008       1.91602544E-06
   4.01900005       1.93264327E-06
   4.02600002       1.94827930E-06
   4.03299999       1.96289648E-06
   4.03999996       1.97646614E-06
   4.04699993       1.98896805E-06
   4.05399990       2.00038789E-06
   4.06099987       2.01071771E-06
   4.06799984       2.01995772E-06
   4.07499981       2.02811634E-06
   4.08199978       2.03520881E-06
   4.08900023       2.04125126E-06
   4.09600019       2.04626099E-06
   4.10300016       2.05025663E-06
   4.11000013       2.05326228E-06
   4.11700010       2.05531251E-06
   4.12400007       2.05645006E-06
   4.13100004       2.05672586E-06
   4.13800001       2.05619472E-06
   4.14499998       2.05491210E-06
   4.15199995       2.05293645E-06
   4.15899992       2.05032529E-06
   4.16599989       2.04713410E-06
   4.17299986       2.04341359E-06
   4.17999983       2.03921127E-06
   4.18699980       2.03457489E-06
   4.19399977       2.02955835E-06
   4.20100021       2.02422279E-06
   4.20800018       2.01863259E-06
   4.21500015       2.01285070E-06
   4.22200012       2.00693603E-06
   4.22900009       2.00093973E-06
   4.23600006       1.99490660E-06
   4.24300003       1.98887665E-06
   4.25000000       1.98288308E-06
   4.25699997       1.97695636E-06
   4.26399994       1.97112445E-06
   4.27099991       1.96541623E-06
   4.27799988       1.95986422E-06
   4.28499985       1.95450025E-06
   4.29199982       1.94935228E-06
   4.29899979       1.94444010E-06
   4.30600023       1.93977121E-06
   4.31300020       1.93534538E-06
   4.32000017       1.93115693E-06
   4.32700014       1.92719949E-06
   4.33400011       1.92346533E-06
   4.34100008       1.91994513E-06
   4.34800005       1.91663185E-06
   4.35500002       1.91351751E-06
   4.36199999       1.91059462E-06
   4.36899996       1.90785295E-06
   4.37599993       1.90527419E-06
   4.38299990       1.90283185E-06
   4.38999987       1.90049366E-06
   4.39699984       1.89822538E-06
   4.40399981       1.89599507E-06
   4.41099977       1.89377511E-06
   4.41800022       1.89154059E-06
   4.42500019       1.88926879E-06
   4.43200016       1.88693821E-06
   4.43900013       1.88452896E-06
   4.44600010       1.88202159E-06
   4.45300007       1.87939554E-06
   4.46000004       1.87662636E-06
   4.46700001       1.87368732E-06
   4.47399998       1.87055161E-06
   4.48099995       1.86719728E-06
   4.48799992       1.86360933E-06
   4.49499989       1.85977854E-06
   4.50199986       1.85569945E-06
   4.50899982       1.85136901E-06
   4.51599979       1.84678527E-06
   4.52299976       1.84194926E-06
   4.53000021       1.83686234E-06
   4.53700018       1.83152758E-06
   4.54400015       1.82594692E-06
   4.55100012       1.82012479E-06
   4.55800009       1.81406926E-06
   4.56500006       1.80779659E-06
   4.57200003       1.80132929E-06
   4.57900000       1.79469430E-06
   4.58599997       1.78791913E-06
   4.59299994       1.78103107E-06
   4.59999990       1.77405616E-06
   4.60699987       1.76702110E-06
   4.61399984       1.75995285E-06
   4.62099981       1.75287789E-06
   4.62799978       1.74582419E-06
   4.63500023       1.73882199E-06
   4.64200020       1.73190676E-06
   4.64900017       1.72511898E-06
   4.65600014       1.71850195E-06
   4.66300011       1.71209899E-06
   4.67000008       1.70594910E-06
   4.67700005       1.70008809E-06
   4.68400002       1.69454927E-06
   4.69099998       1.68936594E-06
   4.69799995       1.68457188E-06
   4.70499992       1.68020154E-06
   4.71199989       1.67629037E-06
   4.71899986       1.67287556E-06
   4.72599983       1.66999621E-06
   4.73299980       1.66769235E-06
   4.73999977       1.66600103E-06
   4.74700022       1.66495363E-06
   4.75400019       1.66457539E-06
   4.76100016       1.66488701E-06
   4.76800013       1.66590701E-06
   4.77500010       1.66765403E-06
   4.78200006       1.67014730E-06
   4.78900003       1.67340500E-06
   4.79600000       1.67744406E-06
   4.80299997       1.68227928E-06
   4.80999994       1.68792394E-06
   4.81699991       1.69438761E-06
   4.82399988       1.70167493E-06
   4.83099985       1.70978410E-06
   4.83799982       1.71870818E-06
   4.84499979       1.72843761E-06
   4.85200024       1.73896240E-06
   4.85900021       1.75027265E-06
   4.86600018       1.76235665E-06
   4.87300014       1.77520030E-06
   4.88000011       1.78878418E-06
   4.88700008       1.80308473E-06
   4.89400005       1.81807479E-06
   4.90100002       1.83372322E-06
   4.90799999       1.84999340E-06
   4.91499996       1.86684372E-06
   4.92199993       1.88422905E-06
   4.92899990       1.90210244E-06
   4.93599987       1.92041625E-06
   4.94299984       1.93912092E-06
   4.94999981       1.95816347E-06
   4.95699978       1.97748636E-06
   4.96400023       1.99702686E-06
   4.97100019       2.01672037E-06
   4.97800016       2.03650120E-06
   4.98500013       2.05630386E-06
   4.99200010       2.07606126E-06