  -1.00000000      -2.03859551E-21
 -0.992999971      -3.61395565E-20
 -0.986000001       1.72930968E-18
 -0.978999972       2.07166954E-17
 -0.972000003       1.07581449E-16
 -0.964999974       3.49957194E-16
 -0.958000004       8.14303965E-16
 -0.950999975       1.43530082E-15
 -0.944000006       1.93169485E-15
 -0.936999977       1.83773412E-15
 -0.930000007       6.50670752E-16
 -0.922999978      -2.01932379E-15
 -0.916000009      -6.42855444E-15
 -0.908999979      -1.28262667E-14
 -0.902000010      -2.16030874E-14
 -0.894999981      -3.33053999E-14
 -0.888000011      -4.84669881E-14
 -0.880999982      -6.73376421E-14
 -0.874000013      -8.96129687E-14
 -0.866999984      -1.14205520E-13
 -0.860000014      -1.39078920E-13
 -0.852999985      -1.61264787E-13
 -0.846000016      -1.77279930E-13
 -0.838999987      -1.84051586E-13
 -0.832000017      -1.80107326E-13
 -0.824999988      -1.66446379E-13
 -0.818000019      -1.46524299E-13
 -0.810999990      -1.25247414E-13
 -0.804000020      -1.07469501E-13
 -0.796999991      -9.67541206E-14
 -0.790000021      -9.49177125E-14
 -0.782999992      -1.02362129E-13
 -0.776000023      -1.18865258E-13
 -0.768999994      -1.44503807E-13
 -0.762000024      -1.80512750E-13
 -0.754999995      -2.29847039E-13
 -0.748000026      -2.97034831E-13
 -0.740999997      -3.86961811E-13
 -0.734000027      -5.02777290E-13
 -0.726999998      -6.43898726E-13
 -0.720000029      -8.05432327E-13
 -0.713000000      -9.79734089E-13
 -0.705999970      -1.15957970E-12
 -0.699000001      -1.34139054E-12
 -0.691999972      -1.52692821E-12
 -0.685000002      -1.72277752E-12
 -0.677999973      -1.93804283E-12
 -0.671000004      -2.18120357E-12
 -0.663999975      -2.45701571E-12
 -0.657000005      -2.76414959E-12
 -0.649999976      -3.09437805E-12
 -0.643000007      -3.43421320E-12
 -0.635999978      -3.76932730E-12
 -0.629000008      -4.09070651E-12
 -0.621999979      -4.40005454E-12
 -0.615000010      -4.71175529E-12
 -0.607999980      -5.05009749E-12
 -0.601000011      -5.44283498E-12
 -0.593999982      -5.91379159E-12
 -0.587000012      -6.47726881E-12
 -0.579999983      -7.13575466E-12
 -0.573000014      -7.88109768E-12
 -0.565999985      -8.69862602E-12
 -0.559000015      -9.57344620E-12
 -0.551999986      -1.04976982E-11
 -0.545000017      -1.14766616E-11
 -0.537999988      -1.25310873E-11
 -0.531000018      -1.36942740E-11
 -0.523999989      -1.50048030E-11
 -0.517000020      -1.64982385E-11
 -0.509999990      -1.82016520E-11
 -0.503000021      -2.01330098E-11
 -0.495999992      -2.23044951E-11
 -0.488999993      -2.47270017E-11
 -0.481999993      -2.74130319E-11
 -0.474999994      -3.03765901E-11
 -0.467999995      -3.36301438E-11
 -0.460999995      -3.71792666E-11
 -0.453999996      -4.10159684E-11
 -0.446999997      -4.51127087E-11
 -0.439999998      -4.94202526E-11
 -0.432999998      -5.38725904E-11
 -0.425999999      -5.84000417E-11
 -0.419000000      -6.29476055E-11
 -0.412000000      -6.74924214E-11
 -0.405000001      -7.20539808E-11
 -0.398000002      -7.66930894E-11
 -0.391000003      -8.15009518E-11
 -0.384000003      -8.65823663E-11
 -0.377000004      -9.20381549E-11
 -0.370000005      -9.79509460E-11
 -0.363000005      -1.04377215E-10
 -0.356000006      -1.11347119E-10
 -0.349000007      -1.18872537E-10
 -0.342000008      -1.26960428E-10
 -0.335000008      -1.35626316E-10
 -0.328000009      -1.44901660E-10
 -0.321000010      -1.54831328E-10
 -0.314000010      -1.65463004E-10
 -0.307000011      -1.76834242E-10
 -0.300000012      -1.88963761E-10
 -0.293000013      -2.01851161E-10
 -0.286000013      -2.15485560E-10
 -0.279000014      -2.29858438E-10
 -0.272000015      -2.44977011E-10
 -0.264999986      -2.60873656E-10
 -0.257999986      -2.77608603E-10
 -0.250999987      -2.95262786E-10
 -0.244000003      -3.13921750E-10
 -0.237000003      -3.33652772E-10
 -0.230000004      -3.54482721E-10
 -0.223000005      -3.76384729E-10
 -0.216000006      -3.99279443E-10
 -0.209000006      -4.23051372E-10
 -0.202000007      -4.47574283E-10
 -0.194999993      -4.72736683E-10
 -0.187999994      -4.98462382E-10
 -0.180999994      -5.24722044E-10
 -0.173999995      -5.51536761E-10
 -0.166999996      -5.78973536E-10
 -0.159999996      -6.07136397E-10
 -0.152999997      -6.36153852E-10
 -0.145999998      -6.66169342E-10
 -0.138999999      -6.97336411E-10
 -0.131999999      -7.29821481E-10
 -0.125000000      -7.63806185E-10
 -0.118000001      -7.99488475E-10
 -0.111000001      -8.37073022E-10
 -0.104000002      -8.76754225E-10
  -9.70000029E-02  -9.18696286E-10
  -9.00000036E-02  -9.63016666E-10
  -8.29999968E-02  -1.00977937E-09
  -7.59999976E-02  -1.05900122E-09
  -6.89999983E-02  -1.11066967E-09
  -6.19999990E-02  -1.16476773E-09
  -5.49999997E-02  -1.22130384E-09
  -4.80000004E-02  -1.28033961E-09
  -4.10000011E-02  -1.34201039E-09
  -3.40000018E-02  -1.40653555E-09
  -2.70000007E-02  -1.47421486E-09
  -1.99999996E-02  -1.54541491E-09
  -1.30000003E-02  -1.62055813E-09
  -6.00000005E-03  -1.70011716E-09
   1.00000005E-03  -1.78461979E-09
   8.00000038E-03  -1.87466531E-09
   1.49999997E-02  -1.97093608E-09
   2.19999999E-02  -2.07420303E-09
   2.89999992E-02  -2.18531770E-09
   3.59999985E-02  -2.30519914E-09
   4.30000015E-02  -2.43481968E-09
   5.00000007E-02  -2.57518584E-09
   5.70000000E-02  -2.72733502E-09
   6.40000030E-02  -2.89233548E-09
   7.10000023E-02  -3.07130388E-09
   7.80000016E-02  -3.26544858E-09
   8.50000009E-02  -3.47611695E-09
   9.20000002E-02  -3.70484821E-09
   9.89999995E-02  -3.95341182E-09
  0.105999999      -4.22381818E-09
  0.112999998      -4.51832793E-09
  0.119999997      -4.83943863E-09
  0.127000004      -5.18987919E-09
  0.134000003      -5.57260549E-09
  0.141000003      -5.99078565E-09
  0.148000002      -6.44780407E-09
  0.155000001      -6.94725566E-09
  0.162000000      -7.49295559E-09
  0.169000000      -8.08896328E-09
  0.175999999      -8.73960371E-09
  0.182999998      -9.44947143E-09
  0.189999998      -1.02234159E-08
  0.196999997      -1.10665832E-08
  0.203999996      -1.19844072E-08
  0.210999995      -1.29826248E-08
  0.217999995      -1.40672922E-08
  0.224999994      -1.52447868E-08
  0.231999993      -1.65217759E-08
  0.238999993      -1.79052293E-08
  0.246000007      -1.94024192E-08
  0.252999991      -2.10208650E-08
  0.259999990      -2.27683543E-08
  0.266999990      -2.46529339E-08
  0.273999989      -2.66828977E-08
  0.280999988      -2.88667934E-08
  0.287999988      -3.12134141E-08
  0.294999987      -3.37317267E-08
  0.301999986      -3.64308583E-08
  0.308999985      -3.93200246E-08
  0.316000015      -4.24084519E-08
  0.323000014      -4.57053666E-08
  0.330000013      -4.92198069E-08
  0.337000012      -5.29606012E-08
  0.344000012      -5.69363117E-08
  0.351000011      -6.11551627E-08
  0.358000010      -6.56250592E-08
  0.365000010      -7.03534440E-08
  0.372000009      -7.53472662E-08
  0.379000008      -8.06129847E-08
  0.386000007      -8.61564331E-08
  0.393000007      -9.19827059E-08
  0.400000006      -9.80960735E-08
  0.407000005      -1.04499776E-07
  0.414000005      -1.11196051E-07
  0.421000004      -1.18185795E-07
  0.428000003      -1.25468645E-07
  0.435000002      -1.33042576E-07
  0.442000002      -1.40903879E-07
  0.449000001      -1.49047040E-07
  0.456000000      -1.57464299E-07
  0.463000000      -1.66145639E-07
  0.469999999      -1.75078654E-07
  0.476999998      -1.84248705E-07
  0.483999997      -1.93638655E-07
  0.490999997      -2.03228794E-07
  0.497999996      -2.12996767E-07
  0.504999995      -2.22917919E-07
  0.512000024      -2.32964965E-07
  0.518999994      -2.43107763E-07
  0.526000023      -2.53313402E-07
  0.532999992      -2.63545900E-07
  0.540000021      -2.73766489E-07
  0.546999991      -2.83933389E-07
  0.554000020      -2.94001467E-07
  0.560999990      -3.03922747E-07
  0.568000019      -3.13646211E-07
  0.574999988      -3.23118144E-07
  0.582000017      -3.32281587E-07
  0.588999987      -3.41076628E-07
  0.596000016      -3.49440199E-07
  0.602999985      -3.57306504E-07
  0.610000014      -3.64607274E-07
  0.616999984      -3.71271682E-07
  0.624000013      -3.77226968E-07
  0.630999982      -3.82398412E-07
  0.638000011      -3.86709672E-07
  0.644999981      -3.90082732E-07
  0.652000010      -3.92438409E-07
  0.658999979      -3.93696411E-07
  0.666000009      -3.93775821E-07
  0.672999978      -3.92594728E-07
  0.680000007      -3.90071392E-07
  0.686999977      -3.86124270E-07
  0.694000006      -3.80672248E-07
  0.700999975      -3.73635288E-07
  0.708000004      -3.64934806E-07
  0.714999974      -3.54494375E-07
  0.722000003      -3.42240668E-07
  0.728999972      -3.28102516E-07
  0.736000001      -3.12011252E-07
  0.742999971      -2.93900769E-07
  0.750000000      -2.73709503E-07
  0.757000029      -2.51380271E-07
  0.763999999      -2.26859910E-07
  0.771000028      -2.00099464E-07
  0.777999997      -1.71055859E-07
  0.785000026      -1.39691011E-07
  0.791999996      -1.05974287E-07
  0.799000025      -6.98810041E-08
  0.805999994      -3.13924033E-08
  0.813000023       9.50337409E-09
  0.819999993       5.28118669E-08
  0.827000022       9.85302577E-08
  0.833999991       1.46647466E-07
  0.841000021       1.97144956E-07
  0.847999990       2.49997612E-07
  0.855000019       3.05172335E-07
  0.861999989       3.62628242E-07
  0.869000018       4.22315821E-07
  0.875999987       4.84178940E-07
  0.883000016       5.48155754E-07
  0.889999986       6.14178077E-07
  0.897000015       6.82171105E-07
  0.903999984       7.52051108E-07
  0.911000013       8.23726793E-07
  0.917999983       8.97100790E-07
  0.925000012       9.72072485E-07
  0.931999981       1.04853484E-06
  0.939000010       1.12637520E-06
  0.945999980       1.20547134E-06
  0.953000009       1.28569820E-06
  0.959999979       1.36692893E-06
  0.967000008       1.44903709E-06
  0.973999977       1.53189387E-06
  0.981000006       1.61536605E-06
  0.987999976       1.69931593E-06
  0.995000005       1.78360472E-06
   1.00199997       1.86809473E-06
   1.00899994       1.95265397E-06
   1.01600003       2.03715058E-06
   1.02300000       2.12145164E-06
   1.02999997       2.20542483E-06
   1.03699994       2.28894032E-06
   1.04400003       2.37187669E-06
   1.05100000       2.45411957E-06
   1.05799997       2.53555822E-06
   1.06500006       2.61608307E-06
   1.07200003       2.69558836E-06
   1.07900000       2.77397476E-06
   1.08599997       2.85115311E-06
   1.09300005       2.92704340E-06
   1.10000002       3.00157467E-06
   1.10699999       3.07468122E-06
   1.11399996       3.14630006E-06
   1.12100005       3.21638049E-06
   1.12800002       3.28488545E-06
   1.13499999       3.35179084E-06
   1.14199996       3.41707482E-06
   1.14900005       3.48072126E-06
   1.15600002       3.54272197E-06
   1.16299999       3.60307945E-06
   1.16999996       3.66180757E-06
   1.17700005       3.71893202E-06
   1.18400002       3.77448418E-06
   1.19099998       3.82849839E-06
   1.19799995       3.88101898E-06
   1.20500004       3.93209530E-06
   1.21200001       3.98179054E-06
   1.21899998       4.03017384E-06
   1.22599995       4.07731432E-06
   1.23300004       4.12328518E-06
   1.24000001       4.16816511E-06
   1.24699998       4.21203913E-06
   1.25399995       4.25500093E-06
   1.26100004       4.29715010E-06
   1.26800001       4.33858122E-06
   1.27499998       4.37938252E-06
   1.28199995       4.41964721E-06
   1.28900003       4.45947262E-06
   1.29600000       4.49895924E-06
   1.30299997       4.53819894E-06
   1.30999994       4.57727492E-06
   1.31700003       4.61627269E-06
   1.32400000       4.65528183E-06
   1.33099997       4.69438464E-06
   1.33800006       4.73366345E-06
   1.34500003       4.77319008E-06
   1.35200000       4.81302823E-06
   1.35899997       4.85323744E-06
   1.36600006       4.89387230E-06
   1.37300003       4.93498419E-06
   1.38000000       4.97661495E-06
   1.38699996       5.01879276E-06
   1.39400005       5.06153947E-06
   1.40100002       5.10486916E-06
   1.40799999       5.14879412E-06
   1.41499996       5.19332480E-06
   1.42200005       5.23845756E-06
   1.42900002       5.28417922E-06
   1.43599999       5.33046386E-06
   1.44299996       5.37728101E-06
   1.45000005       5.42460430E-06
   1.45700002       5.47239642E-06
   1.46399999       5.52061192E-06
   1.47099996       5.56919485E-06
   1.47800004       5.61808383E-06
   1.48500001       5.66721474E-06
   1.49199998       5.71652345E-06
   1.49899995       5.76594630E-06
   1.50600004       5.81540689E-06
   1.51300001       5.86481974E-06
   1.51999998       5.91409616E-06
   1.52699995       5.96315749E-06
   1.53400004       6.01192505E-06
   1.54100001       6.06032063E-06
   1.54799998       6.10825964E-06
   1.55499995       6.15564977E-06
   1.56200004       6.20240280E-06
   1.56900001       6.24844051E-06
   1.57599998       6.29368651E-06
   1.58299994       6.33806712E-06
   1.59000003       6.38149777E-06
   1.59700000       6.42389523E-06
   1.60399997       6.46518993E-06
   1.61099994       6.50532229E-06
   1.61800003       6.54423820E-06
   1.62500000       6.58187901E-06
   1.63199997       6.61818467E-06
   1.63900006       6.65309972E-06
   1.64600003       6.68657867E-06
   1.65300000       6.71858834E-06
   1.65999997       6.74909461E-06
   1.66700006       6.77806565E-06
   1.67400002       6.80546873E-06
   1.68099999       6.83128474E-06
   1.68799996       6.85549639E-06
   1.69500005       6.87809825E-06
   1.70200002       6.89908666E-06
   1.70899999       6.91845844E-06
   1.71599996       6.93620723E-06
   1.72300005       6.95233530E-06
   1.73000002       6.96685493E-06
   1.73699999       6.97978567E-06
   1.74399996       6.99114480E-06
   1.75100005       7.00095325E-06
   1.75800002       7.00923010E-06
   1.76499999       7.01600220E-06
   1.77199996       7.02130137E-06
   1.77900004       7.02516263E-06
   1.78600001       7.02762281E-06
   1.79299998       7.02871375E-06
   1.79999995       7.02847046E-06
   1.80700004       7.02693342E-06
   1.81400001       7.02415173E-06
   1.82099998       7.02017496E-06
   1.82799995       7.01504950E-06
   1.83500004       7.00881583E-06
   1.84200001       7.00151531E-06
   1.84899998       6.99319844E-06
   1.85599995       6.98391977E-06
   1.86300004       6.97373480E-06
   1.87000000       6.96269171E-06
   1.87699997       6.95084464E-06
   1.88399994       6.93824995E-06
   1.89100003       6.92497133E-06
   1.89800000       6.91107562E-06
   1.90499997       6.89662193E-06
   1.91199994       6.88166756E-06
   1.91900003       6.86627163E-06
   1.92600000       6.85049599E-06
   1.93299997       6.83440066E-06
   1.94000006       6.81804840E-06
   1.94700003       6.80150561E-06
   1.95400000       6.78484093E-06
   1.96099997       6.76811896E-06
   1.96800005       6.75141155E-06
   1.97500002       6.73478417E-06
   1.98199999       6.71830503E-06
   1.98899996       6.70204508E-06
   1.99600005       6.68607026E-06
   2.00300002       6.67044469E-06
   2.00999999       6.65522884E-06
   2.01699996       6.64048275E-06
   2.02399993       6.62627463E-06
   2.03099990       6.61266813E-06
   2.03800011       6.59972329E-06
   2.04500008       6.58749195E-06
   2.05200005       6.57602277E-06
   2.05900002       6.56536213E-06
   2.06599998       6.55555868E-06
   2.07299995       6.54665791E-06
   2.07999992       6.53869665E-06
   2.08699989       6.53170673E-06
   2.09400010       6.52572044E-06
   2.10100007       6.52076551E-06
   2.10800004       6.51686605E-06
   2.11500001       6.51403479E-06
   2.12199998       6.51227674E-06
   2.12899995       6.51158553E-06
   2.13599992       6.51194932E-06
   2.14299989       6.51335449E-06
   2.15000010       6.51578193E-06
   2.15700006       6.51920163E-06
   2.16400003       6.52358312E-06
   2.17100000       6.52888866E-06
   2.17799997       6.53508096E-06
   2.18499994       6.54211362E-06
   2.19199991       6.54993073E-06
   2.19899988       6.55846134E-06
   2.20600009       6.56762631E-06
   2.21300006       6.57735245E-06
   2.22000003       6.58756198E-06
   2.22700000       6.59816851E-06
   2.23399997       6.60907926E-06
   2.24099994       6.62019374E-06
   2.24799991       6.63141373E-06
   2.25500011       6.64264280E-06
   2.26200008       6.65378730E-06
   2.26900005       6.66473852E-06
   2.27600002       6.67538052E-06
   2.28299999       6.68559323E-06
   2.28999996       6.69526935E-06
   2.29699993       6.70430427E-06
   2.30399990       6.71259750E-06
   2.31100011       6.72004307E-06
   2.31800008       6.72652595E-06
   2.32500005       6.73193790E-06
   2.33200002       6.73617978E-06
   2.33899999       6.73916566E-06
   2.34599996       6.74080957E-06
   2.35299993       6.74102012E-06
   2.35999990       6.73970453E-06
   2.36700010       6.73678278E-06
   2.37400007       6.73219211E-06
   2.38100004       6.72588112E-06
   2.38800001       6.71780481E-06
   2.39499998       6.70791314E-06
   2.40199995       6.69615429E-06
   2.40899992       6.68249140E-06
   2.41599989       6.66689903E-06
   2.42300010       6.64937397E-06
   2.43000007       6.62991488E-06
   2.43700004       6.60851219E-06
   2.44400001       6.58516683E-06
   2.45099998       6.55989379E-06
   2.45799994       6.53272900E-06
   2.46499991       6.50372021E-06
   2.47199988       6.47291108E-06
   2.47900009       6.44034026E-06
   2.48600006       6.40604776E-06
   2.49300003       6.37009043E-06
   2.50000000       6.33254513E-06
   2.50699997       6.29349552E-06
   2.51399994       6.25302118E-06
   2.52099991       6.21119489E-06
   2.52800012       6.16809575E-06
   2.53500009       6.12381837E-06
   2.54200006       6.07847505E-06
   2.54900002       6.03217495E-06
   2.55599999       5.98501492E-06
   2.56299996       5.93709046E-06
   2.56999993       5.88850480E-06
   2.57699990       5.83937162E-06
   2.58400011       5.78981417E-06
   2.59100008       5.73995203E-06
   2.59800005       5.68988844E-06
   2.60500002       5.63971616E-06
   2.61199999       5.58953798E-06
   2.61899996       5.53946211E-06
   2.62599993       5.48960452E-06
   2.63299990       5.44007253E-06
   2.64000010       5.39096209E-06
   2.64700007       5.34236142E-06
   2.65400004       5.29435601E-06
   2.66100001       5.24704319E-06
   2.66799998       5.20053027E-06
   2.67499995       5.15490819E-06
   2.68199992       5.11024837E-06
   2.68899989       5.06660626E-06
   2.69600010       5.02404146E-06
   2.70300007       4.98263307E-06
   2.71000004       4.94246387E-06
   2.71700001       4.90359662E-06
   2.72399998       4.86607178E-06
   2.73099995       4.82992300E-06
   2.73799992       4.79518803E-06
   2.74499989       4.76192326E-06
   2.75200009       4.73018736E-06
   2.75900006       4.70001760E-06
   2.76600003       4.67142490E-06
   2.77300000       4.64440973E-06
   2.77999997       4.61898935E-06
   2.78699994       4.59519924E-06
   2.79399991       4.57306805E-06
   2.80100012       4.55260215E-06
   2.80800009       4.53378289E-06
   2.81500006       4.51659071E-06
   2.82200003       4.50102516E-06
   2.82900000       4.48710352E-06
   2.83599997       4.47483717E-06
   2.84299994       4.46421291E-06
   2.84999990       4.45519072E-06
   2.85700011       4.44773150E-06
   2.86400008       4.44181751E-06
   2.87100005       4.43744830E-06
   2.87800002       4.43461477E-06
   2.88499999       4.43328008E-06
   2.89199996       4.43338968E-06
   2.89899993       4.43489216E-06
   2.90599990       4.43775889E-06
   2.91300011       4.44197758E-06
   2.92000008       4.44752777E-06
   2.92700005       4.45436081E-06
   2.93400002       4.46240665E-06
   2.94099998       4.47160664E-06
   2.94799995       4.48192532E-06
   2.95499992       4.49333993E-06
   2.96199989       4.50581729E-06
   2.96900010       4.51930100E-06
   2.97600007       4.53371376E-06
   2.98300004       4.54898873E-06
   2.99000001       4.56508224E-06
   2.99699998       4.58196700E-06
   3.00399995       4.59960711E-06
   3.01099992       4.61794343E-06
   3.01799989       4.63690048E-06
   3.02500010       4.65641142E-06
   3.03200006       4.67643486E-06
   3.03900003       4.69694533E-06
   3.04600000       4.71790690E-06
   3.05299997       4.73925684E-06
   3.05999994       4.76091327E-06
   3.06699991       4.78281027E-06
   3.07399988       4.80490371E-06
   3.08100009       4.82717769E-06
   3.08800006       4.84959901E-06
   3.09500003       4.87210900E-06
   3.10200000       4.89463309E-06
   3.10899997       4.91711262E-06
   3.11599994       4.93952393E-06
   3.12299991       4.96185839E-06
   3.13000011       4.98409236E-06
   3.13700008       5.00617034E-06
   3.14400005       5.02802277E-06
   3.15100002       5.04960053E-06
   3.15799999       5.07088635E-06
   3.16499996       5.09187976E-06
   3.17199993       5.11255985E-06
   3.17899990       5.13288023E-06
   3.18600011       5.15278407E-06
   3.19300008       5.17223862E-06
   3.20000005       5.19124978E-06
   3.20700002       5.20983212E-06
   3.21399999       5.22797927E-06
   3.22099996       5.24565030E-06
   3.22799993       5.26279791E-06
   3.23499990       5.27940347E-06
   3.24200010       5.29548242E-06
   3.24900007       5.31105889E-06
   3.25600004       5.32613421E-06
   3.26300001       5.34068295E-06
   3.26999998       5.35468052E-06
   3.27699995       5.36813332E-06
   3.28399992       5.38107452E-06
   3.29099989       5.39354232E-06
   3.29800010       5.40554811E-06
   3.30500007       5.41707777E-06
   3.31200004       5.42811813E-06
   3.31900001       5.43868873E-06
   3.32599998       5.44883596E-06
   3.33299994       5.45860530E-06
   3.33999991       5.46802312E-06
   3.34699988       5.47708623E-06
   3.35400009       5.48579919E-06
   3.36100006       5.49419929E-06
   3.36800003       5.50234790E-06
   3.37500000       5.51031007E-06
   3.38199997       5.51812764E-06
   3.38899994       5.52581650E-06
   3.39599991       5.53339669E-06
   3.40300012       5.54092321E-06
   3.41000009       5.54846974E-06
   3.41700006       5.55610495E-06
   3.42400002       5.56386476E-06
   3.43099999       5.57176872E-06
   3.43799996       5.57984913E-06
   3.44499993       5.58816737E-06
   3.45199990       5.59681121E-06
   3.45900011       5.60585659E-06
   3.46600008       5.61534762E-06
   3.47300005       5.62531795E-06
   3.48000002       5.63581079E-06
   3.48699999       5.64689253E-06
   3.49399996       5.65864366E-06
   3.50099993       5.67113148E-06
   3.50799990       5.68439827E-06
   3.51500010       5.69847771E-06
   3.52200007       5.71340661E-06
   3.52900004       5.72923773E-06
   3.53600001       5.74603109E-06
   3.54299998       5.76383763E-06
   3.54999995       5.78268236E-06
   3.55699992       5.80257984E-06
   3.56399989       5.82355915E-06
   3.57100010       5.84565896E-06
   3.57800007       5.86891974E-06
   3.58500004       5.89337378E-06
   3.59200001       5.91903108E-06
   3.59899998       5.94588300E-06
   3.60599995       5.97391818E-06
   3.61299992       6.00313024E-06
   3.61999989       6.03351464E-06
   3.62700009       6.06506137E-06
   3.63400006       6.09774270E-06
   3.64100003       6.13152179E-06
   3.64800000       6.16635862E-06
   3.65499997       6.20221817E-06
   3.66199994       6.23905862E-06
   3.66899991       6.27681811E-06
   3.67600012       6.31542343E-06
   3.68300009       6.35478909E-06
   3.69000006       6.39482505E-06
   3.69700003       6.43543854E-06
   3.70400000       6.47653587E-06
   3.71099997       6.51802020E-06
   3.71799994       6.55978920E-06
   3.72499990       6.60173964E-06
   3.73200011       6.64374920E-06
   3.73900008       6.68568191E-06
   3.74600005       6.72740498E-06
   3.75300002       6.76878199E-06
   3.75999999       6.80967969E-06
   3.76699996       6.84995348E-06
   3.77399993       6.88944510E-06
   3.78099990       6.92799267E-06
   3.78800011       6.96543293E-06
   3.79500008       7.00161490E-06
   3.80200005       7.03638716E-06
   3.80900002       7.06959190E-06
   3.81599998       7.10105587E-06
   3.82299995       7.13060354E-06
   3.82999992       7.15807755E-06
   3.83699989       7.18334195E-06
   3.84400010       7.20626849E-06
   3.85100007       7.22671803E-06
   3.85800004       7.24454003E-06
   3.86500001       7.25958398E-06
   3.87199998       7.27171755E-06
   3.87899995       7.28083160E-06
   3.88599992       7.28682153E-06
   3.89299989       7.28957684E-06
   3.90000010       7.28897339E-06
   3.90700006       7.28489795E-06
   3.91400003       7.27726729E-06
   3.92100000       7.26602775E-06
   3.92799997       7.25114205E-06
   3.93499994       7.23256471E-06
   3.94199991       7.21023889E-06
   3.94899988       7.18412366E-06
   3.95600009       7.15421447E-06
   3.96300006       7.12053725E-06
   3.97000003       7.08312928E-06
   3.97700000       7.04201102E-06
   3.98399997       6.99719885E-06
   3.99099994       6.94872733E-06
   3.99799991       6.89666740E-06
   4.00500011       6.84112547E-06
   4.01200008       6.78221704E-06
   4.01900005       6.72004444E-06
   4.02600002       6.65469861E-06
   4.03299999       6.58628687E-06
   4.03999996       6.51496021E-06
   4.04699993       6.44089641E-06
   4.05399990       6.36427467E-06
   4.06099987       6.28525095E-06
   4.06799984       6.20397486E-06
   4.07499981       6.12061604E-06
   4.08199978       6.03538501E-06
   4.08900023       5.94851645E-06
   4.09600019       5.86023134E-06
   4.10300016       5.77072342E-06
   4.11000013       5.68017640E-06
   4.11700010       5.58879356E-06
   4.12400007       5.49681317E-06
   4.13100004       5.40448718E-06
   4.13800001       5.31205342E-06
   4.14499998       5.21971788E-06
   4.15199995       5.12767065E-06
   4.15899992       5.03611909E-06
   4.16599989       4.94529922E-06
   4.17299986       4.85544933E-06
   4.17999983       4.76678088E-06
   4.18699980       4.67947029E-06
   4.19399977       4.59368266E-06
   4.20100021       4.50959806E-06
   4.20800018       4.42741839E-06
   4.21500015       4.34734147E-06
   4.22200012       4.26953511E-06
   4.22900009       4.19412163E-06
   4.23600006       4.12121199E-06
   4.24300003       4.05093169E-06
   4.25000000       3.98342763E-06
   4.25699997       3.91883668E-06
   4.26399994       3.85726071E-06
   4.27099991       3.79875837E-06
   4.27799988       3.74337992E-06
   4.28499985       3.69118879E-06
   4.29199982       3.64226571E-06
   4.29899979       3.59667001E-06
   4.30600023       3.55442012E-06
   4.31300020       3.51549716E-06
   4.32000017       3.47987952E-06
   4.32700014       3.44756495E-06
   4.33400011       3.41856344E-06
   4.34100008       3.39286680E-06
   4.34800005       3.37042411E-06
   4.35500002       3.35114669E-06
   4.36199999       3.33494381E-06
   4.36899996       3.32174750E-06
   4.37599993       3.31149886E-06
   4.38299990       3.30412331E-06
   4.38999987       3.29950944E-06
   4.39699984       3.29751970E-06
   4.40399981       3.29802492E-06
   4.41099977       3.30091621E-06
   4.41800022       3.30609419E-06
   4.42500019       3.31343563E-06
   4.43200016       3.32277818E-06
   4.43900013       3.33393996E-06
   4.44600010       3.34675292E-06
   4.45300007       3.36107541E-06
   4.46000004       3.37677739E-06
   4.46700001       3.39370695E-06
   4.47399998       3.41168288E-06
   4.48099995       3.43050897E-06
   4.48799992       3.45001058E-06
   4.49499989       3.47003538E-06
   4.50199986       3.49043262E-06
   4.50899982       3.51103654E-06
   4.51599979       3.53165387E-06
   4.52299976       3.55209272E-06
   4.53000021       3.57218937E-06
   4.53700018       3.59180513E-06
   4.54400015       3.61080629E-06
   4.55100012       3.62903961E-06
   4.55800009       3.64633411E-06
   4.56500006       3.66252038E-06
   4.57200003       3.67745702E-06
   4.57900000       3.69102645E-06
   4.58599997       3.70311136E-06
   4.59299994       3.71358124E-06
   4.59999990       3.72229806E-06
   4.60699987       3.72913405E-06
   4.61399984       3.73399530E-06
   4.62099981       3.73680746E-06
   4.62799978       3.73750026E-06
   4.63500023       3.73598823E-06
   4.64200020       3.73218018E-06
   4.64900017       3.72599879E-06
   4.65600014       3.71739452E-06
   4.66300011       3.70633734E-06
   4.67000008       3.69279974E-06
   4.67700005       3.67674966E-06
   4.68400002       3.65815617E-06
   4.69099998       3.63700974E-06
   4.69799995       3.61332718E-06
   4.70499992       3.58714169E-06
   4.71199989       3.55847988E-06
   4.71899986       3.52735447E-06
   4.72599983       3.49377865E-06
   4.73299980       3.45778335E-06
   4.73999977       3.41942678E-06
   4.74700022       3.37878600E-06
   4.75400019       3.33593721E-06
   4.76100016       3.29094905E-06
   4.76800013       3.24389634E-06
   4.77500010       3.19487299E-06
   4.78200006       3.14399244E-06
   4.78900003       3.09137181E-06
   4.79600000       3.03711431E-06
   4.80299997       2.98131181E-06
   4.80999994       2.92406366E-06
   4.81699991       2.86549380E-06
   4.82399988       2.80574454E-06
   4.83099985       2.74496301E-06
   4.83799982       2.68328427E-06
   4.84499979       2.62082835E-06
   4.85200024       2.55771283E-06
   4.85900021       2.49406617E-06
   4.86600018       2.43002796E-06
   4.87300014       2.36573214E-06
   4.88000011       2.30130217E-06
   4.88700008       2.23685493E-06
   4.89400005       2.17251522E-06
   4.90100002       2.10842200E-06
   4.90799999       2.04471735E-06
   4.91499996       1.98153339E-06
   4.92199993       1.91897743E-06
   4.92899990       1.85714123E-06
   4.93599987       1.79611663E-06
   4.94299984       1.73600245E-06
   4.94999981       1.67690064E-06
   4.95699978       1.61890785E-06
   4.96400023       1.56210774E-06
   4.97100019       1.50657741E-06
   4.97800016       1.45239517E-06
   4.98500013       1.39964106E-06
   4.99200010       1.34838581E-06