  -1.00000000       8.19878130E-17
 -0.992999971       1.09093841E-15
 -0.986000001       3.88082036E-15
 -0.978999972       6.14731366E-15
 -0.972000003       2.48050846E-16
 -0.964999974      -2.53124666E-14
 -0.958000004      -8.05708514E-14
 -0.950999975      -1.67420643E-13
 -0.944000006      -2.75030189E-13
 -0.936999977      -3.79873704E-13
 -0.930000007      -4.50862980E-13
 -0.922999978      -4.58121009E-13
 -0.916000009      -3.82576349E-13
 -0.908999979      -2.22833281E-13
 -0.902000010       4.01135534E-15
 -0.894999981       2.69155304E-13
 -0.888000011       5.44572634E-13
 -0.880999982       8.15487814E-13
 -0.874000013       1.08550766E-12
 -0.866999984       1.36955410E-12
 -0.860000014       1.67587190E-12
 -0.852999985       1.98506966E-12
 -0.846000016       2.23741446E-12
 -0.838999987       2.33722069E-12
 -0.832000017       2.17607291E-12
 -0.824999988       1.66812701E-12
 -0.818000019       7.84676686E-13
 -0.810999990      -4.26098013E-13
 -0.804000020      -1.84417455E-12
 -0.796999991      -3.30909020E-12
 -0.790000021      -4.66893191E-12
 -0.782999992      -5.82936433E-12
 -0.776000023      -6.78211437E-12
 -0.768999994      -7.59788499E-12
 -0.762000024      -8.38230787E-12
 -0.754999995      -9.21028705E-12
 -0.748000026      -1.00662109E-11
 -0.740999997      -1.08183922E-11
 -0.734000027      -1.12441835E-11
 -0.726999998      -1.11018399E-11
 -0.720000029      -1.02249190E-11
 -0.713000000      -8.60333853E-12
 -0.705999970      -6.41701666E-12
 -0.699000001      -4.00341305E-12
 -0.691999972      -1.76419925E-12
 -0.685000002      -4.09022215E-14
 -0.677999973       9.94955420E-13
 -0.671000004       1.39214204E-12
 -0.663999975       1.38444453E-12
 -0.657000005       1.27626588E-12
 -0.649999976       1.28900666E-12
 -0.643000007       1.42834139E-12
 -0.635999978       1.42926209E-12
 -0.629000008       8.08447601E-13
 -0.621999979      -9.87359283E-13
 -0.615000010      -4.38716424E-12
 -0.607999980      -9.52704061E-12
 -0.601000011      -1.61732884E-11
 -0.593999982      -2.37736497E-11
 -0.587000012      -3.16264896E-11
 -0.579999983      -3.91130184E-11
 -0.573000014      -4.59088739E-11
 -0.565999985      -5.20932360E-11
 -0.559000015      -5.81071476E-11
 -0.551999986      -6.45686074E-11
 -0.545000017      -7.20089682E-11
 -0.537999988      -8.06310435E-11
 -0.531000018      -9.01859351E-11
 -0.523999989      -1.00025391E-10
 -0.517000020      -1.09321011E-10
 -0.509999990      -1.17377372E-10
 -0.503000021      -1.23925481E-10
 -0.495999992      -1.29283750E-10
 -0.488999993      -1.34314962E-10
 -0.481999993      -1.40177883E-10
 -0.474999994      -1.47947044E-10
 -0.467999995      -1.58227903E-10
 -0.460999995      -1.70906345E-10
 -0.453999996      -1.85131424E-10
 -0.446999997      -1.99550099E-10
 -0.439999998      -2.12721091E-10
 -0.432999998      -2.23566721E-10
 -0.425999999      -2.31703240E-10
 -0.419000000      -2.37526193E-10
 -0.412000000      -2.42018766E-10
 -0.405000001      -2.46340809E-10
 -0.398000002      -2.51341170E-10
 -0.391000003      -2.57163374E-10
 -0.384000003      -2.63081973E-10
 -0.377000004      -2.67638328E-10
 -0.370000005      -2.69020056E-10
 -0.363000005      -2.65555661E-10
 -0.356000006      -2.56126231E-10
 -0.349000007      -2.40343190E-10
 -0.342000008      -2.18406987E-10
 -0.335000008      -1.90690241E-10
 -0.328000009      -1.57202695E-10
 -0.321000010      -1.17130056E-10
 -0.314000010      -6.86411067E-11
 -0.307000011      -9.05107673E-12
 -0.300000012       6.46977402E-11
 -0.293000013       1.55382707E-10
 -0.286000013       2.64912370E-10
 -0.279000014       3.94016847E-10
 -0.272000015       5.42354717E-10
 -0.264999986       7.09019399E-10
 -0.257999986       8.93313201E-10
 -0.250999987       1.09552734E-09
 -0.244000003       1.31747557E-09
 -0.237000003       1.56259417E-09
 -0.230000004       1.83557358E-09
 -0.223000005       2.14166840E-09
 -0.216000006       2.48589904E-09
 -0.209000006       2.87243274E-09
 -0.202000007       3.30433303E-09
 -0.194999993       3.78378529E-09
 -0.187999994       4.31265113E-09
 -0.180999994       4.89318053E-09
 -0.173999995       5.52858914E-09
 -0.166999996       6.22333074E-09
 -0.159999996       6.98294311E-09
 -0.152999997       7.81350717E-09
 -0.145999998       8.72101502E-09
 -0.138999999       9.71083125E-09
 -0.131999999       1.07874998E-08
 -0.125000000       1.19549508E-08
 -0.118000001       1.32171518E-08
 -0.111000001       1.45788510E-08
 -0.104000002       1.60462363E-08
  -9.70000029E-02   1.76273307E-08
  -9.00000036E-02   1.93319103E-08
  -8.29999968E-02   2.11710329E-08
  -7.59999976E-02   2.31563853E-08
  -6.89999983E-02   2.52996131E-08
  -6.19999990E-02   2.76119323E-08
  -5.49999997E-02   3.01041503E-08
  -4.80000004E-02   3.27871810E-08
  -4.10000011E-02   3.56727270E-08
  -3.40000018E-02   3.87740506E-08
  -2.70000007E-02   4.21066311E-08
  -1.99999996E-02   4.56884699E-08
  -1.30000003E-02   4.95399739E-08
  -6.00000005E-03   5.36837170E-08
   1.00000005E-03   5.81439323E-08
   8.00000038E-03   6.29463486E-08
   1.49999997E-02   6.81181263E-08
   2.19999999E-02   7.36881205E-08
   2.89999992E-02   7.96873891E-08
   3.59999985E-02   8.61499245E-08
   4.30000015E-02   9.31132647E-08
   5.00000007E-02   1.00618820E-07
   5.70000000E-02   1.08712058E-07
   6.40000030E-02   1.17442269E-07
   7.10000023E-02   1.26862332E-07
   7.80000016E-02   1.37028721E-07
   8.50000009E-02   1.48001035E-07
   9.20000002E-02   1.59842514E-07
   9.89999995E-02   1.72620176E-07
  0.105999999       1.86405870E-07
  0.112999998       2.01276464E-07
  0.119999997       2.17314607E-07
  0.127000004       2.34608862E-07
  0.134000003       2.53253774E-07
  0.141000003       2.73349741E-07
  0.148000002       2.95002678E-07
  0.155000001       3.18323288E-07
  0.162000000       3.43427075E-07
  0.169000000       3.70434606E-07
  0.175999999       3.99471077E-07
  0.182999998       4.30666631E-07
  0.189999998       4.64156898E-07
  0.196999997       5.00082763E-07
  0.203999996       5.38590484E-07
  0.210999995       5.79831351E-07
  0.217999995       6.23960943E-07
  0.224999994       6.71138650E-07
  0.231999993       7.21527329E-07
  0.238999993       7.75292222E-07
  0.246000007       8.32600108E-07
  0.252999991       8.93619358E-07
  0.259999990       9.58519422E-07
  0.266999990       1.02747026E-06
  0.273999989       1.10064275E-06
  0.280999988       1.17820684E-06
  0.287999988       1.26033160E-06
  0.294999987       1.34718346E-06
  0.301999986       1.43892464E-06
  0.308999985       1.53571341E-06
  0.316000015       1.63770108E-06
  0.323000014       1.74503282E-06
  0.330000013       1.85784563E-06
  0.337000012       1.97626764E-06
  0.344000012       2.10041708E-06
  0.351000011       2.23040206E-06
  0.358000010       2.36631922E-06
  0.365000010       2.50825315E-06
  0.372000009       2.65627341E-06
  0.379000008       2.81043299E-06
  0.386000007       2.97077008E-06
  0.393000007       3.13730561E-06
  0.400000006       3.31004230E-06
  0.407000005       3.48896333E-06
  0.414000005       3.67403345E-06
  0.421000004       3.86519559E-06
  0.428000003       4.06237132E-06
  0.435000002       4.26546330E-06
  0.442000002       4.47434786E-06
  0.449000001       4.68887902E-06
  0.456000000       4.90888578E-06
  0.463000000       5.13417262E-06
  0.469999999       5.36452080E-06
  0.476999998       5.59968657E-06
  0.483999997       5.83940255E-06
  0.490999997       6.08337859E-06
  0.497999996       6.33130139E-06
  0.504999995       6.58283443E-06
  0.512000024       6.83761800E-06
  0.518999994       7.09527285E-06
  0.526000023       7.35539334E-06
  0.532999992       7.61755427E-06
  0.540000021       7.88131183E-06
  0.546999991       8.14620034E-06
  0.554000020       8.41173824E-06
  0.560999990       8.67742710E-06
  0.568000019       8.94275308E-06
  0.574999988       9.20718958E-06
  0.582000017       9.47019453E-06
  0.588999987       9.73121951E-06
  0.596000016       9.98970518E-06
  0.602999985       1.02450877E-05
  0.610000014       1.04967976E-05
  0.616999984       1.07442629E-05
  0.624000013       1.09869125E-05
  0.630999982       1.12241787E-05
  0.638000011       1.14554914E-05
  0.644999981       1.16802939E-05
  0.652000010       1.18980342E-05
  0.658999979       1.21081675E-05
  0.666000009       1.23101609E-05
  0.672999978       1.25034921E-05
  0.680000007       1.26876585E-05
  0.686999977       1.28621659E-05
  0.694000006       1.30265507E-05
  0.700999975       1.31803690E-05
  0.708000004       1.33232006E-05
  0.714999974       1.34546526E-05
  0.722000003       1.35743585E-05
  0.728999972       1.36819772E-05
  0.736000001       1.37771922E-05
  0.742999971       1.38597234E-05
  0.750000000       1.39293197E-05
  0.757000029       1.39857666E-05
  0.763999999       1.40288848E-05
  0.771000028       1.40585335E-05
  0.777999997       1.40746160E-05
  0.785000026       1.40770644E-05
  0.791999996       1.40658549E-05
  0.799000025       1.40409929E-05
  0.805999994       1.40025268E-05
  0.813000023       1.39505355E-05
  0.819999993       1.38851383E-05
  0.827000022       1.38064906E-05
  0.833999991       1.37147854E-05
  0.841000021       1.36102581E-05
  0.847999990       1.34931815E-05
  0.855000019       1.33638641E-05
  0.861999989       1.32226478E-05
  0.869000018       1.30699082E-05
  0.875999987       1.29060509E-05
  0.883000016       1.27315088E-05
  0.889999986       1.25467504E-05
  0.897000015       1.23522641E-05
  0.903999984       1.21485755E-05
  0.911000013       1.19362285E-05
  0.917999983       1.17157970E-05
  0.925000012       1.14878767E-05
  0.931999981       1.12530797E-05
  0.939000010       1.10120354E-05
  0.945999980       1.07653823E-05
  0.953000009       1.05137760E-05
  0.959999979       1.02578742E-05
  0.967000008       9.99834720E-06
  0.973999977       9.73587066E-06
  0.981000006       9.47112494E-06
  0.987999976       9.20479397E-06
  0.995000005       8.93756533E-06
   1.00199997       8.67012022E-06
   1.00899994       8.40313078E-06
   1.01600003       8.13726183E-06
   1.02300000       7.87317094E-06
   1.02999997       7.61149568E-06
   1.03699994       7.35286221E-06
   1.04400003       7.09788173E-06
   1.05100000       6.84714905E-06
   1.05799997       6.60123987E-06
   1.06500006       6.36070854E-06
   1.07200003       6.12608574E-06
   1.07900000       5.89787533E-06
   1.08599997       5.67655343E-06
   1.09300005       5.46256524E-06
   1.10000002       5.25632777E-06
   1.10699999       5.05822845E-06
   1.11399996       4.86862382E-06
   1.12100005       4.68784037E-06
   1.12800002       4.51617097E-06
   1.13499999       4.35387437E-06
   1.14199996       4.20117476E-06
   1.14900005       4.05826177E-06
   1.15600002       3.92529091E-06
   1.16299999       3.80238271E-06
   1.16999996       3.68961855E-06
   1.17700005       3.58704847E-06
   1.18400002       3.49468883E-06
   1.19099998       3.41252144E-06
   1.19799995       3.34049423E-06
   1.20500004       3.27852081E-06
   1.21200001       3.22648430E-06
   1.21899998       3.18423736E-06
   1.22599995       3.15160446E-06
   1.23300004       3.12838279E-06
   1.24000001       3.11434405E-06
   1.24699998       3.10923383E-06
   1.25399995       3.11277222E-06
   1.26100004       3.12465681E-06
   1.26800001       3.14455906E-06
   1.27499998       3.17213016E-06
   1.28199995       3.20700201E-06
   1.28900003       3.24878988E-06
   1.29600000       3.29709633E-06
   1.30299997       3.35151185E-06
   1.30999994       3.41161763E-06
   1.31700003       3.47698642E-06
   1.32400000       3.54718350E-06
   1.33099997       3.62176525E-06
   1.33800006       3.70028420E-06
   1.34500003       3.78229038E-06
   1.35200000       3.86733564E-06
   1.35899997       3.95497500E-06
   1.36600006       4.04476896E-06
   1.37300003       4.13628368E-06
   1.38000000       4.22909579E-06
   1.38699996       4.32278921E-06
   1.39400005       4.41695374E-06
   1.40100002       4.51118603E-06
   1.40799999       4.60509091E-06
   1.41499996       4.69828683E-06
   1.42200005       4.79040773E-06
   1.42900002       4.88110481E-06
   1.43599999       4.97005203E-06
   1.44299996       5.05694061E-06
   1.45000005       5.14148405E-06
   1.45700002       5.22341907E-06
   1.46399999       5.30250145E-06
   1.47099996       5.37850792E-06
   1.47800004       5.45123658E-06
   1.48500001       5.52050369E-06
   1.49199998       5.58615011E-06
   1.49899995       5.64803668E-06
   1.50600004       5.70604925E-06
   1.51300001       5.76009279E-06
   1.51999998       5.81009544E-06
   1.52699995       5.85600310E-06
   1.53400004       5.89778438E-06
   1.54100001       5.93542700E-06
   1.54799998       5.96894233E-06
   1.55499995       5.99835903E-06
   1.56200004       6.02373029E-06
   1.56900001       6.04512616E-06
   1.57599998       6.06263529E-06
   1.58299994       6.07636366E-06
   1.59000003       6.08643040E-06
   1.59700000       6.09297285E-06
   1.60399997       6.09613835E-06
   1.61099994       6.09609151E-06
   1.61800003       6.09301151E-06
   1.62500000       6.08708842E-06
   1.63199997       6.07852280E-06
   1.63900006       6.06752565E-06
   1.64600003       6.05431160E-06
   1.65300000       6.03909621E-06
   1.65999997       6.02209502E-06
   1.66700006       6.00352359E-06
   1.67400002       5.98360111E-06
   1.68099999       5.96255177E-06
   1.68799996       5.94060384E-06
   1.69500005       5.91799107E-06
   1.70200002       5.89495085E-06
   1.70899999       5.87171689E-06
   1.71599996       5.84851659E-06
   1.72300005       5.82556686E-06
   1.73000002       5.80307415E-06
   1.73699999       5.78123536E-06
   1.74399996       5.76023831E-06
   1.75100005       5.74026490E-06
   1.75800002       5.72149338E-06
   1.76499999       5.70409975E-06
   1.77199996       5.68825681E-06
   1.77900004       5.67412826E-06
   1.78600001       5.66186191E-06
   1.79299998       5.65158780E-06
   1.79999995       5.64341508E-06
   1.80700004       5.63743743E-06
   1.81400001       5.63373624E-06
   1.82099998       5.63238518E-06
   1.82799995       5.63345247E-06
   1.83500004       5.63700360E-06
   1.84200001       5.64309903E-06
   1.84899998       5.65179198E-06
   1.85599995       5.66312201E-06
   1.86300004       5.67711231E-06
   1.87000000       5.69376107E-06
   1.87699997       5.71305236E-06
   1.88399994       5.73495345E-06
   1.89100003       5.75942749E-06
   1.89800000       5.78643494E-06
   1.90499997       5.81594031E-06
   1.91199994       5.84790496E-06
   1.91900003       5.88228613E-06
   1.92600000       5.91903290E-06
   1.93299997       5.95808388E-06
   1.94000006       5.99936584E-06
   1.94700003       6.04279239E-06
   1.95400000       6.08826576E-06
   1.96099997       6.13568363E-06
   1.96800005       6.18494732E-06
   1.97500002       6.23596634E-06
   1.98199999       6.28865973E-06
   1.98899996       6.34294611E-06
   1.99600005       6.39874315E-06
   2.00300002       6.45595992E-06
   2.00999999       6.51450227E-06
   2.01699996       6.57426835E-06
   2.02399993       6.63515721E-06
   2.03099990       6.69706787E-06
   2.03800011       6.75990395E-06
   2.04500008       6.82357631E-06
   2.05200005       6.88800583E-06
   2.05900002       6.95312519E-06
   2.06599998       7.01886938E-06
   2.07299995       7.08516973E-06
   2.07999992       7.15195574E-06
   2.08699989       7.21915603E-06
   2.09400010       7.28670193E-06
   2.10100007       7.35453250E-06
   2.10800004       7.42259226E-06
   2.11500001       7.49083392E-06
   2.12199998       7.55921656E-06
   2.12899995       7.62770242E-06
   2.13599992       7.69626331E-06
   2.14299989       7.76486741E-06
   2.15000010       7.83348969E-06
   2.15700006       7.90210015E-06
   2.16400003       7.97067059E-06
   2.17100000       8.03917919E-06
   2.17799997       8.10760957E-06
   2.18499994       8.17594901E-06
   2.19199991       8.24419203E-06
   2.19899988       8.31233046E-06
   2.20600009       8.38035157E-06
   2.21300006       8.44824626E-06
   2.22000003       8.51601089E-06
   2.22700000       8.58364274E-06
   2.23399997       8.65114089E-06
   2.24099994       8.71850716E-06
   2.24799991       8.78574247E-06
   2.25500011       8.85284862E-06
   2.26200008       8.91982654E-06
   2.26900005       8.98667167E-06
   2.27600002       9.05337765E-06
   2.28299999       9.11992720E-06
   2.28999996       9.18629939E-06
   2.29699993       9.25247787E-06
   2.30399990       9.31844988E-06
   2.31100011       9.38420544E-06
   2.31800008       9.44973362E-06
   2.32500005       9.51501897E-06
   2.33200002       9.58004057E-06
   2.33899999       9.64477204E-06
   2.34599996       9.70918154E-06
   2.35299993       9.77323816E-06
   2.35999990       9.83690370E-06
   2.36700010       9.90013996E-06
   2.37400007       9.96291874E-06
   2.38100004       1.00252109E-05
   2.38800001       1.00869975E-05
   2.39499998       1.01482492E-05
   2.40199995       1.02089289E-05
   2.40899992       1.02689864E-05
   2.41599989       1.03283619E-05
   2.42300010       1.03869943E-05
   2.43000007       1.04448191E-05
   2.43700004       1.05017807E-05
   2.44400001       1.05578292E-05
   2.45099998       1.06129237E-05
   2.45799994       1.06670313E-05
   2.46499991       1.07201249E-05
   2.47199988       1.07721735E-05
   2.47900009       1.08231470E-05
   2.48600006       1.08730019E-05
   2.49300003       1.09216935E-05
   2.50000000       1.09691746E-05
   2.50699997       1.10154069E-05
   2.51399994       1.10603651E-05
   2.52099991       1.11040308E-05
   2.52800012       1.11463924E-05
   2.53500009       1.11874433E-05
   2.54200006       1.12271737E-05
   2.54900002       1.12655771E-05
   2.55599999       1.13026408E-05
   2.56299996       1.13383530E-05
   2.56999993       1.13727019E-05
   2.57699990       1.14056838E-05
   2.58400011       1.14373070E-05
   2.59100008       1.14675922E-05
   2.59800005       1.14965733E-05
   2.60500002       1.15242874E-05
   2.61199999       1.15507755E-05
   2.61899996       1.15760731E-05
   2.62599993       1.16002166E-05
   2.63299990       1.16232377E-05
   2.64000010       1.16451774E-05
   2.64700007       1.16660722E-05
   2.65400004       1.16859674E-05
   2.66100001       1.17049167E-05
   2.66799998       1.17229802E-05
   2.67499995       1.17402260E-05
   2.68199992       1.17567197E-05
   2.68899989       1.17725212E-05
   2.69600010       1.17876853E-05
   2.70300007       1.18022672E-05
   2.71000004       1.18163180E-05
   2.71700001       1.18298949E-05
   2.72399998       1.18430580E-05
   2.73099995       1.18558664E-05
   2.73799992       1.18683838E-05
   2.74499989       1.18806684E-05
   2.75200009       1.18927856E-05
   2.75900006       1.19047900E-05
   2.76600003       1.19167362E-05
   2.77300000       1.19286733E-05
   2.77999997       1.19406468E-05
   2.78699994       1.19526994E-05
   2.79399991       1.19648776E-05
   2.80100012       1.19772230E-05
   2.80800009       1.19897777E-05
   2.81500006       1.20025734E-05
   2.82200003       1.20156337E-05
   2.82900000       1.20289806E-05
   2.83599997       1.20426294E-05
   2.84299994       1.20565992E-05
   2.84999990       1.20708992E-05
   2.85700011       1.20855393E-05
   2.86400008       1.21005241E-05
   2.87100005       1.21158510E-05
   2.87800002       1.21315170E-05
   2.88499999       1.21475114E-05
   2.89199996       1.21638186E-05
   2.89899993       1.21804151E-05
   2.90599990       1.21972816E-05
   2.91300011       1.22143920E-05
   2.92000008       1.22317242E-05
   2.92700005       1.22492593E-05
   2.93400002       1.22669699E-05
   2.94099998       1.22848287E-05
   2.94799995       1.23028012E-05
   2.95499992       1.23208438E-05
   2.96199989       1.23389100E-05
   2.96900010       1.23569498E-05
   2.97600007       1.23749105E-05
   2.98300004       1.23927402E-05
   2.99000001       1.24103863E-05
   2.99699998       1.24277931E-05
   3.00399995       1.24449152E-05
   3.01099992       1.24616972E-05
   3.01799989       1.24780890E-05
   3.02500010       1.24940389E-05
   3.03200006       1.25094921E-05
   3.03900003       1.25243932E-05
   3.04600000       1.25386887E-05
   3.05299997       1.25523229E-05
   3.05999994       1.25652468E-05
   3.06699991       1.25774186E-05
   3.07399988       1.25888000E-05
   3.08100009       1.25993529E-05
   3.08800006       1.26090463E-05
   3.09500003       1.26178420E-05
   3.10200000       1.26257119E-05
   3.10899997       1.26326186E-05
   3.11599994       1.26385330E-05
   3.12299991       1.26434225E-05
   3.13000011       1.26472505E-05
   3.13700008       1.26499917E-05
   3.14400005       1.26516261E-05
   3.15100002       1.26521463E-05
   3.15799999       1.26515451E-05
   3.16499996       1.26498217E-05
   3.17199993       1.26469795E-05
   3.17899990       1.26430223E-05
   3.18600011       1.26379528E-05
   3.19300008       1.26317782E-05
   3.20000005       1.26245104E-05
   3.20700002       1.26161576E-05
   3.21399999       1.26067353E-05
   3.22099996       1.25962652E-05
   3.22799993       1.25847791E-05
   3.23499990       1.25723172E-05
   3.24200010       1.25589186E-05
   3.24900007       1.25446204E-05
   3.25600004       1.25294564E-05
   3.26300001       1.25134629E-05
   3.26999998       1.24966737E-05
   3.27699995       1.24791259E-05
   3.28399992       1.24608559E-05
   3.29099989       1.24419021E-05
   3.29800010       1.24223025E-05
   3.30500007       1.24021071E-05
   3.31200004       1.23813725E-05
   3.31900001       1.23601603E-05
   3.32599998       1.23385289E-05
   3.33299994       1.23165273E-05
   3.33999991       1.22942092E-05
   3.34699988       1.22716265E-05
   3.35400009       1.22488318E-05
   3.36100006       1.22258734E-05
   3.36800003       1.22027996E-05
   3.37500000       1.21796493E-05
   3.38199997       1.21564699E-05
   3.38899994       1.21333096E-05
   3.39599991       1.21102230E-05
   3.40300012       1.20872628E-05
   3.41000009       1.20644672E-05
   3.41700006       1.20418717E-05
   3.42400002       1.20195064E-05
   3.43099999       1.19974038E-05
   3.43799996       1.19756014E-05
   3.44499993       1.19541346E-05
   3.45199990       1.19330343E-05
   3.45900011       1.19123351E-05
   3.46600008       1.18920771E-05
   3.47300005       1.18723019E-05
   3.48000002       1.18530515E-05
   3.48699999       1.18343578E-05
   3.49399996       1.18162416E-05
   3.50099993       1.17987129E-05
   3.50799990       1.17817808E-05
   3.51500010       1.17654617E-05
   3.52200007       1.17497739E-05
   3.52900004       1.17347372E-05
   3.53600001       1.17203699E-05
   3.54299998       1.17066866E-05
   3.54999995       1.16937063E-05
   3.55699992       1.16814481E-05
   3.56399989       1.16699293E-05
   3.57100010       1.16591591E-05
   3.57800007       1.16491392E-05
   3.58500004       1.16398714E-05
   3.59200001       1.16313631E-05
   3.59899998       1.16236333E-05
   3.60599995       1.16166993E-05
   3.61299992       1.16105830E-05
   3.61999989       1.16052952E-05
   3.62700009       1.16008441E-05
   3.63400006       1.15972425E-05
   3.64100003       1.15945058E-05
   3.64800000       1.15926478E-05
   3.65499997       1.15916764E-05
   3.66199994       1.15915982E-05
   3.66899991       1.15924195E-05
   3.67600012       1.15941548E-05
   3.68300009       1.15968196E-05
   3.69000006       1.16004221E-05
   3.69700003       1.16049705E-05
   3.70400000       1.16104611E-05
   3.71099997       1.16168949E-05
   3.71799994       1.16242827E-05
   3.72499990       1.16326419E-05
   3.73200011       1.16419915E-05
   3.73900008       1.16523443E-05
   3.74600005       1.16637029E-05
   3.75300002       1.16760748E-05
   3.75999999       1.16894671E-05
   3.76699996       1.17038935E-05
   3.77399993       1.17193495E-05
   3.78099990       1.17358322E-05
   3.78800011       1.17533282E-05
   3.79500008       1.17718309E-05
   3.80200005       1.17913351E-05
   3.80900002       1.18118260E-05
   3.81599998       1.18332819E-05
   3.82299995       1.18556682E-05
   3.82999992       1.18789440E-05
   3.83699989       1.19030747E-05
   3.84400010       1.19280257E-05
   3.85100007       1.19537626E-05
   3.85800004       1.19802517E-05
   3.86500001       1.20074483E-05
   3.87199998       1.20353006E-05
   3.87899995       1.20637587E-05
   3.88599992       1.20927680E-05
   3.89299989       1.21222629E-05
   3.90000010       1.21521689E-05
   3.90700006       1.21823987E-05
   3.91400003       1.22128667E-05
   3.92100000       1.22434894E-05
   3.92799997       1.22741885E-05
   3.93499994       1.23048740E-05
   3.94199991       1.23354466E-05
   3.94899988       1.23658001E-05
   3.95600009       1.23958216E-05
   3.96300006       1.24254066E-05
   3.97000003       1.24544549E-05
   3.97700000       1.24828612E-05
   3.98399997       1.25105162E-05
   3.99099994       1.25373135E-05
   3.99799991       1.25631504E-05
   4.00500011       1.25879260E-05
   4.01200008       1.26115410E-05
   4.01900005       1.26338909E-05
   4.02600002       1.26548675E-05
   4.03299999       1.26743635E-05
   4.03999996       1.26922851E-05
   4.04699993       1.27085450E-05
   4.05399990       1.27230614E-05
   4.06099987       1.27357598E-05
   4.06799984       1.27465637E-05
   4.07499981       1.27554040E-05
   4.08199978       1.27622179E-05
   4.08900023       1.27669546E-05
   4.09600019       1.27695639E-05
   4.10300016       1.27700005E-05
   4.11000013       1.27682251E-05
   4.11700010       1.27642097E-05
   4.12400007       1.27579469E-05
   4.13100004       1.27494368E-05
   4.13800001       1.27386920E-05
   4.14499998       1.27257263E-05
   4.15199995       1.27105641E-05
   4.15899992       1.26932373E-05
   4.16599989       1.26737878E-05
   4.17299986       1.26522682E-05
   4.17999983       1.26287314E-05
   4.18699980       1.26032428E-05
   4.19399977       1.25758752E-05
   4.20100021       1.25467186E-05
   4.20800018       1.25158776E-05
   4.21500015       1.24834633E-05
   4.22200012       1.24495873E-05
   4.22900009       1.24143617E-05
   4.23600006       1.23778973E-05
   4.24300003       1.23403115E-05
   4.25000000       1.23017244E-05
   4.25699997       1.22622605E-05
   4.26399994       1.22220445E-05
   4.27099991       1.21812118E-05
   4.27799988       1.21399107E-05
   4.28499985       1.20983022E-05
   4.29199982       1.20565537E-05
   4.29899979       1.20148261E-05
   4.30600023       1.19732713E-05
   4.31300020       1.19320348E-05
   4.32000017       1.18912621E-05
   4.32700014       1.18510934E-05
   4.33400011       1.18116695E-05
   4.34100008       1.17731288E-05
   4.34800005       1.17356094E-05
   4.35500002       1.16992496E-05
   4.36199999       1.16641868E-05
   4.36899996       1.16305564E-05
   4.37599993       1.15984794E-05
   4.38299990       1.15680559E-05
   4.38999987       1.15393705E-05
   4.39699984       1.15125040E-05
   4.40399981       1.14875411E-05
   4.41099977       1.14645700E-05
   4.41800022       1.14436752E-05
   4.42500019       1.14249433E-05
   4.43200016       1.14084478E-05
   4.43900013       1.13942588E-05
   4.44600010       1.13824326E-05
   4.45300007       1.13730084E-05
   4.46000004       1.13660071E-05
   4.46700001       1.13614296E-05
   4.47399998       1.13592687E-05
   4.48099995       1.13595197E-05
   4.48799992       1.13621782E-05
   4.49499989       1.13672459E-05
   4.50199986       1.13747074E-05
   4.50899982       1.13845445E-05
   4.51599979       1.13967226E-05
   4.52299976       1.14111981E-05
   4.53000021       1.14279173E-05
   4.53700018       1.14468148E-05
   4.54400015       1.14678132E-05
   4.55100012       1.14908262E-05
   4.55800009       1.15157709E-05
   4.56500006       1.15425719E-05
   4.57200003       1.15711546E-05
   4.57900000       1.16014426E-05
   4.58599997       1.16333495E-05
   4.59299994       1.16667761E-05
   4.59999990       1.17016198E-05
   4.60699987       1.17377767E-05
   4.61399984       1.17751406E-05
   4.62099981       1.18135995E-05
   4.62799978       1.18530397E-05
   4.63500023       1.18933522E-05
   4.64200020       1.19344304E-05
   4.64900017       1.19761798E-05
   4.65600014       1.20185005E-05
   4.66300011       1.20612849E-05
   4.67000008       1.21044122E-05
   4.67700005       1.21477706E-05
   4.68400002       1.21912453E-05
   4.69099998       1.22347383E-05
   4.69799995       1.22781557E-05
   4.70499992       1.23214040E-05
   4.71199989       1.23644031E-05
   4.71899986       1.24070702E-05
   4.72599983       1.24493308E-05
   4.73299980       1.24911085E-05
   4.73999977       1.25323231E-05
   4.74700022       1.25728866E-05
   4.75400019       1.26127134E-05
   4.76100016       1.26517289E-05
   4.76800013       1.26898740E-05
   4.77500010       1.27270978E-05
   4.78200006       1.27633575E-05
   4.78900003       1.27986077E-05
   4.79600000       1.28328038E-05
   4.80299997       1.28659003E-05
   4.80999994       1.28978481E-05
   4.81699991       1.29285991E-05
   4.82399988       1.29581031E-05
   4.83099985       1.29863165E-05
   4.83799982       1.30132057E-05
   4.84499979       1.30387580E-05
   4.85200024       1.30629687E-05
   4.85900021       1.30858416E-05
   4.86600018       1.31073730E-05
   4.87300014       1.31275438E-05
   4.88000011       1.31463294E-05
   4.88700008       1.31636980E-05
   4.89400005       1.31796260E-05
   4.90100002       1.31940915E-05
   4.90799999       1.32070827E-05
   4.91499996       1.32185969E-05
   4.92199993       1.32286432E-05
   4.92899990       1.32372379E-05
   4.93599987       1.32443938E-05
   4.94299984       1.32501145E-05
   4.94999981       1.32543855E-05
   4.95699978       1.32571895E-05
   4.96400023       1.32585110E-05
   4.97100019       1.32583473E-05
   4.97800016       1.32567084E-05
   4.98500013       1.32536097E-05
   4.99200010       1.32490741E-05