  -1.00000000       0.00000000    
 -0.992999971       1.66013818E-32
 -0.986000001       1.12271815E-29
 -0.978999972       3.38931002E-28
 -0.972000003       3.47498930E-27
 -0.964999974       1.69123551E-26
 -0.958000004       3.20311116E-26
 -0.950999975      -1.09486486E-25
 -0.944000006      -1.09525438E-24
 -0.936999977      -4.75101380E-24
 -0.930000007      -1.43901230E-23
 -0.922999978      -3.39160491E-23
 -0.916000009      -6.50264607E-23
 -0.908999979      -1.03865459E-22
 -0.902000010      -1.41649139E-22
 -0.894999981      -1.75512704E-22
 -0.888000011      -2.32265036E-22
 -0.880999982      -3.96922471E-22
 -0.874000013      -8.23201674E-22
 -0.866999984      -1.69425613E-21
 -0.860000014      -3.11112807E-21
 -0.852999985      -4.92061191E-21
 -0.846000016      -6.54613167E-21
 -0.838999987      -6.92920556E-21
 -0.832000017      -4.68725408E-21
 -0.824999988       1.48442044E-21
 -0.818000019       1.22881315E-20
 -0.810999990       2.74583574E-20
 -0.804000020       4.58981455E-20
 -0.796999991       6.65143233E-20
 -0.790000021       8.95709295E-20
 -0.782999992       1.17898596E-19
 -0.776000023       1.56989639E-19
 -0.768999994       2.13188238E-19
 -0.762000024       2.90000786E-19
 -0.754999995       3.83799009E-19
 -0.748000026       4.81270431E-19
 -0.740999997       5.61080745E-19
 -0.734000027       6.00765873E-19
 -0.726999998       5.86960125E-19
 -0.720000029       5.23756340E-19
 -0.713000000       4.32124141E-19
 -0.705999970       3.34824411E-19
 -0.699000001       2.27042751E-19
 -0.691999972       4.19096906E-20
 -0.685000002      -3.71276166E-19
 -0.677999973      -1.23487664E-18
 -0.671000004      -2.78167150E-18
 -0.663999975      -5.14629343E-18
 -0.657000005      -8.23486341E-18
 -0.649999976      -1.16202059E-17
 -0.643000007      -1.45189603E-17
 -0.635999978      -1.58940951E-17
 -0.629000008      -1.46903968E-17
 -0.621999979      -1.01600237E-17
 -0.615000010      -2.18774383E-18
 -0.607999980       8.49843707E-18
 -0.601000011       2.03303210E-17
 -0.593999982       3.11588382E-17
 -0.587000012       3.87298569E-17
 -0.579999983       4.12565396E-17
 -0.573000014       3.79230613E-17
 -0.565999985       2.91655778E-17
 -0.559000015       1.66441312E-17
 -0.551999986       2.91864682E-18
 -0.545000017      -9.06695251E-18
 -0.537999988      -1.65458225E-17
 -0.531000018      -1.74125407E-17
 -0.523999989      -1.05862724E-17
 -0.517000020       3.70569635E-18
 -0.509999990       2.36435930E-17
 -0.503000021       4.54961480E-17
 -0.495999992       6.33623195E-17
 -0.488999993       6.92247933E-17
 -0.481999993       5.36576909E-17
 -0.474999994       7.46978835E-18
 -0.467999995      -7.56925715E-17
 -0.460999995      -1.96166769E-16
 -0.453999996      -3.45332236E-16
 -0.446999997      -5.03989051E-16
 -0.439999998      -6.43084037E-16
 -0.432999998      -7.27359209E-16
 -0.425999999      -7.21717652E-16
 -0.419000000      -5.99206618E-16
 -0.412000000      -3.48812535E-16
 -0.405000001       1.89947668E-17
 -0.398000002       4.70680803E-16
 -0.391000003       9.52835197E-16
 -0.384000003       1.39974164E-15
 -0.377000004       1.74380378E-15
 -0.370000005       1.92660714E-15
 -0.363000005       1.90833453E-15
 -0.356000006       1.67384679E-15
 -0.349000007       1.23470373E-15
 -0.342000008       6.27405298E-16
 -0.335000008      -9.11800792E-17
 -0.328000009      -8.50066860E-16
 -0.321000010      -1.57123712E-15
 -0.314000010      -2.17720650E-15
 -0.307000011      -2.59906914E-15
 -0.300000012      -2.78497233E-15
 -0.293000013      -2.70845434E-15
 -0.286000013      -2.37534127E-15
 -0.279000014      -1.82727623E-15
 -0.272000015      -1.13992233E-15
 -0.264999986      -4.14639939E-16
 -0.257999986       2.36079756E-16
 -0.250999987       7.07330797E-16
 -0.244000003       9.21032710E-16
 -0.237000003       8.41427760E-16
 -0.230000004       4.83134199E-16
 -0.223000005      -9.02179027E-17
 -0.216000006      -7.76367159E-16
 -0.209000006      -1.45114214E-15
 -0.202000007      -1.98741924E-15
 -0.194999993      -2.27214216E-15
 -0.187999994      -2.21845256E-15
 -0.180999994      -1.77210262E-15
 -0.173999995      -9.13471353E-16
 -0.166999996       3.42099958E-16
 -0.159999996       1.94290808E-15
 -0.152999997       3.79709497E-15
 -0.145999998       5.76748037E-15
 -0.138999999       7.66848319E-15
 -0.131999999       9.27006749E-15
 -0.125000000       1.03133071E-14
 -0.118000001       1.05399122E-14
 -0.111000001       9.73394508E-15
 -0.104000002       7.76950373E-15
  -9.70000029E-02   4.65429739E-15
  -9.00000036E-02   5.57415071E-16
  -8.29999968E-02  -4.18896883E-15
  -7.59999976E-02  -9.11970813E-15
  -6.89999983E-02  -1.36974342E-14
  -6.19999990E-02  -1.73950938E-14
  -5.49999997E-02  -1.97851633E-14
  -4.80000004E-02  -2.06170581E-14
  -4.10000011E-02  -1.98653943E-14
  -3.40000018E-02  -1.77370885E-14
  -2.70000007E-02  -1.46338342E-14
  -1.99999996E-02  -1.10762670E-14
  -1.30000003E-02  -7.60449409E-15
  -6.00000005E-03  -4.67479389E-15
   1.00000005E-03  -2.57281768E-15
   8.00000038E-03  -1.35969138E-15
   1.49999997E-02  -8.60414956E-16
   2.19999999E-02  -6.95688647E-16
   2.89999992E-02  -3.50920271E-16
   3.59999985E-02   7.29035487E-16
   4.30000015E-02   3.03333404E-15
   5.00000007E-02   6.88102927E-15
   5.70000000E-02   1.23327616E-14
   6.40000030E-02   1.91305169E-14
   7.10000023E-02   2.66764692E-14
   7.80000016E-02   3.40602926E-14
   8.50000009E-02   4.01407118E-14
   9.20000002E-02   4.36809097E-14
   9.89999995E-02   4.35280948E-14
  0.105999999       3.88165384E-14
  0.112999998       2.91631614E-14
  0.119999997       1.48185483E-14
  0.127000004      -3.26289394E-15
  0.134000003      -2.34603258E-14
  0.141000003      -4.36406248E-14
  0.148000002      -6.14158924E-14
  0.155000001      -7.44686634E-14
  0.162000000      -8.08924867E-14
  0.169000000      -7.94892377E-14
  0.175999999      -6.99704305E-14
  0.182999998      -5.30271695E-14
  0.189999998      -3.02579142E-14
  0.196999997      -3.97014337E-15
  0.203999996       2.31067844E-14
  0.210999995       4.81470265E-14
  0.217999995       6.85411404E-14
  0.224999994       8.21556297E-14
  0.231999993       8.75157152E-14
  0.238999993       8.39066569E-14
  0.246000007       7.14042134E-14
  0.252999991       5.08511114E-14
  0.259999990       2.37949343E-14
  0.266999990      -7.60680056E-15
  0.273999989      -4.07192895E-14
  0.280999988      -7.26127600E-14
  0.287999988      -1.00303907E-13
  0.294999987      -1.21052311E-13
  0.301999986      -1.32686098E-13
  0.308999985      -1.33906517E-13
  0.316000015      -1.24505807E-13
  0.323000014      -1.05434087E-13
  0.330000013      -7.86724811E-14
  0.337000012      -4.69133840E-14
  0.344000012      -1.30986928E-14
  0.351000011       2.00854280E-14
  0.358000010       5.06359650E-14
  0.365000010       7.74701822E-14
  0.372000009       1.00404778E-13
  0.379000008       1.19879936E-13
  0.386000007       1.36505919E-13
  0.393000007       1.50568292E-13
  0.400000006       1.61645301E-13
  0.407000005       1.68462751E-13
  0.414000005       1.69041281E-13
  0.421000004       1.61102143E-13
  0.428000003       1.42617756E-13
  0.435000002       1.12350389E-13
  0.442000002       7.02324687E-14
  0.449000001       1.74992416E-14
  0.456000000      -4.34303709E-14
  0.463000000      -1.09248324E-13
  0.469999999      -1.76107135E-13
  0.476999998      -2.39912392E-13
  0.483999997      -2.96503870E-13
  0.490999997      -3.41752912E-13
  0.497999996      -3.71673449E-13
  0.504999995      -3.82666582E-13
  0.512000024      -3.71974776E-13
  0.518999994      -3.38325152E-13
  0.526000023      -2.82618520E-13
  0.532999992      -2.08431891E-13
  0.540000021      -1.22081802E-13
  0.546999991      -3.20759586E-14
  0.554000020       5.20558972E-14
  0.560999990       1.21359736E-13
  0.568000019       1.69123125E-13
  0.574999988       1.92174442E-13
  0.582000017       1.91442402E-13
  0.588999987       1.71592883E-13
  0.596000016       1.39823984E-13
  0.602999985       1.04155230E-13
  0.610000014       7.17039275E-14
  0.616999984       4.74398082E-14
  0.624000013       3.37462500E-14
  0.630999982       3.08370713E-14
  0.638000011       3.77833581E-14
  0.644999981       5.36976232E-14
  0.652000010       7.85811235E-14
  0.658999979       1.13486165E-13
  0.666000009       1.59927627E-13
  0.672999978       2.18796105E-13
  0.680000007       2.89255572E-13
  0.686999977       3.68155484E-13
  0.694000006       4.50320716E-13
  0.700999975       5.29750506E-13
  0.708000004       6.01381683E-13
  0.714999974       6.62794093E-13
  0.722000003       7.15173092E-13
  0.728999972       7.63046310E-13
  0.736000001       8.12720984E-13
  0.742999971       8.69827376E-13
  0.750000000       9.36753821E-13
  0.757000029       1.01087725E-12
  0.763999999       1.08430159E-12
  0.771000028       1.14534088E-12
  0.777999997       1.18138409E-12
  0.785000026       1.18228344E-12
  0.791999996       1.14316152E-12
  0.799000025       1.06568270E-12
  0.805999994       9.57323413E-13
  0.813000023       8.28845402E-13
  0.819999993       6.90798818E-13
  0.827000022       5.50219484E-13
  0.833999991       4.08603761E-13
  0.841000021       2.61768011E-13
  0.847999990       1.01511701E-13
  0.855000019      -8.16680504E-14
  0.861999989      -2.95946779E-13
  0.869000018      -5.46689430E-13
  0.875999987      -8.36701043E-13
  0.883000016      -1.16803138E-12
  0.889999986      -1.54446410E-12
  0.897000015      -1.97341752E-12
  0.903999984      -2.46612366E-12
  0.911000013      -3.03554035E-12
  0.917999983      -3.69239361E-12
  0.925000012      -4.44058462E-12
  0.931999981      -5.27367169E-12
  0.939000010      -6.17402006E-12
  0.945999980      -7.11535691E-12
  0.953000009      -8.06845910E-12
  0.959999979      -9.00849187E-12
  0.967000008      -9.92189404E-12
  0.973999977      -1.08106440E-11
  0.981000006      -1.16925757E-11
  0.987999976      -1.25975844E-11
  0.995000005      -1.35609319E-11
   1.00199997      -1.46158901E-11
   1.00899994      -1.57879352E-11
   1.01600003      -1.70923709E-11
   1.02300000      -1.85356834E-11
   1.02999997      -2.01196317E-11
   1.03699994      -2.18461967E-11
   1.04400003      -2.37208690E-11
   1.05100000      -2.57526118E-11
   1.05799997      -2.79502515E-11
   1.06500006      -3.03158644E-11
   1.07200003      -3.28378678E-11
   1.07900000      -3.54860620E-11
   1.08599997      -3.82105875E-11
   1.09300005      -4.09453686E-11
   1.10000002      -4.36148270E-11
   1.10699999      -4.61414622E-11
   1.11399996      -4.84516038E-11
   1.12100005      -5.04768033E-11
   1.12800002      -5.21505027E-11
   1.13499999      -5.34002946E-11
   1.14199996      -5.41388046E-11
   1.14900005      -5.42563043E-11
   1.15600002      -5.36169165E-11
   1.16299999      -5.20607620E-11
   1.16999996      -4.94096430E-11
   1.17700005      -4.54746345E-11
   1.18400002      -4.00621862E-11
   1.19099998      -3.29743940E-11
   1.19799995      -2.40044651E-11
   1.20500004      -1.29256146E-11
   1.21200001       5.20813048E-13
   1.21899998       1.66367007E-11
   1.22599995       3.57755006E-11
   1.23300004       5.83438783E-11
   1.24000001       8.47981893E-11
   1.24699998       1.15637958E-10
   1.25399995       1.51399115E-10
   1.26100004       1.92652921E-10
   1.26800001       2.40011150E-10
   1.27499998       2.94135716E-10
   1.28199995       3.55752011E-10
   1.28900003       4.25660035E-10
   1.29600000       5.04740083E-10
   1.30299997       5.93954108E-10
   1.30999994       6.94344304E-10
   1.31700003       8.07023726E-10
   1.32400000       9.33170541E-10
   1.33099997       1.07402476E-09
   1.33800006       1.23089539E-09
   1.34500003       1.40517431E-09
   1.35200000       1.59835789E-09
   1.35899997       1.81206372E-09
   1.36600006       2.04804640E-09
   1.37300003       2.30820429E-09
   1.38000000       2.59458233E-09
   1.38699996       2.90936764E-09
   1.39400005       3.25489191E-09
   1.40100002       3.63362473E-09
   1.40799999       4.04817913E-09
   1.41499996       4.50132198E-09
   1.42200005       4.99599073E-09
   1.42900002       5.53530866E-09
   1.43599999       6.12261086E-09
   1.44299996       6.76144563E-09
   1.45000005       7.45556861E-09
   1.45700002       8.20892865E-09
   1.46399999       9.02567088E-09
   1.47099996       9.91012783E-09
   1.47800004       1.08668301E-08
   1.48500001       1.19004904E-08
   1.49199998       1.30160194E-08
   1.49899995       1.42185339E-08
   1.50600004       1.55133648E-08
   1.51300001       1.69060765E-08
   1.51999998       1.84024369E-08
   1.52699995       2.00084038E-08
   1.53400004       2.17301146E-08
   1.54100001       2.35738433E-08
   1.54799998       2.55459973E-08
   1.55499995       2.76531296E-08
   1.56200004       2.99019440E-08
   1.56900001       3.22992655E-08
   1.57599998       3.48520217E-08
   1.58299994       3.75672364E-08
   1.59000003       4.04520293E-08
   1.59700000       4.35135696E-08
   1.60399997       4.67590411E-08
   1.61099994       5.01955633E-08
   1.61800003       5.38301173E-08
   1.62500000       5.76695456E-08
   1.63199997       6.17205842E-08
   1.63900006       6.59897879E-08
   1.64600003       7.04834733E-08
   1.65300000       7.52076232E-08
   1.65999997       8.01678866E-08
   1.66700006       8.53696278E-08
   1.67400002       9.08178279E-08
   1.68099999       9.65170557E-08
   1.68799996       1.02471283E-07
   1.69500005       1.08683935E-07
   1.70200002       1.15157825E-07
   1.70899999       1.21895170E-07
   1.71599996       1.28897625E-07
   1.72300005       1.36166079E-07
   1.73000002       1.43700845E-07
   1.73699999       1.51501197E-07
   1.74399996       1.59565630E-07
   1.75100005       1.67891713E-07
   1.75800002       1.76476192E-07
   1.76499999       1.85314846E-07
   1.77199996       1.94402290E-07
   1.77900004       2.03732128E-07
   1.78600001       2.13296971E-07
   1.79299998       2.23088350E-07
   1.79999995       2.33096756E-07
   1.80700004       2.43311604E-07
   1.81400001       2.53721396E-07
   1.82099998       2.64313485E-07
   1.82799995       2.75074086E-07
   1.83500004       2.85988477E-07
   1.84200001       2.97040657E-07
   1.84899998       3.08213544E-07
   1.85599995       3.19489516E-07
   1.86300004       3.30849929E-07
   1.87000000       3.42274888E-07
   1.87699997       3.53743701E-07
   1.88399994       3.65234882E-07
   1.89100003       3.76726121E-07
   1.89800000       3.88194593E-07
   1.90499997       3.99616482E-07
   1.91199994       4.10967658E-07
   1.91900003       4.22223223E-07
   1.92600000       4.33357854E-07
   1.93299997       4.44345858E-07
   1.94000006       4.55161540E-07
   1.94700003       4.65779181E-07
   1.95400000       4.76172715E-07
   1.96099997       4.86316026E-07
   1.96800005       4.96183020E-07
   1.97500002       5.05748119E-07
   1.98199999       5.14985686E-07
   1.98899996       5.23870597E-07
   1.99600005       5.32377896E-07
   2.00300002       5.40483370E-07
   2.00999999       5.48163143E-07
   2.01699996       5.55394649E-07
   2.02399993       5.62155549E-07
   2.03099990       5.68424866E-07
   2.03800011       5.74182195E-07
   2.04500008       5.79408038E-07
   2.05200005       5.84084034E-07
   2.05900002       5.88193245E-07
   2.06599998       5.91720266E-07
   2.07299995       5.94650317E-07
   2.07999992       5.96970153E-07
   2.08699989       5.98667896E-07
   2.09400010       5.99733710E-07
   2.10100007       6.00158955E-07
   2.10800004       5.99935845E-07
   2.11500001       5.99058239E-07
   2.12199998       5.97521876E-07
   2.12899995       5.95324025E-07
   2.13599992       5.92463721E-07
   2.14299989       5.88940850E-07
   2.15000010       5.84756947E-07
   2.15700006       5.79915309E-07
   2.16400003       5.74420881E-07
   2.17100000       5.68280655E-07
   2.17799997       5.61502986E-07
   2.18499994       5.54097085E-07
   2.19199991       5.46073295E-07
   2.19899988       5.37443555E-07
   2.20600009       5.28221790E-07
   2.21300006       5.18423576E-07
   2.22000003       5.08065000E-07
   2.22700000       4.97163285E-07
   2.23399997       4.85736052E-07
   2.24099994       4.73802942E-07
   2.24799991       4.61384758E-07
   2.25500011       4.48503698E-07
   2.26200008       4.35182017E-07
   2.26900005       4.21442252E-07
   2.27600002       4.07307340E-07
   2.28299999       3.92801155E-07
   2.28999996       3.77948965E-07
   2.29699993       3.62776660E-07
   2.30399990       3.47309822E-07
   2.31100011       3.31574142E-07
   2.31800008       3.15595344E-07
   2.32500005       2.99399574E-07
   2.33200002       2.83013605E-07
   2.33899999       2.66464298E-07
   2.34599996       2.49777742E-07
   2.35299993       2.32978991E-07
   2.35999990       2.16092843E-07
   2.36700010       1.99144324E-07
   2.37400007       1.82158544E-07
   2.38100004       1.65160273E-07
   2.38800001       1.48173044E-07
   2.39499998       1.31218954E-07
   2.40199995       1.14319448E-07
   2.40899992       9.74959420E-08
   2.41599989       8.07694036E-08
   2.42300010       6.41597850E-08
   2.43000007       4.76851341E-08
   2.43700004       3.13617328E-08
   2.44400001       1.52050816E-08
   2.45099998      -7.69273367E-10
   2.45799994      -1.65463074E-08
   2.46499991      -3.21122329E-08
   2.47199988      -4.74554476E-08
   2.47900009      -6.25662935E-08
   2.48600006      -7.74360416E-08
   2.49300003      -9.20560339E-08
   2.50000000      -1.06418327E-07
   2.50699997      -1.20516532E-07
   2.51399994      -1.34346323E-07
   2.52099991      -1.47904771E-07
   2.52800012      -1.61189291E-07
   2.53500009      -1.74197226E-07
   2.54200006      -1.86926286E-07
   2.54900002      -1.99375961E-07
   2.55599999      -2.11547800E-07
   2.56299996      -2.23444431E-07
   2.56999993      -2.35068455E-07
   2.57699990      -2.46422331E-07
   2.58400011      -2.57508447E-07
   2.59100008      -2.68330496E-07
   2.59800005      -2.78893282E-07
   2.60500002      -2.89202063E-07
   2.61199999      -2.99260961E-07
   2.61899996      -3.09073812E-07
   2.62599993      -3.18644481E-07
   2.63299990      -3.27978199E-07
   2.64000010      -3.37081048E-07
   2.64700007      -3.45959137E-07
   2.65400004      -3.54617157E-07
   2.66100001      -3.63058689E-07
   2.66799998      -3.71286887E-07
   2.67499995      -3.79305391E-07
   2.68199992      -3.87118320E-07
   2.68899989      -3.94728886E-07
   2.69600010      -4.02138994E-07
   2.70300007      -4.09349525E-07
   2.71000004      -4.16361075E-07
   2.71700001      -4.23175067E-07
   2.72399998      -4.29793033E-07
   2.73099995      -4.36215515E-07
   2.73799992      -4.42440694E-07
   2.74499989      -4.48465613E-07
   2.75200009      -4.54287203E-07
   2.75900006      -4.59903049E-07
   2.76600003      -4.65310620E-07
   2.77300000      -4.70506677E-07
   2.77999997      -4.75486701E-07
   2.78699994      -4.80245603E-07
   2.79399991      -4.84778525E-07
   2.80100012      -4.89081458E-07
   2.80800009      -4.93150310E-07
   2.81500006      -4.96979908E-07
   2.82200003      -5.00563601E-07
   2.82900000      -5.03895308E-07
   2.83599997      -5.06969457E-07
   2.84299994      -5.09781785E-07
   2.84999990      -5.12328484E-07
   2.85700011      -5.14605631E-07
   2.86400008      -5.16608623E-07
   2.87100005      -5.18333138E-07
   2.87800002      -5.19775654E-07
   2.88499999      -5.20934123E-07
   2.89199996      -5.21806328E-07
   2.89899993      -5.22390224E-07
   2.90599990      -5.22683649E-07
   2.91300011      -5.22686378E-07
   2.92000008      -5.22399603E-07
   2.92700005      -5.21826450E-07
   2.93400002      -5.20970843E-07
   2.94099998      -5.19836306E-07
   2.94799995      -5.18427157E-07
   2.95499992      -5.16748173E-07
   2.96199989      -5.14806175E-07
   2.96900010      -5.12609631E-07
   2.97600007      -5.10167467E-07
   2.98300004      -5.07489460E-07
   2.99000001      -5.04586296E-07
   2.99699998      -5.01470140E-07
   3.00399995      -4.98155202E-07
   3.01099992      -4.94657115E-07
   3.01799989      -4.90991795E-07
   3.02500010      -4.87174987E-07
   3.03200006      -4.83223403E-07
   3.03900003      -4.79155688E-07
   3.04600000      -4.74992305E-07
   3.05299997      -4.70754856E-07
   3.05999994      -4.66465508E-07
   3.06699991      -4.62146375E-07
   3.07399988      -4.57820988E-07
   3.08100009      -4.53514218E-07
   3.08800006      -4.49252013E-07
   3.09500003      -4.45060607E-07
   3.10200000      -4.40966090E-07
   3.10899997      -4.36995094E-07
   3.11599994      -4.33175330E-07
   3.12299991      -4.29536072E-07
   3.13000011      -4.26107135E-07
   3.13700008      -4.22918902E-07
   3.14400005      -4.20001328E-07
   3.15100002      -4.17384427E-07
   3.15799999      -4.15099180E-07
   3.16499996      -4.13177474E-07
   3.17199993      -4.11651712E-07
   3.17899990      -4.10554435E-07
   3.18600011      -4.09917504E-07
   3.19300008      -4.09773065E-07
   3.20000005      -4.10154570E-07
   3.20700002      -4.11095442E-07
   3.21399999      -4.12629674E-07
   3.22099996      -4.14790151E-07
   3.22799993      -4.17609300E-07
   3.23499990      -4.21119836E-07
   3.24200010      -4.25355410E-07
   3.24900007      -4.30350241E-07
   3.25600004      -4.36138009E-07
   3.26300001      -4.42751144E-07
   3.26999998      -4.50221961E-07
   3.27699995      -4.58583401E-07
   3.28399992      -4.67869313E-07
   3.29099989      -4.78113861E-07
   3.29800010      -4.89350043E-07
   3.30500007      -5.01610373E-07
   3.31200004      -5.14927024E-07
   3.31900001      -5.29332794E-07
   3.32599998      -5.44861848E-07
   3.33299994      -5.61547495E-07
   3.33999991      -5.79422249E-07
   3.34699988      -5.98517431E-07
   3.35400009      -6.18863908E-07
   3.36100006      -6.40493624E-07
   3.36800003      -6.63439096E-07
   3.37500000      -6.87732495E-07
   3.38199997      -7.13404290E-07
   3.38899994      -7.40483699E-07
   3.39599991      -7.69000280E-07
   3.40300012      -7.98984388E-07
   3.41000009      -8.30466774E-07
   3.41700006      -8.63476714E-07
   3.42400002      -8.98041264E-07
   3.43099999      -9.34185891E-07
   3.43799996      -9.71935265E-07
   3.44499993      -1.01131525E-06
   3.45199990      -1.05235165E-06
   3.45900011      -1.09506720E-06
   3.46600008      -1.13948249E-06
   3.47300005      -1.18561559E-06
   3.48000002      -1.23348400E-06
   3.48699999      -1.28310421E-06
   3.49399996      -1.33449134E-06
   3.50099993      -1.38765688E-06
   3.50799990      -1.44260741E-06
   3.51500010      -1.49934669E-06
   3.52200007      -1.55787802E-06
   3.52900004      -1.61820310E-06
   3.53600001      -1.68032034E-06
   3.54299998      -1.74422235E-06
   3.54999995      -1.80989730E-06
   3.55699992      -1.87732860E-06
   3.56399989      -1.94649760E-06
   3.57100010      -2.01738203E-06
   3.57800007      -2.08995607E-06
   3.58500004      -2.16418471E-06
   3.59200001      -2.24002883E-06
   3.59899998      -2.31744616E-06
   3.60599995      -2.39638871E-06
   3.61299992      -2.47680532E-06
   3.61999989      -2.55863620E-06
   3.62700009      -2.64181540E-06
   3.63400006      -2.72626880E-06
   3.64100003      -2.81191910E-06
   3.64800000      -2.89868467E-06
   3.65499997      -2.98647706E-06
   3.66199994      -3.07519986E-06
   3.66899991      -3.16475257E-06
   3.67600012      -3.25502606E-06
   3.68300009      -3.34591027E-06
   3.69000006      -3.43728902E-06
   3.69700003      -3.52903749E-06
   3.70400000      -3.62102423E-06
   3.71099997      -3.71311216E-06
   3.71799994      -3.80515985E-06
   3.72499990      -3.89702291E-06
   3.73200011      -3.98855354E-06
   3.73900008      -4.07959669E-06
   3.74600005      -4.16999410E-06
   3.75300002      -4.25958251E-06
   3.75999999      -4.34819594E-06
   3.76699996      -4.43566751E-06
   3.77399993      -4.52182712E-06
   3.78099990      -4.60650062E-06
   3.78800011      -4.68951157E-06
   3.79500008      -4.77068079E-06
   3.80200005      -4.84983411E-06
   3.80900002      -4.92679692E-06
   3.81599998      -5.00139367E-06
   3.82299995      -5.07344794E-06
   3.82999992      -5.14278463E-06
   3.83699989      -5.20922868E-06
   3.84400010      -5.27261182E-06
   3.85100007      -5.33276761E-06
   3.85800004      -5.38953600E-06
   3.86500001      -5.44275781E-06
   3.87199998      -5.49227434E-06
   3.87899995      -5.53793416E-06
   3.88599992      -5.57959584E-06
   3.89299989      -5.61712795E-06
   3.90000010      -5.65040500E-06
   3.90700006      -5.67929919E-06
   3.91400003      -5.70369184E-06
   3.92100000      -5.72347653E-06
   3.92799997      -5.73855641E-06
   3.93499994      -5.74884643E-06
   3.94199991      -5.75426975E-06
   3.94899988      -5.75475633E-06
   3.95600009      -5.75024114E-06
   3.96300006      -5.74067963E-06
   3.97000003      -5.72603585E-06
   3.97700000      -5.70628799E-06
   3.98399997      -5.68141741E-06
   3.99099994      -5.65141863E-06
   3.99799991      -5.61629531E-06
   4.00500011      -5.57606700E-06
   4.01200008      -5.53076916E-06
   4.01900005      -5.48044363E-06
   4.02600002      -5.42514636E-06
   4.03299999      -5.36494417E-06
   4.03999996      -5.29991394E-06
   4.04699993      -5.23014478E-06
   4.05399990      -5.15573947E-06
   4.06099987      -5.07681079E-06
   4.06799984      -4.99347971E-06
   4.07499981      -4.90587536E-06
   4.08199978      -4.81414099E-06
   4.08900023      -4.71843077E-06
   4.09600019      -4.61890750E-06
   4.10300016      -4.51573987E-06
   4.11000013      -4.40910799E-06
   4.11700010      -4.29919965E-06
   4.12400007      -4.18620903E-06
   4.13100004      -4.07033895E-06
   4.13800001      -3.95179450E-06
   4.14499998      -3.83078850E-06
   4.15199995      -3.70753901E-06
   4.15899992      -3.58227294E-06
   4.16599989      -3.45522130E-06
   4.17299986      -3.32661330E-06
   4.17999983      -3.19667993E-06
   4.18699980      -3.06565448E-06
   4.19399977      -2.93377525E-06
   4.20100021      -2.80128120E-06
   4.20800018      -2.66840857E-06
   4.21500015      -2.53539019E-06
   4.22200012      -2.40245367E-06
   4.22900009      -2.26982979E-06
   4.23600006      -2.13775252E-06
   4.24300003      -2.00645354E-06
   4.25000000      -1.87615456E-06
   4.25699997      -1.74706736E-06
   4.26399994      -1.61939647E-06
   4.27099991      -1.49334687E-06
   4.27799988      -1.36912240E-06
   4.28499985      -1.24691894E-06
   4.29199982      -1.12691839E-06
   4.29899979      -1.00928855E-06
   4.30600023      -8.94192226E-07
   4.31300020      -7.81792721E-07
   4.32000017      -6.72249598E-07
   4.32700014      -5.65709058E-07
   4.33400011      -4.62296896E-07
   4.34100008      -3.62123757E-07
   4.34800005      -2.65295768E-07
   4.35500002      -1.71919595E-07
   4.36199999      -8.20961787E-08
   4.36899996       4.09075751E-09
   4.37599993       8.65792060E-08
   4.38299990       1.65320515E-07
   4.38999987       2.40267553E-07
   4.39699984       3.11371394E-07
   4.40399981       3.78591835E-07
   4.41099977       4.41909549E-07
   4.41800022       5.01327918E-07
   4.42500019       5.56861039E-07
   4.43200016       6.08519485E-07
   4.43900013       6.56308828E-07
   4.44600010       7.00243106E-07
   4.45300007       7.40359042E-07
   4.46000004       7.76713989E-07
   4.46700001       8.09370590E-07
   4.47399998       8.38383585E-07
   4.48099995       8.63801915E-07
   4.48799992       8.85684813E-07
   4.49499989       9.04115268E-07
   4.50199986       9.19193496E-07
   4.50899982       9.31017553E-07
   4.51599979       9.39670713E-07
   4.52299976       9.45228635E-07
   4.53000021       9.47779142E-07
   4.53700018       9.47433932E-07
   4.54400015       9.44317094E-07
   4.55100012       9.38545384E-07
   4.55800009       9.30216629E-07
   4.56500006       9.19421893E-07
   4.57200003       9.06264802E-07
   4.57900000       8.90869842E-07
   4.58599997       8.73368151E-07
   4.59299994       8.53875406E-07
   4.59999990       8.32484716E-07
   4.60699987       8.09282824E-07
   4.61399984       7.84372730E-07
   4.62099981       7.57878126E-07
   4.62799978       7.29924921E-07
   4.63500023       7.00618727E-07
   4.64200020       6.70041118E-07
   4.64900017       6.38269853E-07
   4.65600014       6.05400942E-07
   4.66300011       5.71549037E-07
   4.67000008       5.36824075E-07
   4.67700005       5.01311035E-07
   4.68400002       4.65071111E-07
   4.69099998       4.28166487E-07
   4.69799995       3.90681009E-07
   4.70499992       3.52714892E-07
   4.71199989       3.14359340E-07
   4.71899986       2.75677195E-07
   4.72599983       2.36710179E-07
   4.73299980       1.97505074E-07
   4.73999977       1.58132735E-07
   4.74700022       1.18678933E-07
   4.75400019       7.92163490E-08
   4.76100016       3.97877393E-08
   4.76800013       4.19110607E-10
   4.77500010      -3.88517272E-08
   4.78200006      -7.79602232E-08
   4.78900003      -1.16830151E-07
   4.79600000      -1.55403043E-07
   4.80299997      -1.93651459E-07
   4.80999994      -2.31561216E-07
   4.81699991      -2.69101264E-07
   4.82399988      -3.06212485E-07
   4.83099985      -3.42827462E-07
   4.83799982      -3.78899500E-07
   4.84499979      -4.14411204E-07
   4.85200024      -4.49352399E-07
   4.85900021      -4.83691281E-07
   4.86600018      -5.17368790E-07
   4.87300014      -5.50322738E-07
   4.88000011      -5.82517373E-07
   4.88700008      -6.13945019E-07
   4.89400005      -6.44599368E-07
   4.90100002      -6.74447790E-07
   4.90799999      -7.03431283E-07
   4.91499996      -7.31492491E-07
   4.92199993      -7.58603164E-07
   4.92899990      -7.84760232E-07
   4.93599987      -8.09957442E-07
   4.94299984      -8.34160687E-07
   4.94999981      -8.57315058E-07
   4.95699978      -8.79375136E-07
   4.96400023      -9.00326370E-07
   4.97100019      -9.20175466E-07
   4.97800016      -9.38920550E-07
   4.98500013      -9.56529675E-07
   4.99200010      -9.72954922E-07