  -1.00000000      -1.28886729E-26
 -0.992999971      -3.07156641E-24
 -0.986000001      -4.73015356E-23
 -0.978999972      -1.81357797E-22
 -0.972000003       4.34595160E-22
 -0.964999974       7.05752357E-21
 -0.958000004       3.62734984E-20
 -0.950999975       1.22669735E-19
 -0.944000006       3.16272068E-19
 -0.936999977       6.60996926E-19
 -0.930000007       1.15239349E-18
 -0.922999978       1.68793628E-18
 -0.916000009       2.03700526E-18
 -0.908999979       1.86029611E-18
 -0.902000010       7.92760852E-19
 -0.894999981      -1.42926625E-18
 -0.888000011      -4.85616851E-18
 -0.880999982      -9.31155148E-18
 -0.874000013      -1.45393669E-17
 -0.866999984      -2.04920663E-17
 -0.860000014      -2.76173273E-17
 -0.852999985      -3.69014668E-17
 -0.846000016      -4.94395198E-17
 -0.838999987      -6.54807224E-17
 -0.832000017      -8.32128542E-17
 -0.824999988      -9.78647904E-17
 -0.818000019      -1.01833292E-16
 -0.810999990      -8.63285524E-17
 -0.804000020      -4.44734450E-17
 -0.796999991       2.49414972E-17
 -0.790000021       1.14429043E-16
 -0.782999992       2.06974486E-16
 -0.776000023       2.78273775E-16
 -0.768999994       3.01715518E-16
 -0.762000024       2.54437527E-16
 -0.754999995       1.21970005E-16
 -0.748000026      -1.00723421E-16
 -0.740999997      -4.12405175E-16
 -0.734000027      -8.11163802E-16
 -0.726999998      -1.29867451E-15
 -0.720000029      -1.87892321E-15
 -0.713000000      -2.54913824E-15
 -0.705999970      -3.28462182E-15
 -0.699000001      -4.02363223E-15
 -0.691999972      -4.66113845E-15
 -0.685000002      -5.05922700E-15
 -0.677999973      -5.07648656E-15
 -0.671000004      -4.61022838E-15
 -0.663999975      -3.63724672E-15
 -0.657000005      -2.23500528E-15
 -0.649999976      -5.68840752E-16
 -0.643000007       1.15760351E-15
 -0.635999978       2.77537820E-15
 -0.629000008       4.21896777E-15
 -0.621999979       5.55770885E-15
 -0.615000010       6.96511381E-15
 -0.607999980       8.62282928E-15
 -0.601000011       1.05840096E-14
 -0.593999982       1.26446789E-14
 -0.587000012       1.42798489E-14
 -0.579999983       1.46874903E-14
 -0.573000014       1.29493414E-14
 -0.565999985       8.27407279E-15
 -0.559000015       2.51532786E-16
 -0.551999986      -1.09670167E-14
 -0.545000017      -2.46301409E-14
 -0.537999988      -3.95104515E-14
 -0.531000018      -5.41549837E-14
 -0.523999989      -6.71767600E-14
 -0.517000020      -7.74859235E-14
 -0.509999990      -8.43831502E-14
 -0.503000021      -8.74969246E-14
 -0.495999992      -8.66164372E-14
 -0.488999993      -8.15236144E-14
 -0.481999993      -7.19357570E-14
 -0.474999994      -5.76254132E-14
 -0.467999995      -3.87011556E-14
 -0.460999995      -1.59431167E-14
 -0.453999996       8.96866013E-15
 -0.446999997       3.34863430E-14
 -0.439999998       5.45606346E-14
 -0.432999998       6.92873154E-14
 -0.425999999       7.56508097E-14
 -0.419000000       7.31061736E-14
 -0.412000000       6.27585820E-14
 -0.405000001       4.70167016E-14
 -0.398000002       2.87808209E-14
 -0.391000003       1.04119094E-14
 -0.384000003      -7.15839910E-15
 -0.377000004      -2.48289226E-14
 -0.370000005      -4.50403366E-14
 -0.363000005      -7.08367420E-14
 -0.356000006      -1.04568074E-13
 -0.349000007      -1.46689410E-13
 -0.342000008      -1.95121710E-13
 -0.335000008      -2.45470663E-13
 -0.328000009      -2.92103879E-13
 -0.321000010      -3.29762801E-13
 -0.314000010      -3.55155900E-13
 -0.307000011      -3.67941029E-13
 -0.300000012      -3.70687910E-13
 -0.293000013      -3.67768831E-13
 -0.286000013      -3.63530793E-13
 -0.279000014      -3.60411516E-13
 -0.272000015      -3.57738931E-13
 -0.264999986      -3.51755788E-13
 -0.257999986      -3.36986081E-13
 -0.250999987      -3.08547458E-13
 -0.244000003      -2.64607482E-13
 -0.237000003      -2.08040873E-13
 -0.230000004      -1.46554996E-13
 -0.223000005      -9.10577020E-14
 -0.216000006      -5.26857814E-14
 -0.209000006      -3.94534123E-14
 -0.202000007      -5.37053041E-14
 -0.194999993      -9.13519206E-14
 -0.187999994      -1.43266800E-13
 -0.180999994      -1.98435655E-13
 -0.173999995      -2.47753288E-13
 -0.166999996      -2.87044992E-13
 -0.159999996      -3.18101936E-13
 -0.152999997      -3.47224880E-13
 -0.145999998      -3.81737258E-13
 -0.138999999      -4.25790886E-13
 -0.131999999      -4.77198847E-13
 -0.125000000      -5.26778382E-13
 -0.118000001      -5.60807152E-13
 -0.111000001      -5.65986982E-13
 -0.104000002      -5.35205073E-13
  -9.70000029E-02  -4.71861591E-13
  -9.00000036E-02  -3.90836262E-13
  -8.29999968E-02  -3.15281519E-13
  -7.59999976E-02  -2.69976668E-13
  -6.89999983E-02  -2.73398112E-13
  -6.19999990E-02  -3.31369291E-13
  -5.49999997E-02  -4.34813643E-13
  -4.80000004E-02  -5.62769883E-13
  -4.10000011E-02  -6.89891286E-13
  -3.40000018E-02  -7.95847600E-13
  -2.70000007E-02  -8.73095053E-13
  -1.99999996E-02  -9.29836286E-13
  -1.30000003E-02  -9.86618014E-13
  -6.00000005E-03  -1.06738977E-12
   1.00000005E-03  -1.18809726E-12
   8.00000038E-03  -1.34711751E-12
   1.49999997E-02  -1.52150363E-12
   2.19999999E-02  -1.67109642E-12
   2.89999992E-02  -1.74970737E-12
   3.59999985E-02  -1.71981906E-12
   4.30000015E-02  -1.56565852E-12
   5.00000007E-02  -1.29975848E-12
   5.70000000E-02  -9.60260625E-13
   6.40000030E-02  -5.99514904E-13
   7.10000023E-02  -2.67790293E-13
   7.80000016E-02   2.11182360E-15
   8.50000009E-02   2.03698454E-13
   9.20000002E-02   3.55746872E-13
   9.89999995E-02   4.91736480E-13
  0.105999999       6.43793287E-13
  0.112999998       8.27455129E-13
  0.119999997       1.03345490E-12
  0.127000004       1.23016929E-12
  0.134000003       1.37627681E-12
  0.141000003       1.43905070E-12
  0.148000002       1.41118887E-12
  0.155000001       1.31923584E-12
  0.162000000       1.21954562E-12
  0.169000000       1.18237700E-12
  0.175999999       1.26938911E-12
  0.182999998       1.51267909E-12
  0.189999998       1.90337806E-12
  0.196999997       2.39458735E-12
  0.203999996       2.91819368E-12
  0.210999995       3.40980347E-12
  0.217999995       3.83267463E-12
  0.224999994       4.19155249E-12
  0.231999993       4.53081279E-12
  0.238999993       4.91711446E-12
  0.246000007       5.41274794E-12
  0.252999991       6.04968289E-12
  0.259999990       6.81450599E-12
  0.266999990       7.65065702E-12
  0.273999989       8.47800389E-12
  0.280999988       9.22311880E-12
  0.287999988       9.84914927E-12
  0.294999987       1.03737964E-11
  0.301999986       1.08678778E-11
  0.308999985       1.14339059E-11
  0.316000015       1.21716838E-11
  0.323000014       1.31430240E-11
  0.330000013       1.43484764E-11
  0.337000012       1.57249561E-11
  0.344000012       1.71656179E-11
  0.351000011       1.85549423E-11
  0.358000010       1.98061428E-11
  0.365000010       2.08866032E-11
  0.372000009       2.18211681E-11
  0.379000008       2.26710803E-11
  0.386000007       2.34953740E-11
  0.393000007       2.43084945E-11
  0.400000006       2.50496707E-11
  0.407000005       2.55758591E-11
  0.414000005       2.56813858E-11
  0.421000004       2.51377686E-11
  0.428000003       2.37394722E-11
  0.435000002       2.13386080E-11
  0.442000002       1.78554931E-11
  0.449000001       1.32603459E-11
  0.456000000       7.53209821E-12
  0.463000000       6.08715389E-13
  0.469999999      -7.65333890E-12
  0.476999998      -1.74959370E-11
  0.483999997      -2.92475974E-11
  0.490999997      -4.32874535E-11
  0.497999996      -5.99998315E-11
  0.504999995      -7.97376540E-11
  0.512000024      -1.02809608E-10
  0.518999994      -1.29498190E-10
  0.526000023      -1.60102653E-10
  0.532999992      -1.94992467E-10
  0.540000021      -2.34652658E-10
  0.546999991      -2.79704288E-10
  0.554000020      -3.30893063E-10
  0.560999990      -3.89051236E-10
  0.568000019      -4.55048388E-10
  0.574999988      -5.29751021E-10
  0.582000017      -6.14009565E-10
  0.588999987      -7.08680170E-10
  0.596000016      -8.14678103E-10
  0.602999985      -9.33045974E-10
  0.610000014      -1.06501608E-09
  0.616999984      -1.21204746E-09
  0.624000013      -1.37582434E-09
  0.630999982      -1.55822399E-09
  0.638000011      -1.76126058E-09
  0.644999981      -1.98703831E-09
  0.652000010      -2.23772645E-09
  0.658999979      -2.51557730E-09
  0.666000009      -2.82297785E-09
  0.672999978      -3.16252602E-09
  0.680000007      -3.53711016E-09
  0.686999977      -3.94996391E-09
  0.694000006      -4.40468284E-09
  0.700999975      -4.90520469E-09
  0.708000004      -5.45576029E-09
  0.714999974      -6.06081674E-09
  0.722000003      -6.72504363E-09
  0.728999972      -7.45330997E-09
  0.736000001      -8.25071034E-09
  0.742999971      -9.12263420E-09
  0.750000000      -1.00748316E-08
  0.757000029      -1.11134737E-08
  0.763999999      -1.22451871E-08
  0.771000028      -1.34770399E-08
  0.777999997      -1.48165089E-08
  0.785000026      -1.62714109E-08
  0.791999996      -1.78498620E-08
  0.799000025      -1.95602485E-08
  0.805999994      -2.14112461E-08
  0.813000023      -2.34118627E-08
  0.819999993      -2.55714969E-08
  0.827000022      -2.79000076E-08
  0.833999991      -3.04077510E-08
  0.841000021      -3.31055432E-08
  0.847999990      -3.60046357E-08
  0.855000019      -3.91166211E-08
  0.861999989      -4.24533297E-08
  0.869000018      -4.60267273E-08
  0.875999987      -4.98489001E-08
  0.883000016      -5.39319842E-08
  0.889999986      -5.82882400E-08
  0.897000015      -6.29300203E-08
  0.903999984      -6.78698200E-08
  0.911000013      -7.31201908E-08
  0.917999983      -7.86937377E-08
  0.925000012      -8.46030161E-08
  0.931999981      -9.08603965E-08
  0.939000010      -9.74779724E-08
  0.945999980      -1.04467389E-07
  0.953000009      -1.11839867E-07
  0.959999979      -1.19606156E-07
  0.967000008      -1.27776488E-07
  0.973999977      -1.36360683E-07
  0.981000006      -1.45368134E-07
  0.987999976      -1.54807594E-07
  0.995000005      -1.64687123E-07
   1.00199997      -1.75013966E-07
   1.00899994      -1.85794264E-07
   1.01600003      -1.97032875E-07
   1.02300000      -2.08733297E-07
   1.02999997      -2.20897675E-07
   1.03699994      -2.33526919E-07
   1.04400003      -2.46620544E-07
   1.05100000      -2.60176847E-07
   1.05799997      -2.74192899E-07
   1.06500006      -2.88664324E-07
   1.07200003      -3.03585239E-07
   1.07900000      -3.18948139E-07
   1.08599997      -3.34743532E-07
   1.09300005      -3.50959937E-07
   1.10000002      -3.67583738E-07
   1.10699999      -3.84599389E-07
   1.11399996      -4.01989524E-07
   1.12100005      -4.19734903E-07
   1.12800002      -4.37814521E-07
   1.13499999      -4.56205584E-07
   1.14199996      -4.74883279E-07
   1.14900005      -4.93820835E-07
   1.15600002      -5.12989345E-07
   1.16299999      -5.32357944E-07
   1.16999996      -5.51893493E-07
   1.17700005      -5.71561259E-07
   1.18400002      -5.91324465E-07
   1.19099998      -6.11144799E-07
   1.19799995      -6.30982697E-07
   1.20500004      -6.50796835E-07
   1.21200001      -6.70544580E-07
   1.21899998      -6.90182333E-07
   1.22599995      -7.09664846E-07
   1.23300004      -7.28945452E-07
   1.24000001      -7.47976344E-07
   1.24699998      -7.66708411E-07
   1.25399995      -7.85091743E-07
   1.26100004      -8.03075864E-07
   1.26800001      -8.20610012E-07
   1.27499998      -8.37643654E-07
   1.28199995      -8.54125801E-07
   1.28900003      -8.70005579E-07
   1.29600000      -8.85232168E-07
   1.30299997      -8.99755321E-07
   1.30999994      -9.13525014E-07
   1.31700003      -9.26492191E-07
   1.32400000      -9.38608764E-07
   1.33099997      -9.49827211E-07
   1.33800006      -9.60102398E-07
   1.34500003      -9.69390271E-07
   1.35200000      -9.77649506E-07
   1.35899997      -9.84840085E-07
   1.36600006      -9.90924718E-07
   1.37300003      -9.95867708E-07
   1.38000000      -9.99635972E-07
   1.38699996      -1.00219859E-06
   1.39400005      -1.00352713E-06
   1.40100002      -1.00359682E-06
   1.40799999      -1.00238515E-06
   1.41499996      -9.99873578E-07
   1.42200005      -9.96047220E-07
   1.42900002      -9.90895387E-07
   1.43599999      -9.84411145E-07
   1.44299996      -9.76590627E-07
   1.45000005      -9.67433266E-07
   1.45700002      -9.56941790E-07
   1.46399999      -9.45122849E-07
   1.47099996      -9.31986108E-07
   1.47800004      -9.17545663E-07
   1.48500001      -9.01819647E-07
   1.49199998      -8.84830229E-07
   1.49899995      -8.66603443E-07
   1.50600004      -8.47168792E-07
   1.51300001      -8.26558903E-07
   1.51999998      -8.04809474E-07
   1.52699995      -7.81958931E-07
   1.53400004      -7.58048429E-07
   1.54100001      -7.33121908E-07
   1.54799998      -7.07226320E-07
   1.55499995      -6.80412143E-07
   1.56200004      -6.52732240E-07
   1.56900001      -6.24241977E-07
   1.57599998      -5.94998141E-07
   1.58299994      -5.65058826E-07
   1.59000003      -5.34482638E-07
   1.59700000      -5.03328863E-07
   1.60399997      -4.71657529E-07
   1.61099994      -4.39529259E-07
   1.61800003      -4.07005189E-07
   1.62500000      -3.74147135E-07
   1.63199997      -3.41017284E-07
   1.63900006      -3.07677567E-07
   1.64600003      -2.74189063E-07
   1.65300000      -2.40611257E-07
   1.65999997      -2.07001705E-07
   1.66700006      -1.73415671E-07
   1.67400002      -1.39906561E-07
   1.68099999      -1.06526116E-07
   1.68799996      -7.33245997E-08
   1.69500005      -4.03509759E-08
   1.70200002      -7.65285613E-09
   1.70899999       2.47239385E-08
   1.71599996       5.67358107E-08
   1.72300005       8.83420554E-08
   1.73000002       1.19505344E-07
   1.73699999       1.50191781E-07
   1.74399996       1.80370563E-07
   1.75100005       2.10013482E-07
   1.75800002       2.39093964E-07
   1.76499999       2.67586415E-07
   1.77199996       2.95466208E-07
   1.77900004       3.22709525E-07
   1.78600001       3.49294226E-07
   1.79299998       3.75200074E-07
   1.79999995       4.00408908E-07
   1.80700004       4.24904670E-07
   1.81400001       4.48672637E-07
   1.82099998       4.71698456E-07
   1.82799995       4.93966979E-07
   1.83500004       5.15461693E-07
   1.84200001       5.36163611E-07
   1.84899998       5.56052100E-07
   1.85599995       5.75104536E-07
   1.86300004       5.93297216E-07
   1.87000000       6.10605639E-07
   1.87699997       6.27004283E-07
   1.88399994       6.42465636E-07
   1.89100003       6.56959571E-07
   1.89800000       6.70452096E-07
   1.90499997       6.82904158E-07
   1.91199994       6.94271364E-07
   1.91900003       7.04504828E-07
   1.92600000       7.13551515E-07
   1.93299997       7.21354183E-07
   1.94000006       7.27852239E-07
   1.94700003       7.32981619E-07
   1.95400000       7.36674508E-07
   1.96099997       7.38858603E-07
   1.96800005       7.39456652E-07
   1.97500002       7.38385324E-07
   1.98199999       7.35555261E-07
   1.98899996       7.30871363E-07
   1.99600005       7.24234326E-07
   2.00300002       7.15541717E-07
   2.00999999       7.04688830E-07
   2.01699996       6.91568346E-07
   2.02399993       6.76071522E-07
   2.03099990       6.58087401E-07
   2.03800011       6.37503376E-07
   2.04500008       6.14205476E-07
   2.05200005       5.88078478E-07
   2.05900002       5.59005230E-07
   2.06599998       5.26868064E-07
   2.07299995       4.91550168E-07
   2.07999992       4.52937314E-07
   2.08699989       4.10918716E-07
   2.09400010       3.65387905E-07
   2.10100007       3.16242932E-07
   2.10800004       2.63386511E-07
   2.11500001       2.06726639E-07
   2.12199998       1.46176845E-07
   2.12899995       8.16569710E-08
   2.13599992       1.30932909E-08
   2.14299989      -5.95809730E-08
   2.15000010      -1.36424347E-07
   2.15700006      -2.17485777E-07
   2.16400003      -3.02802505E-07
   2.17100000      -3.92399215E-07
   2.17799997      -4.86287945E-07
   2.18499994      -5.84468580E-07
   2.19199991      -6.86929241E-07
   2.19899988      -7.93645597E-07
   2.20600009      -9.04581668E-07
   2.21300006      -1.01968942E-06
   2.22000003      -1.13890860E-06
   2.22700000      -1.26216639E-06
   2.23399997      -1.38937594E-06
   2.24099994      -1.52043503E-06
   2.24799991      -1.65522488E-06
   2.25500011      -1.79361223E-06
   2.26200008      -1.93544975E-06
   2.26900005      -2.08057804E-06
   2.27600002      -2.22882591E-06
   2.28299999      -2.38001189E-06
   2.28999996      -2.53394410E-06
   2.29699993      -2.69042084E-06
   2.30399990      -2.84922953E-06
   2.31100011      -3.01014575E-06
   2.31800008      -3.17293348E-06
   2.32500005      -3.33734556E-06
   2.33200002      -3.50312393E-06
   2.33899999      -3.67000212E-06
   2.34599996      -3.83770839E-06
   2.35299993      -4.00597082E-06
   2.35999990      -4.17451474E-06
   2.36700010      -4.34306321E-06
   2.37400007      -4.51133837E-06
   2.38100004      -4.67905693E-06
   2.38800001      -4.84593556E-06
   2.39499998      -5.01168597E-06
   2.40199995      -5.17602120E-06
   2.40899992      -5.33865114E-06
   2.41599989      -5.49929018E-06
   2.42300010      -5.65766004E-06
   2.43000007      -5.81349013E-06
   2.43700004      -5.96652080E-06
   2.44400001      -6.11649966E-06
   2.45099998      -6.26317978E-06
   2.45799994      -6.40632061E-06
   2.46499991      -6.54568521E-06
   2.47199988      -6.68104576E-06
   2.47900009      -6.81218216E-06
   2.48600006      -6.93888524E-06
   2.49300003      -7.06095580E-06
   2.50000000      -7.17821013E-06
   2.50699997      -7.29048224E-06
   2.51399994      -7.39762072E-06
   2.52099991      -7.49948640E-06
   2.52800012      -7.59595287E-06
   2.53500009      -7.68690006E-06
   2.54200006      -7.77222067E-06
   2.54900002      -7.85181419E-06
   2.55599999      -7.92559604E-06
   2.56299996      -7.99349345E-06
   2.56999993      -8.05544914E-06
   2.57699990      -8.11142399E-06
   2.58400011      -8.16138981E-06
   2.59100008      -8.20533751E-06
   2.59800005      -8.24326980E-06
   2.60500002      -8.27520216E-06
   2.61199999      -8.30115187E-06
   2.61899996      -8.32114438E-06
   2.62599993      -8.33521517E-06
   2.63299990      -8.34341245E-06
   2.64000010      -8.34579259E-06
   2.64700007      -8.34243019E-06
   2.65400004      -8.33340619E-06
   2.66100001      -8.31881334E-06
   2.66799998      -8.29875535E-06
   2.67499995      -8.27334134E-06
   2.68199992      -8.24268500E-06
   2.68899989      -8.20690730E-06
   2.69600010      -8.16612737E-06
   2.70300007      -8.12046983E-06
   2.71000004      -8.07006654E-06
   2.71700001      -8.01506030E-06
   2.72399998      -7.95559390E-06
   2.73099995      -7.89182923E-06
   2.73799992      -7.82392181E-06
   2.74499989      -7.75203625E-06
   2.75200009      -7.67633810E-06
   2.75900006      -7.59699242E-06
   2.76600003      -7.51416655E-06
   2.77300000      -7.42802331E-06
   2.77999997      -7.33872821E-06
   2.78699994      -7.24644997E-06
   2.79399991      -7.15136321E-06
   2.80100012      -7.05364619E-06
   2.80800009      -6.95347944E-06
   2.81500006      -6.85104260E-06
   2.82200003      -6.74651574E-06
   2.82900000      -6.64007439E-06
   2.83599997      -6.53189454E-06
   2.84299994      -6.42214809E-06
   2.84999990      -6.31100784E-06
   2.85700011      -6.19864386E-06
   2.86400008      -6.08522441E-06
   2.87100005      -5.97092048E-06
   2.87800002      -5.85590260E-06
   2.88499999      -5.74033857E-06
   2.89199996      -5.62439482E-06
   2.89899993      -5.50823415E-06
   2.90599990      -5.39201392E-06
   2.91300011      -5.27588873E-06
   2.92000008      -5.16001182E-06
   2.92700005      -5.04453101E-06
   2.93400002      -4.92959043E-06
   2.94099998      -4.81532561E-06
   2.94799995      -4.70187115E-06
   2.95499992      -4.58935665E-06
   2.96199989      -4.47790671E-06
   2.96900010      -4.36764321E-06
   2.97600007      -4.25868348E-06
   2.98300004      -4.15113846E-06
   2.99000001      -4.04511366E-06
   2.99699998      -3.94070730E-06
   3.00399995      -3.83801080E-06
   3.01099992      -3.73710759E-06
   3.01799989      -3.63807317E-06
   3.02500010      -3.54097574E-06
   3.03200006      -3.44588057E-06
   3.03900003      -3.35284813E-06
   3.04600000      -3.26193685E-06
   3.05299997      -3.17319768E-06
   3.05999994      -3.08667541E-06
   3.06699991      -3.00240617E-06
   3.07399988      -2.92041614E-06
   3.08100009      -2.84072325E-06
   3.08800006      -2.76333731E-06
   3.09500003      -2.68826125E-06
   3.10200000      -2.61549530E-06
   3.10899997      -2.54503834E-06
   3.11599994      -2.47688877E-06
   3.12299991      -2.41104340E-06
   3.13000011      -2.34749655E-06
   3.13700008      -2.28623435E-06
   3.14400005      -2.22723565E-06
   3.15100002      -2.17047113E-06
   3.15799999      -2.11590668E-06
   3.16499996      -2.06350410E-06
   3.17199993      -2.01322473E-06
   3.17899990      -1.96503356E-06
   3.18600011      -1.91889831E-06
   3.19300008      -1.87479077E-06
   3.20000005      -1.83268560E-06
   3.20700002      -1.79255483E-06
   3.21399999      -1.75436776E-06
   3.22099996      -1.71808790E-06
   3.22799993      -1.68367592E-06
   3.23499990      -1.65109282E-06
   3.24200010      -1.62030381E-06
   3.24900007      -1.59127978E-06
   3.25600004      -1.56399904E-06
   3.26300001      -1.53844599E-06
   3.26999998      -1.51461109E-06
   3.27699995      -1.49248763E-06
   3.28399992      -1.47206970E-06
   3.29099989      -1.45335002E-06
   3.29800010      -1.43631905E-06
   3.30500007      -1.42096724E-06
   3.31200004      -1.40728946E-06
   3.31900001      -1.39528606E-06
   3.32599998      -1.38496546E-06
   3.33299994      -1.37634117E-06
   3.33999991      -1.36942992E-06
   3.34699988      -1.36425069E-06
   3.35400009      -1.36082167E-06
   3.36100006      -1.35915980E-06
   3.36800003      -1.35927962E-06
   3.37500000      -1.36119252E-06
   3.38199997      -1.36490917E-06
   3.38899994      -1.37044219E-06
   3.39599991      -1.37780705E-06
   3.40300012      -1.38702160E-06
   3.41000009      -1.39810300E-06
   3.41700006      -1.41106523E-06
   3.42400002      -1.42591614E-06
   3.43099999      -1.44265789E-06
   3.43799996      -1.46128662E-06
   3.44499993      -1.48179345E-06
   3.45199990      -1.50416372E-06
   3.45900011      -1.52837799E-06
   3.46600008      -1.55441262E-06
   3.47300005      -1.58224009E-06
   3.48000002      -1.61182845E-06
   3.48699999      -1.64313963E-06
   3.49399996      -1.67612700E-06
   3.50099993      -1.71073339E-06
   3.50799990      -1.74689330E-06
   3.51500010      -1.78453513E-06
   3.52200007      -1.82358201E-06
   3.52900004      -1.86395107E-06
   3.53600001      -1.90555340E-06
   3.54299998      -1.94829067E-06
   3.54999995      -1.99205806E-06
   3.55699992      -2.03674449E-06
   3.56399989      -2.08223219E-06
   3.57100010      -2.12839768E-06
   3.57800007      -2.17511274E-06
   3.58500004      -2.22224458E-06
   3.59200001      -2.26966063E-06
   3.59899998      -2.31722697E-06
   3.60599995      -2.36480901E-06
   3.61299992      -2.41226712E-06
   3.61999989      -2.45945625E-06
   3.62700009      -2.50622702E-06
   3.63400006      -2.55242844E-06
   3.64100003      -2.59791227E-06
   3.64800000      -2.64253777E-06
   3.65499997      -2.68617077E-06
   3.66199994      -2.72868465E-06
   3.66899991      -2.76995888E-06
   3.67600012      -2.80988047E-06
   3.68300009      -2.84833914E-06
   3.69000006      -2.88522665E-06
   3.69700003      -2.92043433E-06
   3.70400000      -2.95385826E-06
   3.71099997      -2.98540067E-06
   3.71799994      -3.01497903E-06
   3.72499990      -3.04253012E-06
   3.73200011      -3.06800848E-06
   3.73900008      -3.09138250E-06
   3.74600005      -3.11263284E-06
   3.75300002      -3.13174587E-06
   3.75999999      -3.14871568E-06
   3.76699996      -3.16354112E-06
   3.77399993      -3.17622948E-06
   3.78099990      -3.18679668E-06
   3.78800011      -3.19527294E-06
   3.79500008      -3.20170716E-06
   3.80200005      -3.20617119E-06
   3.80900002      -3.20875574E-06
   3.81599998      -3.20956383E-06
   3.82299995      -3.20870322E-06
   3.82999992      -3.20628305E-06
   3.83699989      -3.20241361E-06
   3.84400010      -3.19720994E-06
   3.85100007      -3.19079459E-06
   3.85800004      -3.18330081E-06
   3.86500001      -3.17487434E-06
   3.87199998      -3.16567230E-06
   3.87899995      -3.15586703E-06
   3.88599992      -3.14563931E-06
   3.89299989      -3.13517216E-06
   3.90000010      -3.12464203E-06
   3.90700006      -3.11421559E-06
   3.91400003      -3.10405130E-06
   3.92100000      -3.09430357E-06
   3.92799997      -3.08512972E-06
   3.93499994      -3.07669279E-06
   3.94199991      -3.06915967E-06
   3.94899988      -3.06269681E-06
   3.95600009      -3.05747017E-06
   3.96300006      -3.05363869E-06
   3.97000003      -3.05135040E-06
   3.97700000      -3.05073900E-06
   3.98399997      -3.05191747E-06
   3.99099994      -3.05498247E-06
   3.99799991      -3.06001994E-06
   4.00500011      -3.06711240E-06
   4.01200008      -3.07634241E-06
   4.01900005      -3.08778999E-06
   4.02600002      -3.10152564E-06
   4.03299999      -3.11760436E-06
   4.03999996      -3.13606415E-06
   4.04699993      -3.15692614E-06
   4.05399990      -3.18019238E-06
   4.06099987      -3.20584809E-06
   4.06799984      -3.23386053E-06
   4.07499981      -3.26418603E-06
   4.08199978      -3.29677482E-06
   4.08900023      -3.33157436E-06
   4.09600019      -3.36852918E-06
   4.10300016      -3.40757197E-06
   4.11000013      -3.44861974E-06
   4.11700010      -3.49157085E-06
   4.12400007      -3.53630980E-06
   4.13100004      -3.58271086E-06
   4.13800001      -3.63064055E-06
   4.14499998      -3.67995904E-06
   4.15199995      -3.73051967E-06
   4.15899992      -3.78217237E-06
   4.16599989      -3.83477072E-06
   4.17299986      -3.88816670E-06
   4.17999983      -3.94221206E-06
   4.18699980      -3.99675082E-06
   4.19399977      -4.05161700E-06
   4.20100021      -4.10664006E-06
   4.20800018      -4.16165267E-06
   4.21500015      -4.21649020E-06
   4.22200012      -4.27099530E-06
   4.22900009      -4.32501429E-06
   4.23600006      -4.37839708E-06
   4.24300003      -4.43099952E-06
   4.25000000      -4.48268702E-06
   4.25699997      -4.53333223E-06
   4.26399994      -4.58281738E-06
   4.27099991      -4.63102424E-06
   4.27799988      -4.67784321E-06
   4.28499985      -4.72316788E-06
   4.29199982      -4.76690821E-06
   4.29899979      -4.80898689E-06
   4.30600023      -4.84933707E-06
   4.31300020      -4.88789965E-06
   4.32000017      -4.92462368E-06
   4.32700014      -4.95947279E-06
   4.33400011      -4.99242287E-06
   4.34100008      -5.02346802E-06
   4.34800005      -5.05261050E-06
   4.35500002      -5.07986215E-06
   4.36199999      -5.10523842E-06
   4.36899996      -5.12876522E-06
   4.37599993      -5.15047986E-06
   4.38299990      -5.17043236E-06
   4.38999987      -5.18868092E-06
   4.39699984      -5.20529329E-06
   4.40399981      -5.22034543E-06
   4.41099977      -5.23392828E-06
   4.41800022      -5.24614279E-06
   4.42500019      -5.25709856E-06
   4.43200016      -5.26690974E-06
   4.43900013      -5.27568454E-06
   4.44600010      -5.28353121E-06
   4.45300007      -5.29056069E-06
   4.46000004      -5.29689214E-06
   4.46700001      -5.30264879E-06
   4.47399998      -5.30796297E-06
   4.48099995      -5.31296610E-06
   4.48799992      -5.31779142E-06
   4.49499989      -5.32257491E-06
   4.50199986      -5.32744980E-06
   4.50899982      -5.33254479E-06
   4.51599979      -5.33797856E-06
   4.52299976      -5.34385663E-06
   4.53000021      -5.35028312E-06
   4.53700018      -5.35736308E-06
   4.54400015      -5.36520247E-06
   4.55100012      -5.37390906E-06
   4.55800009      -5.38358381E-06
   4.56500006      -5.39431858E-06
   4.57200003      -5.40619476E-06
   4.57900000      -5.41928239E-06
   4.58599997      -5.43364058E-06
   4.59299994      -5.44931254E-06
   4.59999990      -5.46633191E-06
   4.60699987      -5.48472235E-06
   4.61399984      -5.50450522E-06
   4.62099981      -5.52569736E-06
   4.62799978      -5.54831558E-06
   4.63500023      -5.57236717E-06
   4.64200020      -5.59784530E-06
   4.64900017      -5.62472815E-06
   4.65600014      -5.65298024E-06
   4.66300011      -5.68255609E-06
   4.67000008      -5.71340115E-06
   4.67700005      -5.74545402E-06
   4.68400002      -5.77864239E-06
   4.69099998      -5.81289169E-06
   4.69799995      -5.84812551E-06
   4.70499992      -5.88426519E-06
   4.71199989      -5.92122524E-06
   4.71899986      -5.95891197E-06
   4.72599983      -5.99721989E-06
   4.73299980      -6.03603212E-06
   4.73999977      -6.07522679E-06
   4.74700022      -6.11468158E-06
   4.75400019      -6.15427143E-06
   4.76100016      -6.19387220E-06
   4.76800013      -6.23336155E-06
   4.77500010      -6.27261761E-06
   4.78200006      -6.31152125E-06
   4.78900003      -6.34995513E-06
   4.79600000      -6.38780057E-06
   4.80299997      -6.42493251E-06
   4.80999994      -6.46122544E-06
   4.81699991      -6.49655476E-06
   4.82399988      -6.53080269E-06
   4.83099985      -6.56385555E-06
   4.83799982      -6.59561010E-06
   4.84499979      -6.62596949E-06
   4.85200024      -6.65484413E-06
   4.85900021      -6.68215080E-06
   4.86600018      -6.70781446E-06
   4.87300014      -6.73176328E-06
   4.88000011      -6.75393039E-06
   4.88700008      -6.77425123E-06
   4.89400005      -6.79266668E-06
   4.90100002      -6.80913035E-06
   4.90799999      -6.82360587E-06
   4.91499996      -6.83607050E-06
   4.92199993      -6.84651104E-06
   4.92899990      -6.85492523E-06
   4.93599987      -6.86131898E-06
   4.94299984      -6.86570547E-06
   4.94999981      -6.86810654E-06
   4.95699978      -6.86854582E-06
   4.96400023      -6.86705380E-06
   4.97100019      -6.86366457E-06
   4.97800016      -6.85842224E-06
   4.98500013      -6.85138048E-06
   4.99200010      -6.84260749E-06