  -1.00000000      -8.05699725E-17
 -0.992999971      -1.01807103E-15
 -0.986000001      -3.22645713E-15
 -0.978999972      -3.38556888E-15
 -0.972000003       6.92172793E-15
 -0.964999974       3.76126911E-14
 -0.958000004       9.24281945E-14
 -0.950999975       1.61358611E-13
 -0.944000006       2.17834932E-13
 -0.936999977       2.23150559E-13
 -0.930000007       1.37472716E-13
 -0.922999978      -6.58490325E-14
 -0.916000009      -3.87926101E-13
 -0.908999979      -8.00129548E-13
 -0.902000010      -1.25283356E-12
 -0.894999981      -1.69677076E-12
 -0.888000011      -2.10900178E-12
 -0.880999982      -2.50982091E-12
 -0.874000013      -2.95838072E-12
 -0.866999984      -3.52462092E-12
 -0.860000014      -4.24844491E-12
 -0.852999985      -5.10592827E-12
 -0.846000016      -6.00104601E-12
 -0.838999987      -6.79068086E-12
 -0.832000017      -7.33634421E-12
 -0.824999988      -7.56456790E-12
 -0.818000019      -7.51319406E-12
 -0.810999990      -7.34343489E-12
 -0.804000020      -7.30741769E-12
 -0.796999991      -7.67663016E-12
 -0.790000021      -8.65438624E-12
 -0.782999992      -1.03073921E-11
 -0.776000023      -1.25492108E-11
 -0.768999994      -1.51890375E-11
 -0.762000024      -1.80297340E-11
 -0.754999995      -2.09742571E-11
 -0.748000026      -2.40928787E-11
 -0.740999997      -2.76192368E-11
 -0.734000027      -3.18730285E-11
 -0.726999998      -3.71379143E-11
 -0.720000029      -4.35419686E-11
 -0.713000000      -5.09898720E-11
 -0.705999970      -5.91802093E-11
 -0.699000001      -6.77123774E-11
 -0.691999972      -7.62523517E-11
 -0.685000002      -8.46982484E-11
 -0.677999973      -9.32772123E-11
 -0.671000004      -1.02525516E-10
 -0.663999975      -1.13148539E-10
 -0.657000005      -1.25808766E-10
 -0.649999976      -1.40923995E-10
 -0.643000007      -1.58557237E-10
 -0.635999978      -1.78445758E-10
 -0.629000008      -2.00162234E-10
 -0.621999979      -2.23351268E-10
 -0.615000010      -2.47954296E-10
 -0.607999980      -2.74337969E-10
 -0.601000011      -3.03271158E-10
 -0.593999982      -3.35748318E-10
 -0.587000012      -3.72716857E-10
 -0.579999983      -4.14807605E-10
 -0.573000014      -4.62176519E-10
 -0.565999985      -5.14528253E-10
 -0.559000015      -5.71323155E-10
 -0.551999986      -6.32095543E-10
 -0.545000017      -6.96763480E-10
 -0.537999988      -7.65813413E-10
 -0.531000018      -8.40287340E-10
 -0.523999989      -9.21574761E-10
 -0.517000020      -1.01108155E-09
 -0.509999990      -1.10989473E-09
 -0.503000021      -1.21856525E-09
 -0.495999992      -1.33709444E-09
 -0.488999993      -1.46513723E-09
 -0.481999993      -1.60235447E-09
 -0.474999994      -1.74878756E-09
 -0.467999995      -1.90511185E-09
 -0.460999995      -2.07267070E-09
 -0.453999996      -2.25327068E-09
 -0.446999997      -2.44880938E-09
 -0.439999998      -2.66087263E-09
 -0.432999998      -2.89044588E-09
 -0.425999999      -3.13783599E-09
 -0.419000000      -3.40283424E-09
 -0.412000000      -3.68505826E-09
 -0.405000001      -3.98435018E-09
 -0.398000002      -4.30108882E-09
 -0.391000003      -4.63630689E-09
 -0.384000003      -4.99156538E-09
 -0.377000004      -5.36863798E-09
 -0.370000005      -5.76911940E-09
 -0.363000005      -6.19410256E-09
 -0.356000006      -6.64405020E-09
 -0.349000007      -7.11888815E-09
 -0.342000008      -7.61829355E-09
 -0.335000008      -8.14206214E-09
 -0.328000009      -8.69042438E-09
 -0.321000010      -9.26419386E-09
 -0.314000010      -9.86469395E-09
 -0.307000011      -1.04934932E-08
 -0.300000012      -1.11520322E-08
 -0.293000013      -1.18412826E-08
 -0.286000013      -1.25615331E-08
 -0.279000014      -1.33123894E-08
 -0.272000015      -1.40929757E-08
 -0.264999986      -1.49022874E-08
 -0.257999986      -1.57395377E-08
 -0.250999987      -1.66044245E-08
 -0.244000003      -1.74972339E-08
 -0.237000003      -1.84187137E-08
 -0.230000004      -1.93698408E-08
 -0.223000005      -2.03514894E-08
 -0.216000006      -2.13641460E-08
 -0.209000006      -2.24077468E-08
 -0.202000007      -2.34816966E-08
 -0.194999993      -2.45850345E-08
 -0.187999994      -2.57167549E-08
 -0.180999994      -2.68761173E-08
 -0.173999995      -2.80629369E-08
 -0.166999996      -2.92777216E-08
 -0.159999996      -3.05216581E-08
 -0.152999997      -3.17964286E-08
 -0.145999998      -3.31039196E-08
 -0.138999999      -3.44459892E-08
 -0.131999999      -3.58242467E-08
 -0.125000000      -3.72400919E-08
 -0.118000001      -3.86948784E-08
 -0.111000001      -4.01903151E-08
 -0.104000002      -4.17288959E-08
  -9.70000029E-02  -4.33142695E-08
  -9.00000036E-02  -4.49515269E-08
  -8.29999968E-02  -4.66471946E-08
  -7.59999976E-02  -4.84090386E-08
  -6.89999983E-02  -5.02457098E-08
  -6.19999990E-02  -5.21663566E-08
  -5.49999997E-02  -5.41804326E-08
  -4.80000004E-02  -5.62976830E-08
  -4.10000011E-02  -5.85285242E-08
  -3.40000018E-02  -6.08845596E-08
  -2.70000007E-02  -6.33792467E-08
  -1.99999996E-02  -6.60284201E-08
  -1.30000003E-02  -6.88505821E-08
  -6.00000005E-03  -7.18668218E-08
   1.00000005E-03  -7.51004805E-08
   8.00000038E-03  -7.85766332E-08
   1.49999997E-02  -8.23216340E-08
   2.19999999E-02  -8.63629381E-08
   2.89999992E-02  -9.07291309E-08
   3.59999985E-02  -9.54505310E-08
   4.30000015E-02  -1.00559717E-07
   5.00000007E-02  -1.06092287E-07
   5.70000000E-02  -1.12087235E-07
   6.40000030E-02  -1.18586904E-07
   7.10000023E-02  -1.25636731E-07
   7.80000016E-02  -1.33284573E-07
   8.50000009E-02  -1.41580003E-07
   9.20000002E-02  -1.50573712E-07
   9.89999995E-02  -1.60317498E-07
  0.105999999      -1.70864396E-07
  0.112999998      -1.82269105E-07
  0.119999997      -1.94588608E-07
  0.127000004      -2.07882579E-07
  0.134000003      -2.22213458E-07
  0.141000003      -2.37646077E-07
  0.148000002      -2.54246686E-07
  0.155000001      -2.72082133E-07
  0.162000000      -2.91218839E-07
  0.169000000      -3.11722232E-07
  0.175999999      -3.33656629E-07
  0.182999998      -3.57085185E-07
  0.189999998      -3.82070283E-07
  0.196999997      -4.08673827E-07
  0.203999996      -4.36957009E-07
  0.210999995      -4.66979685E-07
  0.217999995      -4.98799579E-07
  0.224999994      -5.32471120E-07
  0.231999993      -5.68043845E-07
  0.238999993      -6.05561411E-07
  0.246000007      -6.45061391E-07
  0.252999991      -6.86575049E-07
  0.259999990      -7.30127340E-07
  0.266999990      -7.75736964E-07
  0.273999989      -8.23416315E-07
  0.280999988      -8.73170393E-07
  0.287999988      -9.24996357E-07
  0.294999987      -9.78881644E-07
  0.301999986      -1.03480318E-06
  0.308999985      -1.09272628E-06
  0.316000015      -1.15260411E-06
  0.323000014      -1.21437711E-06
  0.330000013      -1.27797307E-06
  0.337000012      -1.34330708E-06
  0.344000012      -1.41028147E-06
  0.351000011      -1.47878552E-06
  0.358000010      -1.54869508E-06
  0.365000010      -1.61987191E-06
  0.372000009      -1.69216275E-06
  0.379000008      -1.76539879E-06
  0.386000007      -1.83939517E-06
  0.393000007      -1.91395111E-06
  0.400000006      -1.98885141E-06
  0.407000005      -2.06386517E-06
  0.414000005      -2.13874682E-06
  0.421000004      -2.21323785E-06
  0.428000003      -2.28706608E-06
  0.435000002      -2.35994503E-06
  0.442000002      -2.43157547E-06
  0.449000001      -2.50164521E-06
  0.456000000      -2.56983026E-06
  0.463000000      -2.63579295E-06
  0.469999999      -2.69918587E-06
  0.476999998      -2.75965203E-06
  0.483999997      -2.81682605E-06
  0.490999997      -2.87033572E-06
  0.497999996      -2.91980314E-06
  0.504999995      -2.96484495E-06
  0.512000024      -3.00507486E-06
  0.518999994      -3.04010427E-06
  0.526000023      -3.06954416E-06
  0.532999992      -3.09300754E-06
  0.540000021      -3.11010876E-06
  0.546999991      -3.12046609E-06
  0.554000020      -3.12370435E-06
  0.560999990      -3.11945269E-06
  0.568000019      -3.10735140E-06
  0.574999988      -3.08704966E-06
  0.582000017      -3.05821004E-06
  0.588999987      -3.02050807E-06
  0.596000016      -2.97363408E-06
  0.602999985      -2.91729725E-06
  0.610000014      -2.85122496E-06
  0.616999984      -2.77516369E-06
  0.624000013      -2.68888311E-06
  0.630999982      -2.59217336E-06
  0.638000011      -2.48485208E-06
  0.644999981      -2.36675919E-06
  0.652000010      -2.23776442E-06
  0.658999979      -2.09776431E-06
  0.666000009      -1.94668678E-06
  0.672999978      -1.78448806E-06
  0.680000007      -1.61115611E-06
  0.686999977      -1.42670854E-06
  0.694000006      -1.23119446E-06
  0.700999975      -1.02469392E-06
  0.708000004      -8.07318713E-07
  0.714999974      -5.79213577E-07
  0.722000003      -3.40557023E-07
  0.728999972      -9.15618656E-08
  0.736000001       1.67524917E-07
  0.742999971       4.36423022E-07
  0.750000000       7.14819976E-07
  0.757000029       1.00237344E-06
  0.763999999       1.29871103E-06
  0.771000028       1.60343234E-06
  0.777999997       1.91610820E-06
  0.785000026       2.23628081E-06
  0.791999996       2.56346470E-06
  0.799000025       2.89714649E-06
  0.805999994       3.23678637E-06
  0.813000023       3.58182024E-06
  0.819999993       3.93166192E-06
  0.827000022       4.28570775E-06
  0.833999991       4.64333607E-06
  0.841000021       5.00391116E-06
  0.847999990       5.36678272E-06
  0.855000019       5.73128727E-06
  0.861999989       6.09674771E-06
  0.869000018       6.46247599E-06
  0.875999987       6.82777363E-06
  0.883000016       7.19193577E-06
  0.889999986       7.55425435E-06
  0.897000015       7.91402181E-06
  0.903999984       8.27053736E-06
  0.911000013       8.62310571E-06
  0.917999983       8.97103473E-06
  0.925000012       9.31364229E-06
  0.931999981       9.65024810E-06
  0.939000010       9.98018550E-06
  0.945999980       1.03027942E-05
  0.953000009       1.06174302E-05
  0.959999979       1.09234670E-05
  0.967000008       1.12202988E-05
  0.973999977       1.15073444E-05
  0.981000006       1.17840473E-05
  0.987999976       1.20498771E-05
  0.995000005       1.23043264E-05
   1.00199997       1.25469141E-05
   1.00899994       1.27771855E-05
   1.01600003       1.29947102E-05
   1.02300000       1.31990937E-05
   1.02999997       1.33899694E-05
   1.03699994       1.35670125E-05
   1.04400003       1.37299339E-05
   1.05100000       1.38784844E-05
   1.05799997       1.40124512E-05
   1.06500006       1.41316605E-05
   1.07200003       1.42359759E-05
   1.07900000       1.43252901E-05
   1.08599997       1.43995376E-05
   1.09300005       1.44586820E-05
   1.10000002       1.45027279E-05
   1.10699999       1.45317144E-05
   1.11399996       1.45457325E-05
   1.12100005       1.45449085E-05
   1.12800002       1.45294098E-05
   1.13499999       1.44994410E-05
   1.14199996       1.44552441E-05
   1.14900005       1.43970901E-05
   1.15600002       1.43252792E-05
   1.16299999       1.42401459E-05
   1.16999996       1.41420514E-05
   1.17700005       1.40313914E-05
   1.18400002       1.39085923E-05
   1.19099998       1.37741135E-05
   1.19799995       1.36284434E-05
   1.20500004       1.34721013E-05
   1.21200001       1.33056255E-05
   1.21899998       1.31295646E-05
   1.22599995       1.29444879E-05
   1.23300004       1.27509729E-05
   1.24000001       1.25496108E-05
   1.24699998       1.23410064E-05
   1.25399995       1.21257790E-05
   1.26100004       1.19045626E-05
   1.26800001       1.16779993E-05
   1.27499998       1.14467484E-05
   1.28199995       1.12114631E-05
   1.28900003       1.09727998E-05
   1.29600000       1.07314072E-05
   1.30299997       1.04879218E-05
   1.30999994       1.02429731E-05
   1.31700003       9.99718577E-06
   1.32400000       9.75117018E-06
   1.33099997       9.50553476E-06
   1.33800006       9.26087614E-06
   1.34500003       9.01778094E-06
   1.35200000       8.77681850E-06
   1.35899997       8.53854272E-06
   1.36600006       8.30347835E-06
   1.37300003       8.07213110E-06
   1.38000000       7.84497479E-06
   1.38699996       7.62246282E-06
   1.39400005       7.40502310E-06
   1.40100002       7.19306126E-06
   1.40799999       6.98696113E-06
   1.41499996       6.78708329E-06
   1.42200005       6.59376474E-06
   1.42900002       6.40731196E-06
   1.43599999       6.22800144E-06
   1.44299996       6.05607784E-06
   1.45000005       5.89175079E-06
   1.45700002       5.73519901E-06
   1.46399999       5.58656984E-06
   1.47099996       5.44598561E-06
   1.47800004       5.31354181E-06
   1.48500001       5.18931165E-06
   1.49199998       5.07334789E-06
   1.49899995       4.96567554E-06
   1.50600004       4.86629506E-06
   1.51300001       4.77517733E-06
   1.51999998       4.69226325E-06
   1.52699995       4.61746731E-06
   1.53400004       4.55067811E-06
   1.54100001       4.49176378E-06
   1.54799998       4.44057559E-06
   1.55499995       4.39695259E-06
   1.56200004       4.36072241E-06
   1.56900001       4.33170271E-06
   1.57599998       4.30969567E-06
   1.58299994       4.29448846E-06
   1.59000003       4.28584963E-06
   1.59700000       4.28353223E-06
   1.60399997       4.28727344E-06
   1.61099994       4.29680540E-06
   1.61800003       4.31185663E-06
   1.62500000       4.33215746E-06
   1.63199997       4.35744369E-06
   1.63900006       4.38745337E-06
   1.64600003       4.42192822E-06
   1.65300000       4.46060812E-06
   1.65999997       4.50322932E-06
   1.66700006       4.54952715E-06
   1.67400002       4.59923467E-06
   1.68099999       4.65208905E-06
   1.68799996       4.70784016E-06
   1.69500005       4.76624928E-06
   1.70200002       4.82709493E-06
   1.70899999       4.89016657E-06
   1.71599996       4.95526456E-06
   1.72300005       5.02219655E-06
   1.73000002       5.09077108E-06
   1.73699999       5.16080399E-06
   1.74399996       5.23211475E-06
   1.75100005       5.30453599E-06
   1.75800002       5.37791129E-06
   1.76499999       5.45210332E-06
   1.77199996       5.52698975E-06
   1.77900004       5.60246508E-06
   1.78600001       5.67843517E-06
   1.79299998       5.75481272E-06
   1.79999995       5.83151541E-06
   1.80700004       5.90845821E-06
   1.81400001       5.98556426E-06
   1.82099998       6.06276035E-06
   1.82799995       6.13998191E-06
   1.83500004       6.21717254E-06
   1.84200001       6.29428860E-06
   1.84899998       6.37129324E-06
   1.85599995       6.44815464E-06
   1.86300004       6.52484414E-06
   1.87000000       6.60132673E-06
   1.87699997       6.67756512E-06
   1.88399994       6.75351384E-06
   1.89100003       6.82912696E-06
   1.89800000       6.90435627E-06
   1.90499997       6.97915675E-06
   1.91199994       7.05348475E-06
   1.91900003       7.12730161E-06
   1.92600000       7.20056687E-06
   1.93299997       7.27323686E-06
   1.94000006       7.34526157E-06
   1.94700003       7.41658323E-06
   1.95400000       7.48713410E-06
   1.96099997       7.55683823E-06
   1.96800005       7.62561058E-06
   1.97500002       7.69336566E-06
   1.98199999       7.76001434E-06
   1.98899996       7.82547340E-06
   1.99600005       7.88965826E-06
   2.00300002       7.95247433E-06
   2.00999999       8.01383158E-06
   2.01699996       8.07363176E-06
   2.02399993       8.13176666E-06
   2.03099990       8.18812441E-06
   2.03800011       8.24258950E-06
   2.04500008       8.29504370E-06
   2.05200005       8.34537423E-06
   2.05900002       8.39347649E-06
   2.06599998       8.43925318E-06
   2.07299995       8.48260515E-06
   2.07999992       8.52343601E-06
   2.08699989       8.56165116E-06
   2.09400010       8.59715328E-06
   2.10100007       8.62984325E-06
   2.10800004       8.65962284E-06
   2.11500001       8.68640382E-06
   2.12199998       8.71010616E-06
   2.12899995       8.73066620E-06
   2.13599992       8.74803209E-06
   2.14299989       8.76216109E-06
   2.15000010       8.77302227E-06
   2.15700006       8.78059200E-06
   2.16400003       8.78484570E-06
   2.17100000       8.78575702E-06
   2.17799997       8.78331048E-06
   2.18499994       8.77749881E-06
   2.19199991       8.76832564E-06
   2.19899988       8.75581009E-06
   2.20600009       8.73998670E-06
   2.21300006       8.72090095E-06
   2.22000003       8.69860469E-06
   2.22700000       8.67316157E-06
   2.23399997       8.64463800E-06
   2.24099994       8.61310400E-06
   2.24799991       8.57863324E-06
   2.25500011       8.54130667E-06
   2.26200008       8.50121523E-06
   2.26900005       8.45846535E-06
   2.27600002       8.41316796E-06
   2.28299999       8.36544768E-06
   2.28999996       8.31543093E-06
   2.29699993       8.26324958E-06
   2.30399990       8.20902642E-06
   2.31100011       8.15289332E-06
   2.31800008       8.09497851E-06
   2.32500005       8.03540843E-06
   2.33200002       7.97431676E-06
   2.33899999       7.91184175E-06
   2.34599996       7.84812892E-06
   2.35299993       7.78332469E-06
   2.35999990       7.71757823E-06
   2.36700010       7.65103596E-06
   2.37400007       7.58383976E-06
   2.38100004       7.51612470E-06
   2.38800001       7.44802082E-06
   2.39499998       7.37965092E-06
   2.40199995       7.31113460E-06
   2.40899992       7.24258962E-06
   2.41599989       7.17412877E-06
   2.42300010       7.10586755E-06
   2.43000007       7.03791784E-06
   2.43700004       6.97039059E-06
   2.44400001       6.90339039E-06
   2.45099998       6.83701319E-06
   2.45799994       6.77134267E-06
   2.46499991       6.70645386E-06
   2.47199988       6.64241315E-06
   2.47900009       6.57928149E-06
   2.48600006       6.51711252E-06
   2.49300003       6.45595810E-06
   2.50000000       6.39586551E-06
   2.50699997       6.33688023E-06
   2.51399994       6.27904137E-06
   2.52099991       6.22237849E-06
   2.52800012       6.16691204E-06
   2.53500009       6.11264750E-06
   2.54200006       6.05957894E-06
   2.54900002       6.00769181E-06
   2.55599999       5.95696656E-06
   2.56299996       5.90738227E-06
   2.56999993       5.85891712E-06
   2.57699990       5.81154654E-06
   2.58400011       5.76524462E-06
   2.59100008       5.71997862E-06
   2.59800005       5.67571260E-06
   2.60500002       5.63239655E-06
   2.61199999       5.58997453E-06
   2.61899996       5.54837879E-06
   2.62599993       5.50753339E-06
   2.63299990       5.46736328E-06
   2.64000010       5.42779298E-06
   2.64700007       5.38875111E-06
   2.65400004       5.35017034E-06
   2.66100001       5.31198566E-06
   2.66799998       5.27413022E-06
   2.67499995       5.23653625E-06
   2.68199992       5.19913146E-06
   2.68899989       5.16183354E-06
   2.69600010       5.12455654E-06
   2.70300007       5.08721314E-06
   2.71000004       5.04971786E-06
   2.71700001       5.01199474E-06
   2.72399998       4.97398105E-06
   2.73099995       4.93562266E-06
   2.73799992       4.89687363E-06
   2.74499989       4.85768760E-06
   2.75200009       4.81801771E-06
   2.75900006       4.77781214E-06
   2.76600003       4.73701539E-06
   2.77300000       4.69557062E-06
   2.77999997       4.65342782E-06
   2.78699994       4.61054924E-06
   2.79399991       4.56691487E-06
   2.80100012       4.52252061E-06
   2.80800009       4.47737875E-06
   2.81500006       4.43150611E-06
   2.82200003       4.38491725E-06
   2.82900000       4.33762170E-06
   2.83599997       4.28962312E-06
   2.84299994       4.24092605E-06
   2.84999990       4.19154094E-06
   2.85700011       4.14149190E-06
   2.86400008       4.09082168E-06
   2.87100005       4.03959120E-06
   2.87800002       3.98788279E-06
   2.88499999       3.93578421E-06
   2.89199996       3.88338367E-06
   2.89899993       3.83076394E-06
   2.90599990       3.77799620E-06
   2.91300011       3.72514592E-06
   2.92000008       3.67228108E-06
   2.92700005       3.61947991E-06
   2.93400002       3.56683745E-06
   2.94099998       3.51446624E-06
   2.94799995       3.46249226E-06
   2.95499992       3.41104965E-06
   2.96199989       3.36027324E-06
   2.96900010       3.31028969E-06
   2.97600007       3.26121653E-06
   2.98300004       3.21315929E-06
   2.99000001       3.16621731E-06
   2.99699998       3.12049633E-06
   3.00399995       3.07611299E-06
   3.01099992       3.03319780E-06
   3.01799989       2.99189014E-06
   3.02500010       2.95233258E-06
   3.03200006       2.91466063E-06
   3.03900003       2.87899888E-06
   3.04600000       2.84545763E-06
   3.05299997       2.81413213E-06
   3.05999994       2.78510493E-06
   3.06699991       2.75845400E-06
   3.07399988       2.73425962E-06
   3.08100009       2.71260819E-06
   3.08800006       2.69359316E-06
   3.09500003       2.67730752E-06
   3.10200000       2.66383563E-06
   3.10899997       2.65324775E-06
   3.11599994       2.64559503E-06
   3.12299991       2.64091295E-06
   3.13000011       2.63922038E-06
   3.13700008       2.64052596E-06
   3.14400005       2.64483106E-06
   3.15100002       2.65213225E-06
   3.15799999       2.66242728E-06
   3.16499996       2.67571136E-06
   3.17199993       2.69197290E-06
   3.17899990       2.71118643E-06
   3.18600011       2.73330761E-06
   3.19300008       2.75827165E-06
   3.20000005       2.78599941E-06
   3.20700002       2.81639905E-06
   3.21399999       2.84937119E-06
   3.22099996       2.88481192E-06
   3.22799993       2.92261302E-06
   3.23499990       2.96266330E-06
   3.24200010       3.00484862E-06
   3.24900007       3.04904688E-06
   3.25600004       3.09512507E-06
   3.26300001       3.14293743E-06
   3.26999998       3.19232345E-06
   3.27699995       3.24311509E-06
   3.28399992       3.29513955E-06
   3.29099989       3.34822448E-06
   3.29800010       3.40219867E-06
   3.30500007       3.45689227E-06
   3.31200004       3.51213521E-06
   3.31900001       3.56775740E-06
   3.32599998       3.62358946E-06
   3.33299994       3.67945995E-06
   3.33999991       3.73519333E-06
   3.34699988       3.79061362E-06
   3.35400009       3.84554505E-06
   3.36100006       3.89981778E-06
   3.36800003       3.95327197E-06
   3.37500000       4.00575709E-06
   3.38199997       4.05713308E-06
   3.38899994       4.10726898E-06
   3.39599991       4.15603790E-06
   3.40300012       4.20332481E-06
   3.41000009       4.24902692E-06
   3.41700006       4.29304828E-06
   3.42400002       4.33530477E-06
   3.43099999       4.37571953E-06
   3.43799996       4.41422981E-06
   3.44499993       4.45078376E-06
   3.45199990       4.48534502E-06
   3.45900011       4.51788765E-06
   3.46600008       4.54839756E-06
   3.47300005       4.57686792E-06
   3.48000002       4.60330375E-06
   3.48699999       4.62772459E-06
   3.49399996       4.65016365E-06
   3.50099993       4.67066866E-06
   3.50799990       4.68929738E-06
   3.51500010       4.70611621E-06
   3.52200007       4.72120291E-06
   3.52900004       4.73464615E-06
   3.53600001       4.74654371E-06
   3.54299998       4.75700199E-06
   3.54999995       4.76613377E-06
   3.55699992       4.77405865E-06
   3.56399989       4.78090669E-06
   3.57100010       4.78681750E-06
   3.57800007       4.79193614E-06
   3.58500004       4.79640721E-06
   3.59200001       4.80037261E-06
   3.59899998       4.80397011E-06
   3.60599995       4.80733297E-06
   3.61299992       4.81059624E-06
   3.61999989       4.81389316E-06
   3.62700009       4.81735651E-06
   3.63400006       4.82111818E-06
   3.64100003       4.82531050E-06
   3.64800000       4.83006488E-06
   3.65499997       4.83550730E-06
   3.66199994       4.84175644E-06
   3.66899991       4.84891325E-06
   3.67600012       4.85706369E-06
   3.68300009       4.86627869E-06
   3.69000006       4.87662010E-06
   3.69700003       4.88814430E-06
   3.70400000       4.90090088E-06
   3.71099997       4.91492938E-06
   3.71799994       4.93026346E-06
   3.72499990       4.94692449E-06
   3.73200011       4.96492021E-06
   3.73900008       4.98423833E-06
   3.74600005       5.00484884E-06
   3.75300002       5.02669718E-06
   3.75999999       5.04971467E-06
   3.76699996       5.07382128E-06
   3.77399993       5.09893198E-06
   3.78099990       5.12495899E-06
   3.78800011       5.15180272E-06
   3.79500008       5.17935450E-06
   3.80200005       5.20748927E-06
   3.80900002       5.23606968E-06
   3.81599998       5.26494114E-06
   3.82299995       5.29393901E-06
   3.82999992       5.32288550E-06
   3.83699989       5.35160098E-06
   3.84400010       5.37990263E-06
   3.85100007       5.40761266E-06
   3.85800004       5.43455189E-06
   3.86500001       5.46053570E-06
   3.87199998       5.48537037E-06
   3.87899995       5.50885125E-06
   3.88599992       5.53076461E-06
   3.89299989       5.55089491E-06
   3.90000010       5.56902887E-06
   3.90700006       5.58496276E-06
   3.91400003       5.59850059E-06
   3.92100000       5.60945546E-06
   3.92799997       5.61765046E-06
   3.93499994       5.62291052E-06
   3.94199991       5.62506239E-06
   3.94899988       5.62392870E-06
   3.95600009       5.61933712E-06
   3.96300006       5.61111847E-06
   3.97000003       5.59912132E-06
   3.97700000       5.58321699E-06
   3.98399997       5.56329360E-06
   3.99099994       5.53925884E-06
   3.99799991       5.51102858E-06
   4.00500011       5.47852687E-06
   4.01200008       5.44167551E-06
   4.01900005       5.40040628E-06
   4.02600002       5.35465597E-06
   4.03299999       5.30437865E-06
   4.03999996       5.24955021E-06
   4.04699993       5.19017385E-06
   4.05399990       5.12627958E-06
   4.06099987       5.05791468E-06
   4.06799984       4.98514009E-06
   4.07499981       4.90801540E-06
   4.08199978       4.82660334E-06
   4.08900023       4.74097078E-06
   4.09600019       4.65119274E-06
   4.10300016       4.55737063E-06
   4.11000013       4.45962814E-06
   4.11700010       4.35812262E-06
   4.12400007       4.25303324E-06
   4.13100004       4.14455826E-06
   4.13800001       4.03290051E-06
   4.14499998       3.91826461E-06
   4.15199995       3.80084430E-06
   4.15899992       3.68083170E-06
   4.16599989       3.55842258E-06
   4.17299986       3.43383044E-06
   4.17999983       3.30729335E-06
   4.18699980       3.17907688E-06
   4.19399977       3.04946843E-06
   4.20100021       2.91876518E-06
   4.20800018       2.78726247E-06
   4.21500015       2.65524432E-06
   4.22200012       2.52297923E-06
   4.22900009       2.39072460E-06
   4.23600006       2.25873509E-06
   4.24300003       2.12727355E-06
   4.25000000       1.99662350E-06
   4.25699997       1.86709042E-06
   4.26399994       1.73899821E-06
   4.27099991       1.61267496E-06
   4.27799988       1.48843776E-06
   4.28499985       1.36657957E-06
   4.29199982       1.24736437E-06
   4.29899979       1.13103079E-06
   4.30600023       1.01780347E-06
   4.31300020       9.07904109E-07
   4.32000017       8.01563374E-07
   4.32700014       6.99025179E-07
   4.33400011       6.00543103E-07
   4.34100008       5.06368451E-07
   4.34800005       4.16735304E-07
   4.35500002       3.31845968E-07
   4.36199999       2.51864805E-07
   4.36899996       1.76920722E-07
   4.37599993       1.07118943E-07
   4.38299990       4.25552251E-08
   4.38999987      -1.66720415E-08
   4.39699984      -7.04574887E-08
   4.40399981      -1.18693528E-07
   4.41099977      -1.61281548E-07
   4.41800022      -1.98146125E-07
   4.42500019      -2.29247192E-07
   4.43200016      -2.54586325E-07
   4.43900013      -2.74204297E-07
   4.44600010      -2.88169957E-07
   4.45300007      -2.96565389E-07
   4.46000004      -2.99472617E-07
   4.46700001      -2.96968295E-07
   4.47399998      -2.89126547E-07
   4.48099995      -2.76029908E-07
   4.48799992      -2.57782176E-07
   4.49499989      -2.34517984E-07
   4.50199986      -2.06407179E-07
   4.50899982      -1.73650392E-07
   4.51599979      -1.36468515E-07
   4.52299976      -9.50899235E-08
   4.53000021      -4.97394552E-08
   4.53700018      -6.32917940E-10
   4.54400015       5.20204786E-08
   4.55100012       1.08008855E-07
   4.55800009       1.67106165E-07
   4.56500006       2.29064156E-07
   4.57200003       2.93610640E-07
   4.57900000       3.60455488E-07
   4.58599997       4.29300599E-07
   4.59299994       4.99851410E-07
   4.59999990       5.71825808E-07
   4.60699987       6.44956856E-07
   4.61399984       7.18991146E-07
   4.62099981       7.93681636E-07
   4.62799978       8.68780319E-07
   4.63500023       9.44031569E-07
   4.64200020       1.01917158E-06
   4.64900017       1.09393250E-06
   4.65600014       1.16805222E-06
   4.66300011       1.24128292E-06
   4.67000008       1.31339402E-06
   4.67700005       1.38417431E-06
   4.68400002       1.45342824E-06
   4.69099998       1.52097027E-06
   4.69799995       1.58661987E-06
   4.70499992       1.65019947E-06
   4.71199989       1.71153442E-06
   4.71899986       1.77045695E-06
   4.72599983       1.82681106E-06
   4.73299980       1.88045863E-06
   4.73999977       1.93128176E-06
   4.74700022       1.97918189E-06
   4.75400019       2.02407523E-06
   4.76100016       2.06588743E-06
   4.76800013       2.10455187E-06
   4.77500010       2.14000806E-06
   4.78200006       2.17220713E-06
   4.78900003       2.20111383E-06
   4.79600000       2.22670928E-06
   4.80299997       2.24899281E-06
   4.80999994       2.26797920E-06
   4.81699991       2.28369709E-06
   4.82399988       2.29618422E-06
   4.83099985       2.30548221E-06
   4.83799982       2.31163472E-06
   4.84499979       2.31468789E-06
   4.85200024       2.31469494E-06
   4.85900021       2.31172044E-06
   4.86600018       2.30584487E-06
   4.87300014       2.29716466E-06
   4.88000011       2.28578870E-06
   4.88700008       2.27183341E-06
   4.89400005       2.25542044E-06
   4.90100002       2.23667348E-06
   4.90799999       2.21571622E-06
   4.91499996       2.19267395E-06
   4.92199993       2.16767171E-06
   4.92899990       2.14084071E-06
   4.93599987       2.11231850E-06
   4.94299984       2.08225242E-06
   4.94999981       2.05079550E-06
   4.95699978       2.01810394E-06
   4.96400023       1.98433099E-06
   4.97100019       1.94962536E-06
   4.97800016       1.91413164E-06
   4.98500013       1.87799219E-06
   4.99200010       1.84134956E-06