  -15.0000000        -1.18021238E-38
  -14.9499998         0.00000000    
  -14.8999996        -0.00000000    
  -14.8500004        -2.82153127E-38
  -14.8000002         0.00000000    
  -14.7500000         2.46627745E-38
  -14.6999998         2.68144767E-38
  -14.6499996         0.00000000    
  -14.6000004        -1.49117172E-38
  -14.5500002        -1.91645964E-38
  -14.5000000        -2.64421181E-38
  -14.4499998        -2.13289972E-38
  -14.3999996        -2.67096652E-38
  -14.3500004        -0.00000000    
  -14.3000002        -0.00000000    
  -14.2500000         0.00000000    
  -14.1999998         1.79292047E-38
  -14.1499996         2.55773656E-38
  -14.1000004         3.10189915E-38
  -14.0500002         2.22397024E-38
  -14.0000000         0.00000000    
  -13.9499998        -0.00000000    
  -13.8999996        -2.51508580E-38
  -13.8500004        -2.51541482E-38
  -13.8000002        -2.14836599E-38
  -13.7500000        -1.27713936E-38
  -13.6999998         0.00000000    
  -13.6499996         1.23561790E-38
  -13.6000004         1.96252929E-38
  -13.5500002         1.62772125E-38
  -13.5000000         0.00000000    
  -13.4499998        -0.00000000    
  -13.3999996        -1.80651797E-38
  -13.3500004        -2.38415295E-38
  -13.3000002        -1.49657050E-38
  -13.2500000         0.00000000    
  -13.1999998         2.59494664E-38
  -13.1499996         2.98434086E-38
  -13.1000004         2.39094028E-38
  -13.0500002         0.00000000    
  -13.0000000        -0.00000000    
  -12.9499998        -2.20438850E-38
  -12.8999996        -2.13345575E-38
  -12.8500004        -2.62740267E-38
  -12.8000002        -3.17502619E-38
  -12.7500000        -2.04392497E-38
  -12.6999998         4.84033713E-38
  -12.6499996         1.65219176E-37
  -12.6000004         1.97113301E-37
  -12.5500002        -6.18867884E-38
  -12.5000000        -6.40558505E-37
  -12.4499998        -1.06475088E-36
  -12.3999996        -3.79257326E-37
  -12.3500004         1.96223452E-36
  -12.3000002         4.54899417E-36
  -12.2500000         3.55946204E-36
  -12.1999998        -4.43087866E-36
  -12.1499996        -1.62377254E-35
  -12.1000004        -1.81589828E-35
  -12.0500002         6.11196006E-36
  -12.0000000         5.25449246E-35
  -11.9499998         7.57692320E-35
  -11.8999996         6.56316005E-36
  -11.8500004        -1.68574695E-34
  -11.8000002        -3.09629391E-34
  -11.7500000        -1.37462803E-34
  -11.6999998         5.13298986E-34
  -11.6499996         1.27952707E-33
  -11.6000004         1.11370927E-33
  -11.5500002        -1.04493991E-33
  -11.5000000        -4.70778104E-33
  -11.4499998        -6.52595378E-33
  -11.3999996        -1.40369849E-33
  -11.3500004         1.25835965E-32
  -11.3000002         2.76756921E-32
  -11.2500000         2.51854543E-32
  -11.1999998        -1.28872105E-32
  -11.1499996        -8.01483846E-32
  -11.1000004        -1.26915374E-31
  -11.0500002        -7.45228741E-32
  -11.0000000         1.20805390E-31
  -10.9499998         3.81748256E-31
  -10.8999996         4.80941430E-31
  -10.8500004         1.55872690E-31
  -10.8000002        -6.33108891E-31
  -10.7500000        -1.46519794E-30
  -10.6999998        -1.52122379E-30
  -10.6499996        -1.22971802E-31
  -10.6000004         2.45427610E-30
  -10.5500002         4.55563043E-30
  -10.5000000         3.84681072E-30
  -10.4499998        -7.90176424E-31
  -10.3999996        -7.33724916E-30
  -10.3500004        -1.07242324E-29
  -10.3000002        -6.18139817E-30
  -10.2500000         5.58737141E-30
  -10.1999998         1.59043385E-29
  -10.1499996         1.29688677E-29
  -10.1000004        -6.27657936E-30
  -10.0500002        -2.60003612E-29
  -10.0000000        -1.65581782E-29
  -9.94999981         3.88381709E-29
  -9.89999962         1.09722167E-28
  -9.85000038         1.10758907E-28
  -9.80000019        -4.63579282E-29
  -9.75000000        -3.48843859E-28
  -9.69999981        -5.98471030E-28
  -9.64999962        -4.57058131E-28
  -9.60000038         3.17160073E-28
  -9.55000019         1.53231050E-27
  -9.50000000         2.38826368E-27
  -9.44999981         1.76442839E-27
  -9.39999962        -9.64626087E-28
  -9.35000038        -4.98161502E-27
  -9.30000019        -7.73959831E-27
  -9.25000000        -6.03839358E-27
  -9.19999981         1.63145853E-27
  -9.14999962         1.27734800E-26
  -9.10000038         2.06351114E-26
  -9.05000019         1.73969514E-26
  -9.00000000        -7.42121715E-29
  -8.94999981        -2.54624240E-26
  -8.89999962        -4.37183324E-26
  -8.85000038        -3.92008742E-26
  -8.80000019        -7.69642358E-27
  -8.75000000         3.62165888E-26
  -8.69999981         6.47080907E-26
  -8.64999962         5.55757315E-26
  -8.60000038         1.29946730E-26
  -8.55000019        -2.82691664E-26
  -8.50000000        -2.66530616E-26
  -8.44999981         2.42538891E-26
  -8.39999962         6.85242608E-26
  -8.35000038         1.20225599E-26
  -8.30000019        -1.95266530E-25
  -8.25000000        -4.65326615E-25
  -8.19999981        -5.53362703E-25
  -8.14999962        -1.82757859E-25
  -8.10000038         7.10326006E-25
  -8.05000019         1.76143884E-24
  -8.00000000         2.20273512E-24
  -7.94999981         1.25178154E-24
  -7.90000010        -1.25489892E-24
  -7.84999990        -4.37185964E-24
  -7.80000019        -6.17081394E-24
  -7.75000000        -4.69368689E-24
  -7.69999981         6.12521601E-25
  -7.65000010         7.85863234E-24
  -7.59999990         1.30297008E-23
  -7.55000019         1.19748446E-23
  -7.50000000         3.24680022E-24
  -7.44999981        -9.98268845E-24
  -7.40000010        -2.06564127E-23
  -7.34999990        -2.15510725E-23
  -7.30000019        -1.01924955E-23
  -7.25000000         8.29828661E-24
  -7.19999981         2.31407960E-23
  -7.15000010         2.44933564E-23
  -7.09999990         1.09503234E-23
  -7.05000019        -7.68386257E-24
  -7.00000000        -1.59335167E-23
  -6.94999981        -4.51773777E-24
  -6.90000010         1.93035210E-23
  -6.84999990         3.22364601E-23
  -6.80000019         9.98725122E-24
  -6.75000000        -5.02718588E-23
  -6.69999981        -1.16093226E-22
  -6.65000010        -1.30004883E-22
  -6.59999990        -4.57689177E-23
  -6.55000019         1.27651717E-22
  -6.50000000         3.06206395E-22
  -6.44999981         3.60586654E-22
  -6.40000010         1.93030187E-22
  -6.34999990        -1.78166268E-22
  -6.30000019        -5.85691281E-22
  -6.25000000        -7.74127659E-22
  -6.19999981        -5.43380215E-22
  -6.15000010         9.90914499E-23
  -6.09999990         8.79790390E-22
  -6.05000019         1.36129190E-21
  -6.00000000         1.17951381E-21
  -5.94999981         2.91318204E-22
  -5.90000010        -9.30201555E-22
  -5.84999990        -1.84954192E-21
  -5.80000019        -1.92015378E-21
  -5.75000000        -1.03699166E-21
  -5.69999981         3.46831040E-22
  -5.65000010         1.45909349E-21
  -5.59999990         1.69784899E-21
  -5.55000019         1.06837767E-21
  -5.50000000         2.41203575E-22
  -5.44999981         1.13621883E-22
  -5.40000010         1.08983812E-21
  -5.34999990         2.55720685E-21
  -5.30000019         3.00754248E-21
  -5.25000000         9.04605001E-22
  -5.19999981        -4.10927698E-21
  -5.15000010        -1.04191064E-20
  -5.09999990        -1.47103183E-20
  -5.05000019        -1.34300931E-20
  -5.00000000        -4.80143328E-21
  -4.94999981         9.68078309E-21
  -4.90000010         2.52414956E-20
  -4.84999990         3.55287838E-20
  -4.80000019         3.52796344E-20
  -4.75000000         2.26490792E-20
  -4.69999981         3.62475811E-23
  -4.65000010        -2.69193248E-20
  -4.59999990        -5.14381295E-20
  -4.55000019        -6.75863041E-20
  -4.50000000        -7.11530035E-20
  -4.44999981        -5.94515386E-20
  -4.40000010        -3.09465199E-20
  -4.34999990         1.41896549E-20
  -4.30000019         7.22097979E-20
  -4.25000000         1.33518415E-19
  -4.19999981         1.82012163E-19
  -4.15000010         1.97462876E-19
  -4.09999990         1.61511642E-19
  -4.05000019         6.55734894E-20
  -4.00000000        -8.25120610E-20
  -3.95000005        -2.55940693E-19
  -3.90000010        -4.12379753E-19
  -3.84999990        -5.02567695E-19
  -3.79999995        -4.82757391E-19
  -3.75000000        -3.27435827E-19
  -3.70000005        -4.03808088E-20
  -3.65000010         3.39049546E-19
  -3.59999990         7.36379963E-19
  -3.54999995         1.05088799E-18
  -3.50000000         1.17573260E-18
  -3.45000005         1.02542716E-18
  -3.40000010         5.66903115E-19
  -3.34999990        -1.55847290E-19
  -3.29999995        -1.01377994E-18
  -3.25000000        -1.81011541E-18
  -3.20000005        -2.32014339E-18
  -3.15000010        -2.35088535E-18
  -3.09999990        -1.79730982E-18
  -3.04999995        -6.88166603E-19
  -3.00000000         8.01723922E-19
  -2.95000005         2.37204587E-18
  -2.90000010         3.65092748E-18
  -2.84999990         4.26920818E-18
  -2.79999995         3.95478194E-18
  -2.75000000         2.60724248E-18
  -2.70000005         3.60893421E-19
  -2.65000010        -2.39700150E-18
  -2.59999990        -5.06142883E-18
  -2.54999995        -6.90592124E-18
  -2.50000000        -7.23833329E-18
  -2.45000005        -5.59730787E-18
  -2.40000010        -1.95052518E-18
  -2.34999990         3.15413687E-18
  -2.29999995         8.60433604E-18
  -2.25000000         1.28108737E-17
  -2.20000005         1.40850611E-17
  -2.15000010         1.10940091E-17
  -2.09999990         3.42153562E-18
  -2.04999995        -8.01958966E-18
  -2.00000000        -2.08831258E-17
  -1.95000005        -3.15574698E-17
  -1.89999998        -3.60599727E-17
  -1.85000002        -3.08777060E-17
  -1.79999995        -1.43537988E-17
  -1.75000000         1.24849918E-17
  -1.70000005         4.53742844E-17
  -1.64999998         7.72640161E-17
  -1.60000002         9.91280276E-17
  -1.54999995         1.02194876E-16
  -1.50000000         7.95965199E-17
  -1.45000005         2.90698730E-17
  -1.39999998        -4.56511583E-17
  -1.35000002        -1.33746436E-16
  -1.29999995        -2.18296616E-16
  -1.25000000        -2.78184122E-16
  -1.20000005        -2.91666875E-16
  -1.14999998        -2.41757470E-16
  -1.10000002        -1.20943110E-16
  -1.04999995         6.35447360E-17
  -1.00000000         2.89167890E-16
 -0.949999988         5.15524316E-16
 -0.899999976         6.92157684E-16
 -0.850000024         7.67243079E-16
 -0.800000012         6.96667976E-16
 -0.750000000         4.59594783E-16
 -0.699999988         6.48213800E-17
 -0.649999976        -4.43808630E-16
 -0.600000024        -9.84126500E-16
 -0.550000012        -1.45383973E-15
 -0.500000000        -1.73609270E-15
 -0.449999988        -1.73734060E-15
 -0.400000006        -1.39873812E-15
 -0.349999994        -7.18007807E-16
 -0.300000012         2.27042867E-16
 -0.250000000         1.28507371E-15
 -0.200000003         2.28325121E-15
 -0.150000006         3.01678789E-15
 -0.100000001         3.31671230E-15
  -5.00000007E-02     3.03382574E-15
   0.00000000         2.15712165E-15
   5.00000007E-02     8.19033373E-16
  0.100000001        -7.50950453E-16
  0.150000006        -2.23614136E-15
  0.200000003        -3.28967649E-15
  0.250000000        -3.54803065E-15
  0.300000012        -2.88516384E-15
  0.349999994        -1.24856023E-15
  0.400000006         1.23285847E-15
  0.449999988         4.08590821E-15
  0.500000000         6.60774934E-15
  0.550000012         8.36498483E-15
  0.600000024         8.53225097E-15
  0.649999976         7.25028524E-15
  0.699999988         3.87400259E-15
  0.750000000        -9.57720036E-16
  0.800000012        -6.35244302E-15
  0.850000024        -1.10530295E-14
  0.899999976        -1.48062613E-14
  0.949999988        -1.53823114E-14
   1.00000000        -1.25607397E-14
   1.04999995        -4.95264865E-15
   1.10000002         5.33720076E-15
   1.14999998         1.76971593E-14
   1.20000005         3.06244220E-14
   1.25000000         4.11054417E-14
   1.29999995         4.71087674E-14
   1.35000002         4.81169263E-14
   1.39999998         4.04342561E-14
   1.45000005         2.65133882E-14
   1.50000000         4.49895832E-15
   1.54999995        -1.65048351E-14
   1.60000002        -3.44674376E-14
   1.64999998        -4.46834918E-14
   1.70000005        -4.26133060E-14
   1.75000000        -2.37439683E-14
   1.79999995         4.84465661E-15
   1.85000002         3.94310269E-14
   1.89999998         8.07016265E-14
   1.95000005         1.26739236E-13
   2.00000000         1.58272850E-13
   2.04999995         1.90946664E-13
   2.09999990         1.97456851E-13
   2.15000010         1.83286302E-13
   2.20000005         1.34563449E-13
   2.25000000         8.87458306E-14
   2.29999995         4.25797771E-14
   2.34999990         4.33952385E-15
   2.40000010        -3.63114419E-14
   2.45000005        -3.24412331E-14
   2.50000000         2.09428591E-14
   2.54999995         1.37487718E-13
   2.59999990         2.76597267E-13
   2.65000010         4.38208904E-13
   2.70000005         5.74912784E-13
   2.75000000         7.21719776E-13
   2.79999995         7.64982858E-13
   2.84999990         7.58325965E-13
   2.90000010         8.74422930E-13
   2.95000005         8.85789001E-13
   3.00000000         8.65051683E-13
   3.04999995         7.15658381E-13
   3.09999990         5.42206796E-13
   3.15000010         5.72371198E-13
   3.20000005         6.44379461E-13
   3.25000000         8.14172243E-13
   3.29999995         1.31397898E-12
   3.34999990         1.83424261E-12
   3.40000010         1.94992134E-12
   3.45000005         2.30359568E-12
   3.50000000         2.76918657E-12
   3.54999995         3.12639649E-12
   3.59999990         3.44215607E-12
   3.65000010         4.08520353E-12
   3.70000005         4.10578776E-12
   3.75000000         3.75717036E-12
   3.79999995         4.68127100E-12
   3.84999990         5.43450094E-12
   3.90000010         5.36896352E-12
   3.95000005         6.41707954E-12
   4.00000000         7.29058914E-12
   4.05000019         6.63691801E-12
   4.09999990         6.60341963E-12
   4.15000010         7.31761700E-12
   4.19999981         1.06500243E-11
   4.25000000         1.26776896E-11
   4.30000019         1.64339896E-11
   4.34999990         2.07585078E-11
   4.40000010         2.09709229E-11
   4.44999981         2.08398628E-11
   4.50000000         1.71493687E-11
   4.55000019         1.95692646E-11
   4.59999990         2.32649369E-11
   4.65000010         2.62412678E-11
   4.69999981         3.26466389E-11
   4.75000000         3.97969921E-11
   4.80000019         3.47621654E-11
   4.84999990         3.41895817E-11
   4.90000010         4.41683704E-11
   4.94999981         4.75745485E-11
   5.00000000         5.02232665E-11
   5.05000019         6.29036406E-11
   5.09999990         6.86410997E-11
   5.15000010         7.68305211E-11
   5.19999981         7.87563209E-11
   5.25000000         9.58239599E-11
   5.30000019         9.45461348E-11
   5.34999990         1.23080449E-10
   5.40000010         1.37569053E-10
   5.44999981         1.55646787E-10
   5.50000000         1.30712469E-10
   5.55000019         1.18566906E-10
   5.59999990         1.22244784E-10
   5.65000010         1.39222314E-10
   5.69999981         1.58528982E-10
   5.75000000         2.49152282E-10
   5.80000019         3.17875254E-10
   5.84999990         3.29552330E-10
   5.90000010         3.28531091E-10
   5.94999981         2.08031606E-10
   6.00000000         1.86063609E-10
   6.05000019         2.26588276E-10
   6.09999990         3.45096285E-10
   6.15000010         5.09820020E-10
   6.19999981         7.28019811E-10
   6.25000000         7.11497194E-10
   6.30000019         6.91520174E-10
   6.34999990         5.20170129E-10
   6.40000010         5.05609554E-10
   6.44999981         5.35125055E-10
   6.50000000         4.35445902E-10
   6.55000019         5.12844545E-10
   6.59999990         8.00885802E-10
   6.65000010         9.92210536E-10
   6.69999981         1.03203968E-09
   6.75000000         1.05721309E-09
   6.80000019         9.10264086E-10
   6.84999990         1.34779710E-09
   6.90000010         1.14400200E-09
   6.94999981         1.83917981E-09
   7.00000000         2.00828376E-09
   7.05000019         2.01702854E-09
   7.09999990         1.95893857E-09
   7.15000010         1.86022864E-09
   7.19999981         1.96173744E-09
   7.25000000         1.99809191E-09
   7.30000019         1.72760251E-09
   7.34999990         2.25771957E-09
   7.40000010         1.39829004E-09
   7.44999981         2.25684027E-09
   7.50000000         2.47881049E-09
   7.55000019         3.83515530E-09
   7.59999990         4.04174871E-09
   7.65000010         2.68985367E-09
   7.69999981         4.90555285E-09
   7.75000000         5.20411447E-09
   7.80000019         3.39873196E-09
   7.84999990         2.24247887E-09
   7.90000010         2.42415110E-09
   7.94999981         1.55350377E-09
   8.00000000         2.88713009E-09
   8.05000019         6.20869800E-09
   8.10000038         9.08597197E-09
   8.14999962         9.00628638E-09
   8.19999981         7.42562500E-09
   8.25000000         9.29291666E-09
   8.30000019         6.88185864E-09
   8.35000038         3.86562427E-09
   8.39999962         4.35184583E-10
   8.44999981        -1.44033563E-09
   8.50000000        -4.06144451E-10
   8.55000019         7.88755194E-09
   8.60000038         9.79324977E-09
   8.64999962         1.34537874E-08
   8.69999981         1.99588328E-08
   8.75000000         1.92482688E-08
   8.80000019         1.96701713E-08
   8.85000038         1.68996070E-08
   8.89999962         6.60715838E-09
   8.94999981         3.10872905E-09
   9.00000000        -1.31284927E-10
   9.05000019         3.32945094E-09
   9.10000038        -3.26713684E-10
   9.14999962         1.75509864E-08
   9.19999981         1.24981705E-08
   9.25000000         1.75031385E-08
   9.30000019         2.48431338E-08
   9.35000038         2.23970300E-08
   9.39999962         2.05692494E-08
   9.44999981         2.20721552E-09
   9.50000000        -8.12507661E-09
   9.55000019         2.77469048E-09
   9.60000038         1.28100561E-08
   9.64999962        -8.23936752E-10
   9.69999981         4.25300684E-08
   9.75000000         4.67374797E-08
   9.80000019         2.61160622E-08
   9.85000038        -6.92622804E-09
   9.89999962        -1.85200957E-08
   9.94999981        -1.55961821E-08
   10.0000000         1.20693162E-08
   10.0500002         5.28799582E-08
   10.1000004         6.94440629E-08
   10.1499996         5.82419730E-08
   10.1999998         6.16269205E-08
   10.2500000         1.56985198E-08
   10.3000002        -2.08124540E-08
   10.3500004        -4.08235294E-08
   10.3999996        -7.62011751E-08
   10.4499998        -7.14455550E-10
   10.5000000         7.95773829E-08
   10.5500002         7.92927963E-08
   10.6000004         5.97812786E-08
   10.6499996         1.75411117E-08
   10.6999998        -1.26351667E-08
   10.7500000        -4.94850028E-08
   10.8000002        -3.85964825E-08
   10.8500004        -3.01224929E-08
   10.8999996         1.67842629E-08
   10.9499998         9.81984840E-08
   11.0000000         1.34752341E-07
   11.0500002         5.86688280E-08
   11.1000004         6.50726264E-08
   11.1499996        -1.20271864E-08
   11.1999998        -3.82127290E-08
   11.2500000        -3.69480517E-08
   11.3000002         2.64883901E-08
   11.3500004        -6.69496885E-08
   11.3999996        -1.24841506E-07
   11.4499998        -1.01967757E-07
   11.5000000        -7.24057188E-08
   11.5500002        -3.59096433E-08
   11.6000004         8.65548273E-08
   11.6499996         1.83263182E-07
   11.6999998         1.24232329E-07
   11.7500000         5.80562691E-08
   11.8000002        -5.38773079E-08
   11.8500004        -9.19274825E-08
   11.8999996        -7.89595020E-08
   11.9499998         5.96979959E-08
   12.0000000        -3.03057632E-08
   12.0500002        -7.60691918E-08
   12.1000004        -1.47724236E-07
   12.1499996        -1.63291730E-07
   12.1999998        -1.90593440E-07
   12.2500000        -9.20736056E-08
   12.3000002        -8.35366620E-08
   12.3500004         4.39214816E-08
   12.3999996         2.39329438E-07
   12.4499998         2.87963616E-07
   12.5000000         4.96731900E-07
   12.5500002         3.61167338E-07
   12.6000004         1.32580396E-07
   12.6499996        -1.64257983E-07
   12.6999998        -6.56438488E-07
   12.7500000        -7.08039977E-07
   12.8000002        -7.97464565E-07
   12.8500004        -4.31336332E-07
   12.8999996        -6.04655099E-08
   12.9499998         4.60098704E-07
   13.0000000         6.13006819E-07
   13.0500002         4.97903443E-07
   13.1000004         3.06955243E-08
   13.1499996        -2.25786962E-07
   13.1999998        -2.25673588E-07
   13.2500000        -2.64741367E-08
   13.3000002         1.21423042E-07
   13.3500004         1.77110394E-07
   13.3999996         2.24930787E-07
   13.4499998         1.69137380E-07
   13.5000000        -4.57277736E-07
   13.5500002        -8.77680861E-07
   13.6000004        -1.03945274E-06
   13.6499996        -8.18550120E-07
   13.6999998        -1.89546327E-07
   13.7500000         1.62592940E-07
   13.8000002         5.09925144E-07
   13.8500004         5.24006396E-07
   13.8999996         6.25175801E-07
   13.9499998         4.93483640E-07
   14.0000000         5.04914283E-07
   14.0500002         7.89089597E-07
   14.1000004         8.17728960E-07
   14.1499996         2.45287083E-07
   14.1999998        -5.53946734E-07
   14.2500000        -1.24032260E-06
   14.3000002        -1.62175479E-06
   14.3500004        -1.75139382E-06
   14.3999996        -1.09131236E-06
   14.4499998        -2.20864294E-07
   14.5000000         6.82358404E-07
   14.5500002         1.20022264E-06
   14.6000004         1.29033140E-06
   14.6499996         8.49829291E-07
   14.6999998         2.59734662E-07
   14.7500000        -3.23435643E-07
   14.8000002        -3.20019012E-07
   14.8500004        -3.45797790E-09
   14.8999996         4.16391146E-07
   14.9499998         6.46651074E-07
   15.0000000         5.09656559E-07
   15.0500002         1.80054897E-07
   15.1000004        -3.55760250E-07
   15.1499996        -8.74901048E-07
   15.1999998        -1.14414104E-06
   15.2500000        -9.85202632E-07
   15.3000002        -7.20905632E-07
   15.3500004        -3.46868887E-07
   15.3999996         1.29861419E-07
   15.4499998         3.97781236E-07
   15.5000000         6.42581540E-07
   15.5500002         8.09115079E-07
   15.6000004         9.28117686E-07
   15.6499996         9.25024040E-07
   15.6999998         7.34079947E-07
   15.7500000         2.98495195E-07
   15.8000002        -2.44731552E-07
   15.8500004        -7.94482219E-07
   15.8999996        -1.12595023E-06
   15.9499998        -1.07447204E-06
   16.0000000        -6.19719231E-07
   16.0499992         1.23045965E-07
   16.1000004         8.59589022E-07
   16.1499996         1.23498342E-06
   16.2000008         1.15337605E-06
   16.2500000         6.09239351E-07
   16.2999992        -2.44830431E-07
   16.3500004        -9.64846095E-07
   16.3999996        -1.26438158E-06
   16.4500008        -9.72909220E-07
   16.5000000        -2.67303164E-07
   16.5499992         6.31630485E-07
   16.6000004         1.30623425E-06
   16.6499996         1.48438949E-06
   16.7000008         1.09701818E-06
   16.7500000         3.75759640E-07
   16.7999992        -3.90277222E-07
   16.8500004        -1.00927082E-06
   16.8999996        -1.35232790E-06
   16.9500008        -1.39003532E-06
   17.0000000        -1.21540222E-06
   17.0499992        -5.56368605E-07
   17.1000004         4.04465538E-07
   17.1499996         1.54140014E-06
   17.2000008         2.31974082E-06
   17.2500000         2.63102038E-06
   17.2999992         1.97338363E-06
   17.3500004         4.96542896E-07
   17.3999996        -1.28365605E-06
   17.4500008        -2.60962543E-06
   17.5000000        -2.91755282E-06
   17.5499992        -2.09484870E-06
   17.6000004        -4.62356923E-07
   17.6499996         1.31399327E-06
   17.7000008         2.34329059E-06
   17.7500000         2.34891195E-06
   17.7999992         1.29131149E-06
   17.8500004        -6.75427572E-08
   17.8999996        -1.04040441E-06
   17.9500008        -1.32479170E-06
   18.0000000        -1.05284857E-06
   18.0499992        -3.66067468E-07
   18.1000004         1.27596167E-07
   18.1499996         2.36359284E-07
   18.2000008        -3.90452129E-07
   18.2500000        -1.05283584E-06
   18.2999992        -1.26888540E-06
   18.3500004        -7.37194455E-07
   18.3999996         4.56908253E-07
   18.4500008         1.67462929E-06
   18.5000000         2.46484751E-06
   18.5499992         2.49615846E-06
   18.6000004         1.57042507E-06
   18.6499996         2.55153992E-07
   18.7000008        -1.07004917E-06
   18.7500000        -2.05784431E-06
   18.7999992        -2.26314637E-06
   18.8500004        -1.72623618E-06
   18.8999996        -8.47946183E-07
   18.9500008         8.17966637E-08
   19.0000000         6.46821320E-07
   19.0499992         6.87468912E-07
   19.1000004         3.53561234E-07
   19.1499996        -1.08594065E-07
   19.2000008        -2.44534021E-07
   19.2500000         8.20698620E-09
   19.2999992         4.81391851E-07
   19.3500004         1.04872549E-06
   19.3999996         1.57554678E-06
   19.4500008         1.56126225E-06
   19.5000000         1.33967501E-06
   19.5499992         6.80429764E-07
   19.6000004        -6.79075853E-08
   19.6499996        -1.12947100E-06
   19.7000008        -2.30326532E-06
   19.7500000        -3.36629068E-06
   19.7999992        -4.01555371E-06
   19.8500004        -3.78721165E-06
   19.8999996        -2.39508881E-06
   19.9500008         1.39198633E-07
   20.0000000         3.21286825E-06
   20.0499992         5.84248983E-06
   20.1000004         6.85264922E-06
   20.1499996         5.66210747E-06
   20.2000008         2.61746823E-06
   20.2500000        -1.34327979E-06
   20.2999992        -4.69790575E-06
   20.3500004        -6.11282030E-06
   20.3999996        -5.18361458E-06
   20.4500008        -2.44863872E-06
   20.5000000         7.63753519E-07
   20.5499992         2.90850789E-06
   20.6000004         3.03554407E-06
   20.6499996         1.38791825E-06
   20.7000008        -1.23401526E-06
   20.7500000        -3.25098245E-06
   20.7999992        -3.64030302E-06
   20.8500004        -2.06712866E-06
   20.8999996         1.05543802E-06
   20.9500008         4.40224267E-06
   21.0000000         6.68247048E-06
   21.0499992         6.92194499E-06
   21.1000004         4.83851045E-06
   21.1499996         9.41207304E-07
   21.2000008        -3.57090880E-06
   21.2500000        -7.26023836E-06
   21.2999992        -9.04440549E-06
   21.3500004        -8.26075120E-06
   21.3999996        -5.11590042E-06
   21.4500008        -5.54102940E-07
   21.5000000         4.07724156E-06
   21.5499992         7.40586756E-06
   21.6000004         8.47848332E-06
   21.6499996         7.10344284E-06
   21.7000008         3.77227070E-06
   21.7500000        -4.07100259E-07
   21.7999992        -4.08199139E-06
   21.8500004        -6.19852699E-06
   21.8999996        -6.17298974E-06
   21.9500008        -4.18685840E-06
   22.0000000        -9.86327791E-07
   22.0499992         2.25751569E-06
   22.1000004         4.45093838E-06
   22.1499996         4.87002899E-06
   22.2000008         3.40804809E-06
   22.2500000         6.89914714E-07
   22.2999992        -2.21852429E-06
   22.3500004        -4.13197722E-06
   22.3999996        -4.27750911E-06
   22.4500008        -2.59207195E-06
   22.5000000         1.86819861E-07
   22.5499992         2.88907836E-06
   22.6000004         4.35185939E-06
   22.6499996         3.97593067E-06
   22.7000008         1.94151858E-06
   22.7500000        -8.75601756E-07
   22.7999992        -3.31027536E-06
   22.8500004        -4.41654174E-06
   22.8999996        -3.85509020E-06
   22.9500008        -1.94007202E-06
   23.0000000         5.42451176E-07
   23.0499992         2.70611895E-06
   23.1000004         3.88228818E-06
   23.1499996         3.80785673E-06
   23.2000008         2.62819185E-06
   23.2500000         7.57950886E-07
   23.2999992        -1.24530982E-06
   23.3500004        -2.83330405E-06
   23.3999996        -3.56460555E-06
   23.4500008        -3.23588984E-06
   23.5000000        -1.93241522E-06
   23.5499992        -5.54136435E-08
   23.6000004         1.77490142E-06
   23.6499996         2.93834569E-06
   23.7000008         3.04920627E-06
   23.7500000         2.13526300E-06
   23.7999992         6.23672804E-07
   23.8500004        -8.52041580E-07
   23.8999996        -1.74465174E-06
   23.9500008        -1.82057374E-06
   24.0000000        -1.23224208E-06
   24.0499992        -3.88404288E-07
   24.1000004         2.83205452E-07
   24.1499996         5.43329179E-07
   24.2000008         4.12457297E-07
   24.2500000         9.69236282E-08
   24.2999992        -1.64772487E-07
   24.3500004        -2.34155323E-07
   24.3999996        -1.07087729E-07
   24.4500008         1.35131359E-07
   24.5000000         4.06382270E-07
   24.5499992         6.48166520E-07
   24.6000004         8.14457394E-07
   24.6499996         8.29634814E-07
   24.7000008         5.86276997E-07
   24.7500000         8.60090577E-09
   24.7999992        -8.50309902E-07
   24.8500004        -1.74765023E-06
   24.8999996        -2.29858097E-06
   24.9500008        -2.13472435E-06
   25.0000000        -1.11019983E-06
   25.0499992         5.57766384E-07
   25.1000004         2.30848514E-06
   25.1499996         3.43411534E-06
   25.2000008         3.38074938E-06
   25.2500000         2.01927242E-06
   25.2999992        -2.45405062E-07
   25.3500004        -2.59044964E-06
   25.3999996        -4.08446795E-06
   25.4500008        -4.06701383E-06