  -15.0000000         4.20357113E-38
  -14.9499998         3.64266359E-38
  -14.8999996        -3.54463407E-38
  -14.8500004         6.34665451E-38
  -14.8000002         8.04432591E-38
  -14.7500000         4.33331147E-38
  -14.6999998        -5.97273314E-38
  -14.6499996        -3.42735912E-38
  -14.6000004        -8.45669947E-38
  -14.5500002        -1.16368365E-37
  -14.5000000        -1.44500328E-37
  -14.4499998        -1.86310770E-37
  -14.3999996        -1.39993707E-37
  -14.3500004        -4.62300695E-38
  -14.3000002         9.96081512E-38
  -14.2500000         2.49359021E-37
  -14.1999998         4.27665709E-37
  -14.1499996         4.24276539E-37
  -14.1000004         2.40361632E-37
  -14.0500002        -2.50107141E-38
  -14.0000000        -2.56612658E-37
  -13.9499998        -3.78745550E-37
  -13.8999996        -3.40355330E-37
  -13.8500004        -1.60725178E-37
  -13.8000002         4.32716454E-38
  -13.7500000         1.74554996E-37
  -13.6999998         2.43530427E-37
  -13.6499996         1.57371838E-37
  -13.6000004        -0.00000000    
  -13.5500002        -1.60399999E-37
  -13.5000000        -2.70703734E-37
  -13.4499998        -3.01558039E-37
  -13.3999996        -1.91416608E-37
  -13.3500004         0.00000000    
  -13.3000002         2.15387511E-37
  -13.2500000         3.72748956E-37
  -13.1999998         4.00787504E-37
  -13.1499996         3.87396292E-37
  -13.1000004         2.50463962E-37
  -13.0500002         3.21429337E-38
  -13.0000000        -1.91929349E-37
  -12.9499998        -3.73333376E-37
  -12.8999996        -4.85304724E-37
  -12.8500004        -5.19018486E-37
  -12.8000002        -3.92796336E-37
  -12.7500000        -1.13568963E-37
  -12.6999998         2.82470740E-37
  -12.6499996         6.27782385E-37
  -12.6000004         8.32044572E-37
  -12.5500002         6.86238817E-37
  -12.5000000         3.19906417E-37
  -12.4499998        -1.92393391E-37
  -12.3999996        -6.51106359E-37
  -12.3500004        -8.64368335E-37
  -12.3000002        -7.50167084E-37
  -12.2500000        -3.61370727E-37
  -12.1999998         1.53717206E-37
  -12.1499996         5.94633403E-37
  -12.1000004         7.63636365E-37
  -12.0500002         6.12526841E-37
  -12.0000000         2.25059856E-37
  -11.9499998        -2.14328219E-37
  -11.8999996        -5.11856438E-37
  -11.8500004        -5.52954706E-37
  -11.8000002        -3.23258278E-37
  -11.7500000         5.98118522E-38
  -11.6999998         3.99025724E-37
  -11.6499996         5.47495695E-37
  -11.6000004         4.39432580E-37
  -11.5500002         9.41853279E-38
  -11.5000000        -3.37982742E-37
  -11.4499998        -6.59910459E-37
  -11.3999996        -7.42744462E-37
  -11.3500004        -5.23090457E-37
  -11.3000002        -5.65896336E-38
  -11.2500000         4.78458047E-37
  -11.1999998         8.58665476E-37
  -11.1499996         9.19628193E-37
  -11.1000004         5.84312223E-37
  -11.0500002         2.36971341E-38
  -11.0000000        -4.29647616E-37
  -10.9499998        -4.51965345E-37
  -10.8999996        -0.00000000    
  -10.8500004         4.36749037E-37
  -10.8000002        -2.02139083E-38
  -10.7500000        -1.86508817E-36
  -10.6999998        -4.20094338E-36
  -10.6499996        -4.45451769E-36
  -10.6000004         2.30500705E-37
  -10.5500002         9.66787065E-36
  -10.5000000         1.80986756E-35
  -10.4499998         1.55031332E-35
  -10.3999996        -4.93207841E-36
  -10.3500004        -3.65421475E-35
  -10.3000002        -5.57231445E-35
  -10.2500000        -3.46720123E-35
  -10.1999998         3.16128284E-35
  -10.1499996         1.04291764E-34
  -10.1000004         1.14628263E-34
  -10.0500002         2.32393827E-35
  -10.0000000        -1.13422474E-34
  -9.94999981        -1.47341364E-34
  -9.89999962         3.08931825E-35
  -9.85000038         2.96898787E-34
  -9.80000019         2.36208679E-34
  -9.75000000        -5.53921086E-34
  -9.69999981        -1.83999231E-33
  -9.64999962        -2.29943813E-33
  -9.60000038        -2.14713686E-35
  -9.55000019         5.65829055E-33
  -9.50000000         1.18632323E-32
  -9.44999981         1.17119138E-32
  -9.39999962        -1.93942995E-33
  -9.35000038        -2.87170801E-32
  -9.30000019        -5.37143613E-32
  -9.25000000        -4.94812533E-32
  -9.19999981         7.18905749E-33
  -9.14999962         1.08405570E-31
  -9.10000038         1.97000875E-31
  -9.05000019         1.81649706E-31
  -9.00000000        -4.30240961E-33
  -8.94999981        -3.24474386E-31
  -8.89999962        -6.00863341E-31
  -8.85000038        -5.76445361E-31
  -8.80000019        -8.59233179E-32
  -8.75000000         7.52891342E-31
  -8.69999981         1.48386479E-30
  -8.64999962         1.51413894E-30
  -8.60000038         5.25666921E-31
  -8.55000019        -1.16311527E-30
  -8.50000000        -2.62508991E-30
  -8.44999981        -2.87988988E-30
  -8.39999962        -1.67824275E-30
  -8.35000038         1.48065645E-31
  -8.30000019         1.31501030E-30
  -8.25000000         1.47915981E-30
  -8.19999981         2.19666397E-30
  -8.14999962         5.95544860E-30
  -8.10000038         1.29610301E-29
  -8.05000019         1.77447361E-29
  -8.00000000         9.57132038E-30
  -7.94999981        -2.03426877E-29
  -7.90000010        -6.66889415E-29
  -7.84999990        -1.01582356E-28
  -7.80000019        -8.13688730E-29
  -7.75000000         2.57310951E-29
  -7.69999981         2.01269152E-28
  -7.65000010         3.54570058E-28
  -7.59999990         3.47694753E-28
  -7.55000019         7.66528002E-29
  -7.50000000        -4.24157807E-28
  -7.44999981        -9.26047591E-28
  -7.40000010        -1.07068349E-27
  -7.34999990        -5.68288482E-28
  -7.30000019         5.57060022E-28
  -7.25000000         1.83972821E-27
  -7.19999981         2.51077632E-27
  -7.15000010         1.90967182E-27
  -7.09999990        -2.80675611E-29
  -7.05000019        -2.53703175E-27
  -7.00000000        -4.29563036E-27
  -6.94999981        -4.15955955E-27
  -6.90000010        -1.94017470E-27
  -6.84999990         1.34456266E-27
  -6.80000019         4.05699801E-27
  -6.75000000         5.07347571E-27
  -6.69999981         4.61927749E-27
  -6.65000010         3.96385156E-27
  -6.59999990         3.91709460E-27
  -6.55000019         3.23327006E-27
  -6.50000000        -1.33719502E-27
  -6.44999981        -1.23460329E-26
  -6.40000010        -2.74169070E-26
  -6.34999990        -3.68518467E-26
  -6.30000019        -2.67703461E-26
  -6.25000000         1.13708583E-26
  -6.19999981         6.93065458E-26
  -6.15000010         1.17275156E-25
  -6.09999990         1.14054163E-25
  -6.05000019         3.18928144E-26
  -6.00000000        -1.15327052E-25
  -5.94999981        -2.60661066E-25
  -5.90000010        -3.05969514E-25
  -5.84999990        -1.76180780E-25
  -5.80000019         1.19306091E-25
  -5.75000000         4.58674101E-25
  -5.69999981         6.45426567E-25
  -5.65000010         5.09723559E-25
  -5.59999990         2.59659637E-26
  -5.55000019        -6.26618496E-25
  -5.50000000        -1.11707378E-24
  -5.44999981        -1.12544616E-24
  -5.40000010        -5.35926905E-25
  -5.34999990         4.56837436E-25
  -5.30000019         1.41252941E-24
  -5.25000000         1.86663896E-24
  -5.19999981         1.58503564E-24
  -5.15000010         6.88058139E-25
  -5.09999990        -4.50335644E-25
  -5.05000019        -1.46693133E-24
  -5.00000000        -2.23797196E-24
  -4.94999981        -2.86501876E-24
  -4.90000010        -3.37756831E-24
  -4.84999990        -3.35986667E-24
  -4.80000019        -1.88130053E-24
  -4.75000000         1.99842291E-24
  -4.69999981         8.24629042E-24
  -4.65000010         1.49598194E-23
  -4.59999990         1.83503546E-23
  -4.55000019         1.41070039E-23
  -4.50000000        -1.06634334E-25
  -4.44999981        -2.21599185E-23
  -4.40000010        -4.45463032E-23
  -4.34999990        -5.62114324E-23
  -4.30000019        -4.70049302E-23
  -4.25000000        -1.31034703E-23
  -4.19999981         3.91851288E-23
  -4.15000010         9.35190564E-23
  -4.09999990         1.28270992E-22
  -4.05000019         1.24408262E-22
  -4.00000000         7.34937277E-23
  -3.95000005        -1.75472768E-23
  -3.90000010        -1.26863866E-22
  -3.84999990        -2.23070426E-22
  -3.79999995        -2.73680536E-22
  -3.75000000        -2.53732327E-22
  -3.70000005        -1.52614444E-22
  -3.65000010         2.15962474E-23
  -3.59999990         2.40567336E-22
  -3.54999995         4.56900310E-22
  -3.50000000         6.09318132E-22
  -3.45000005         6.33041464E-22
  -3.40000010         4.76179111E-22
  -3.34999990         1.20631411E-22
  -3.29999995        -3.97973864E-22
  -3.25000000        -9.78332521E-22
  -3.20000005        -1.45988553E-21
  -3.15000010        -1.65228903E-21
  -3.09999990        -1.38932466E-21
  -3.04999995        -5.95408432E-22
  -3.00000000         6.53152697E-22
  -2.95000005         2.09995934E-21
  -2.90000010         3.33628114E-21
  -2.84999990         3.89491926E-21
  -2.79999995         3.39683051E-21
  -2.75000000         1.70870998E-21
  -2.70000005        -9.47712399E-22
  -2.65000010        -3.98405726E-21
  -2.59999990        -6.56511199E-21
  -2.54999995        -7.83249810E-21
  -2.50000000        -7.15883057E-21
  -2.45000005        -4.36545578E-21
  -2.40000010         1.87081582E-22
  -2.34999990         5.63489327E-21
  -2.29999995         1.07633808E-20
  -2.25000000         1.42290381E-20
  -2.20000005         1.47952174E-20
  -2.15000010         1.16041412E-20
  -2.09999990         4.46497716E-21
  -2.04999995        -5.84018310E-21
  -2.00000000        -1.73590120E-20
  -1.95000005        -2.70487527E-20
  -1.89999998        -3.13061205E-20
  -1.85000002        -2.70314756E-20
  -1.79999995        -1.29075177E-20
  -1.75000000         9.32853824E-21
  -1.70000005         3.45380993E-20
  -1.64999998         5.49580544E-20
  -1.60000002         6.21948249E-20
  -1.54999995         5.00771136E-20
  -1.50000000         1.75159211E-20
  -1.45000005        -2.99512439E-20
  -1.39999998        -8.02849935E-20
  -1.35000002        -1.17326510E-19
  -1.29999995        -1.25038741E-19
  -1.25000000        -9.26061072E-20
  -1.20000005        -1.86503621E-20
  -1.14999998         8.56873295E-20
  -1.10000002         1.97164716E-19
  -1.04999995         2.82724672E-19
  -1.00000000         3.07799515E-19
 -0.949999988         2.43738590E-19
 -0.899999976         7.92061755E-20
 -0.850000024        -1.71811979E-19
 -0.800000012        -4.64052873E-19
 -0.750000000        -7.24599463E-19
 -0.699999988        -8.63663517E-19
 -0.649999976        -7.97166416E-19
 -0.600000024        -4.71997012E-19
 -0.550000012         1.08253082E-19
 -0.500000000         8.66087983E-19
 -0.449999988         1.64821455E-18
 -0.400000006         2.24499383E-18
 -0.349999994         2.43208181E-18
 -0.300000012         2.02352780E-18
 -0.250000000         9.34110250E-19
 -0.200000003        -7.65264127E-19
 -0.150000006        -2.82207224E-18
 -0.100000001        -4.80234015E-18
  -5.00000007E-02    -6.17272861E-18
   0.00000000        -6.39673037E-18
   5.00000007E-02    -5.07460747E-18
  0.100000001        -2.08493355E-18
  0.150000006         2.30495553E-18
  0.200000003         7.39999416E-18
  0.250000000         1.21439089E-17
  0.300000012         1.52973422E-17
  0.349999994         1.56611611E-17
  0.400000006         1.24378624E-17
  0.449999988         5.43477928E-18
  0.500000000        -4.66043814E-18
  0.550000012        -1.62242097E-17
  0.600000024        -2.69275463E-17
  0.649999976        -3.40952533E-17
  0.699999988        -3.52316307E-17
  0.750000000        -2.87535260E-17
  0.800000012        -1.44451179E-17
  0.850000024         6.23431924E-18
  0.899999976         3.00005239E-17
  0.949999988         5.20310866E-17
   1.00000000         6.71496619E-17
   1.04999995         7.03442466E-17
   1.10000002         5.88222692E-17
   1.14999998         3.24970245E-17
   1.20000005        -5.18865955E-18
   1.25000000        -4.76482172E-17
   1.29999995        -8.63892873E-17
   1.35000002        -1.11664274E-16
   1.39999998        -1.15776844E-16
   1.45000005        -9.44699949E-17
   1.50000000        -4.92176501E-17
   1.54999995         1.27792795E-17
   1.60000002         7.87373704E-17
   1.64999998         1.32996561E-16
   1.70000005         1.59688938E-16
   1.75000000         1.46736322E-16
   1.79999995         9.04849365E-17
   1.85000002        -2.26183212E-18
   1.89999998        -1.12194649E-16
   1.95000005        -2.11414196E-16
   2.00000000        -2.69489911E-16
   2.04999995        -2.57636956E-16
   2.09999990        -1.59335659E-16
   2.15000010         2.41986179E-17
   2.20000005         2.69006203E-16
   2.25000000         5.29189392E-16
   2.29999995         7.33395960E-16
   2.34999990         8.05758885E-16
   2.40000010         6.87796259E-16
   2.45000005         3.56160414E-16
   2.50000000        -1.68556962E-16
   2.54999995        -8.22352154E-16
   2.59999990        -1.49630424E-15
   2.65000010        -2.05193287E-15
   2.70000005        -2.34250053E-15
   2.75000000        -2.23226216E-15
   2.79999995        -1.65483355E-15
   2.84999990        -5.96751970E-16
   2.90000010         8.50669154E-16
   2.95000005         2.50643952E-15
   3.00000000         4.05446296E-15
   3.04999995         5.20555490E-15
   3.09999990         5.65000622E-15
   3.15000010         5.12906317E-15
   3.20000005         3.59514834E-15
   3.25000000         1.30842058E-15
   3.29999995        -1.51421369E-15
   3.34999990        -4.40825592E-15
   3.40000010        -6.87907855E-15
   3.45000005        -8.28171302E-15
   3.50000000        -8.13594797E-15
   3.54999995        -6.36392625E-15
   3.59999990        -2.73637953E-15
   3.65000010         1.62982766E-15
   3.70000005         6.17726517E-15
   3.75000000         1.02357198E-14
   3.79999995         1.29970294E-14
   3.84999990         1.31022597E-14
   3.90000010         1.05508660E-14
   3.95000005         5.37521137E-15
   4.00000000        -1.74844996E-15
   4.05000019        -1.03353215E-14
   4.09999990        -1.82469921E-14
   4.15000010        -2.09783955E-14
   4.19999981        -1.88854229E-14
   4.25000000        -1.26564027E-14
   4.30000019        -2.95004317E-15
   4.34999990         1.14482974E-14
   4.40000010         2.58381692E-14
   4.44999981         3.67831579E-14
   4.50000000         4.24770489E-14
   4.55000019         4.99498040E-14
   4.59999990         5.34060202E-14
   4.65000010         4.39688941E-14
   4.69999981         2.00388700E-14
   4.75000000        -1.38172114E-14
   4.80000019        -4.73625859E-14
   4.84999990        -6.88083962E-14
   4.90000010        -7.38339308E-14
   4.94999981        -6.46615397E-14
   5.00000000        -3.75175524E-14
   5.05000019         1.25298594E-14
   5.09999990         5.54981679E-14
   5.15000010         9.71002182E-14
   5.19999981         1.30542333E-13
   5.25000000         1.47186232E-13
   5.30000019         1.47856093E-13
   5.34999990         1.65326439E-13
   5.40000010         2.04841854E-13
   5.44999981         2.34647398E-13
   5.50000000         1.82362751E-13
   5.55000019         5.64596994E-14
   5.59999990        -6.58957481E-14
   5.65000010        -2.46055943E-13
   5.69999981        -3.43978345E-13
   5.75000000        -2.37509827E-13
   5.80000019        -3.28427132E-14
   5.84999990         3.19690997E-13
   5.90000010         6.66389470E-13
   5.94999981         6.22411248E-13
   6.00000000         4.82046423E-13
   6.05000019         4.62996557E-13
   6.09999990         2.90744561E-13
   6.15000010         2.26987916E-13
   6.19999981         3.88232117E-13
   6.25000000         6.12858722E-13
   6.30000019         7.23370691E-13
   6.34999990         4.53619455E-13
   6.40000010         6.35553215E-14
   6.44999981        -2.31093736E-13
   6.50000000        -4.49382881E-13
   6.55000019        -2.01453220E-13
   6.59999990         5.53005666E-13
   6.65000010         1.04011981E-12
   6.69999981         9.60829181E-13
   6.75000000         1.37695714E-12
   6.80000019         1.90357886E-12
   6.84999990         2.74844080E-12
   6.90000010         3.19404052E-12
   6.94999981         4.07574148E-12
   7.00000000         3.39584827E-12
   7.05000019         1.55395141E-12
   7.09999990        -3.35954761E-13
   7.15000010        -1.14276893E-12
   7.19999981         1.00877163E-12
   7.25000000         2.74846834E-12
   7.30000019         6.94374419E-12
   7.34999990         1.13559795E-11
   7.40000010         1.12393237E-11
   7.44999981         9.76937975E-12
   7.50000000         7.76738483E-12
   7.55000019         1.04687604E-11
   7.59999990         1.32023047E-11
   7.65000010         2.39130642E-11
   7.69999981         1.90241971E-11
   7.75000000         1.35966793E-11
   7.80000019         1.36141940E-11
   7.84999990         3.56121903E-11
   7.90000010         4.77510323E-11
   7.94999981         4.03406857E-11
   8.00000000         4.23105717E-11
   8.05000019         5.01323601E-11
   8.10000038         3.22197304E-11
   8.14999962        -4.84773680E-12
   8.19999981        -3.01467393E-11
   8.25000000        -2.88983924E-11
   8.30000019         2.69998295E-11
   8.35000038         1.19737595E-10
   8.39999962         1.69279563E-10
   8.44999981         1.62146269E-10
   8.50000000         8.31979347E-11
   8.55000019        -1.99640061E-11
   8.60000038        -6.13520346E-11
   8.64999962         6.15973461E-12
   8.69999981         1.54600457E-10
   8.75000000         2.54703703E-10
   8.80000019         2.47767307E-10
   8.85000038         1.76484605E-10
   8.89999962         8.54801126E-12
   8.94999981        -4.15286104E-11
   9.00000000         1.12210428E-10
   9.05000019         2.92690150E-10
   9.10000038         2.62729394E-10
   9.14999962         2.25807761E-10
   9.19999981         1.19289370E-10
   9.25000000        -1.41810131E-11
   9.30000019        -1.55131963E-10
   9.35000038        -2.88442881E-10
   9.39999962        -5.07104359E-10
   9.44999981        -2.81788481E-10
   9.50000000         3.13681248E-10
   9.55000019         1.21197863E-09
   9.60000038         1.60284930E-09
   9.64999962         1.39645762E-09
   9.69999981         3.79349746E-10
   9.75000000        -7.32871652E-10
   9.80000019        -1.40223244E-09
   9.85000038        -1.13102494E-09
   9.89999962        -6.10158146E-10
   9.94999981         4.32161695E-10
   10.0000000         1.81423077E-09
   10.0500002         2.58899546E-09
   10.1000004         2.84774182E-09
   10.1499996         1.99875605E-09
   10.1999998         3.46090573E-10
   10.2500000        -1.00430020E-09
   10.3000002        -1.50593971E-09
   10.3500004        -7.28706762E-10
   10.3999996         3.86127658E-10
   10.4499998         2.16735363E-09
   10.5000000         4.26457492E-09
   10.5500002         5.23254462E-09
   10.6000004         1.87257920E-09
   10.6499996        -2.08533102E-09
   10.6999998        -5.84060755E-09
   10.7500000        -8.08309952E-09
   10.8000002        -7.94101940E-09
   10.8500004         4.94669250E-10
   10.8999996         1.00590754E-08
   10.9499998         1.75240107E-08
   11.0000000         2.24648282E-08
   11.0500002         1.97643253E-08
   11.1000004         3.61650820E-09
   11.1499996        -1.43199381E-08
   11.1999998        -2.99040543E-08
   11.2500000        -3.62907500E-08
   11.3000002        -2.72768119E-08
   11.3500004        -1.59289881E-09
   11.3999996         3.09596508E-08
   11.4499998         5.78986814E-08
   11.5000000         6.30912282E-08
   11.5500002         4.39472423E-08
   11.6000004         1.83032363E-08
   11.6499996        -9.06876529E-09
   11.6999998        -2.85427024E-08
   11.7500000        -3.70183315E-08
   11.8000002        -2.87532096E-08
   11.8500004        -2.78023187E-08
   11.8999996        -2.48734526E-08
   11.9499998        -1.44237315E-08
   12.0000000        -7.07701897E-09
   12.0500002         2.18035937E-10
   12.1000004         1.10511973E-08
   12.1499996        -6.57687549E-09
   12.1999998        -2.94275839E-08
   12.2500000        -3.29412622E-08
   12.3000002        -8.45172110E-09
   12.3500004         7.06363945E-09
   12.3999996         2.77060277E-08
   12.4499998         6.02395644E-08
   12.5000000         8.33897218E-08
   12.5500002         5.78283981E-08
   12.6000004        -2.82090973E-08
   12.6499996        -1.09595717E-07
   12.6999998        -1.36637780E-07
   12.7500000        -9.41115275E-08
   12.8000002         4.44600907E-08
   12.8500004         2.12027516E-07
   12.8999996         3.24479345E-07
   12.9499998         3.04792451E-07
   13.0000000         1.24168935E-07
   13.0500002        -8.12157666E-08
   13.1000004        -2.53052292E-07
   13.1499996        -3.60052525E-07
   13.1999998        -2.85440706E-07
   13.2500000        -6.44800906E-08
   13.3000002         1.39501878E-07
   13.3500004         2.54335049E-07
   13.3999996         2.72241294E-07
   13.4499998         1.72148830E-07
   13.5000000        -7.34640508E-08
   13.5500002        -2.11660506E-07
   13.6000004        -2.27124957E-07
   13.6499996        -5.07266797E-08
   13.6999998         1.81323060E-07
   13.7500000         3.16159145E-07
   13.8000002         3.13999493E-07
   13.8500004        -1.08812781E-08
   13.8999996        -4.37734315E-07
   13.9499998        -8.47392073E-07
   14.0000000        -1.13695762E-06
   14.0500002        -1.13213548E-06
   14.1000004        -5.94520714E-07
   14.1499996         4.69806366E-07
   14.1999998         1.50424182E-06
   14.2500000         1.93347296E-06
   14.3000002         1.60079878E-06
   14.3500004         5.38756751E-07
   14.3999996        -8.72254191E-07
   14.4499998        -1.94527274E-06
   14.5000000        -2.11081715E-06
   14.5500002        -1.43978036E-06
   14.6000004        -2.74514576E-07
   14.6499996         8.28063037E-07
   14.6999998         1.33080300E-06
   14.7500000         1.10645249E-06
   14.8000002         4.91806418E-07
   14.8500004        -1.15269813E-07
   14.8999996        -4.17616548E-07
   14.9499998        -3.15849405E-07
   15.0000000        -5.20676267E-08
   15.0500002         1.42588235E-07
   15.1000004         6.35960546E-08
   15.1499996        -2.35495790E-07
   15.1999998        -5.63043272E-07
   15.2500000        -8.70474423E-07
   15.3000002        -9.64550054E-07
   15.3500004        -5.75498518E-07
   15.3999996         1.45507727E-07
   15.4499998         6.63638502E-07
   15.5000000         8.18479066E-07
   15.5500002         5.62395542E-07
   15.6000004        -4.26336442E-07
   15.6499996        -1.40429995E-06
   15.6999998        -1.34921947E-06
   15.7500000        -5.46496835E-07
   15.8000002         6.78048139E-07
   15.8500004         2.19473873E-06
   15.8999996         3.27202883E-06
   15.9499998         3.03692059E-06
   16.0000000         1.28941565E-06
   16.0499992        -8.62282377E-07
   16.1000004        -2.89586023E-06
   16.1499996        -3.93841037E-06
   16.2000008        -3.38602968E-06
   16.2500000        -1.28309125E-06
   16.2999992         1.68860720E-06
   16.3500004         3.76337812E-06
   16.3999996         4.01237003E-06
   16.4500008         2.57336728E-06
   16.5000000        -1.91333982E-07
   16.5499992        -2.81064627E-06
   16.6000004        -2.80618679E-06
   16.6499996        -6.08807404E-09
   16.7000008         2.81086977E-06
   16.7500000         4.06249092E-06
   16.7999992         3.54841563E-06
   16.8500004         9.44199314E-07
   16.8999996        -2.61330956E-06
   16.9500008        -5.19130163E-06
   17.0000000        -5.83442943E-06
   17.0499992        -4.87019224E-06
   17.1000004        -2.79106598E-06
   17.1499996         1.34201116E-07
   17.2000008         3.16987325E-06
   17.2500000         5.53265090E-06
   17.2999992         6.51088476E-06
   17.3500004         6.17881233E-06
   17.3999996         4.81381448E-06
   17.4500008         2.46073250E-06
   17.5000000        -8.64361482E-07
   17.5499992        -4.95011500E-06
   17.6000004        -8.19655179E-06
   17.6499996        -8.96550227E-06
   17.7000008        -7.04085596E-06
   17.7500000        -2.63110519E-06
   17.7999992         3.34286301E-06
   17.8500004         8.66465962E-06
   17.8999996         1.10474202E-05
   17.9500008         9.37829827E-06
   18.0000000         4.20846891E-06
   18.0499992        -2.08917095E-06
   18.1000004        -6.52742665E-06
   18.1499996        -7.62976197E-06
   18.2000008        -5.51037374E-06
   18.2500000        -1.54734880E-06
   18.2999992         2.16076296E-06
   18.3500004         3.56102919E-06
   18.3999996         2.11083943E-06
   18.4500008        -1.15406522E-06
   18.5000000        -4.12112104E-06
   18.5499992        -4.67321615E-06
   18.6000004        -1.84596945E-06
   18.6499996         3.26231338E-06
   18.7000008         8.59368811E-06
   18.7500000         1.17417130E-05
   18.7999992         1.08924287E-05
   18.8500004         6.02337877E-06
   18.8999996        -1.56868396E-06
   18.9500008        -9.12098403E-06
   19.0000000        -1.40781094E-05
   19.0499992        -1.48948002E-05
   19.1000004        -1.12737989E-05
   19.1499996        -4.58087970E-06
   19.2000008         2.84247994E-06
   19.2500000         8.65647780E-06
   19.2999992         1.14468348E-05
   19.3500004         1.06812904E-05
   19.3999996         7.22238883E-06
   19.4500008         2.70227702E-06
   19.5000000        -1.25594215E-06
   19.5499992        -3.62112041E-06
   19.6000004        -4.15116438E-06
   19.6499996        -3.58387206E-06
   19.7000008        -2.67195014E-06
   19.7500000        -2.01920989E-06
   19.7999992        -1.96898054E-06
   19.8500004        -2.20100651E-06
   19.8999996        -1.99062674E-06
   19.9500008        -1.08041547E-06
   20.0000000         7.98790836E-07
   20.0499992         3.50465211E-06
   20.1000004         6.24585800E-06
   20.1499996         7.55679230E-06
   20.2000008         6.55518124E-06
   20.2500000         3.08365338E-06
   20.2999992        -2.04938351E-06
   20.3500004        -7.02482839E-06
   20.3999996        -1.00292937E-05
   20.4500008        -9.94164839E-06
   20.5000000        -6.43434123E-06
   20.5499992        -2.65737281E-08
   20.6000004         6.87723104E-06
   20.6499996         1.12835742E-05
   20.7000008         1.13787228E-05
   20.7500000         7.11890016E-06
   20.7999992         5.49511014E-07
   20.8500004        -5.76062530E-06
   20.8999996        -9.83878817E-06
   20.9500008        -1.02949480E-05
   21.0000000        -6.86978456E-06
   21.0499992        -1.01040303E-06
   21.1000004         4.53964276E-06
   21.1499996         7.28674922E-06
   21.2000008         6.65542620E-06
   21.2500000         3.70960902E-06
   21.2999992         4.70763638E-07
   21.3500004        -1.11715849E-06
   21.3999996        -1.00727880E-06
   21.4500008        -2.93283104E-08
   21.5000000         9.50867445E-07
   21.5499992         8.26121720E-07
   21.6000004        -6.46102990E-07
   21.6499996        -2.51132133E-06
   21.7000008        -3.99072178E-06
   21.7500000        -4.94572396E-06
   21.7999992        -4.45666501E-06
   21.8500004        -2.54941074E-06
   21.8999996        -4.04253626E-08
   21.9500008         2.70960231E-06
   22.0000000         4.85051123E-06
   22.0499992         5.93156119E-06
   22.1000004         5.82990469E-06
   22.1499996         4.80173139E-06
   22.2000008         2.86433237E-06
   22.2500000        -3.20539755E-07
   22.2999992        -4.63339393E-06
   22.3500004        -9.35062053E-06
   22.3999996        -1.30059952E-05
   22.4500008        -1.38528740E-05
   22.5000000        -1.08421928E-05
   22.5499992        -4.20204469E-06
   22.6000004         4.90412913E-06
   22.6499996         1.41901992E-05
   22.7000008         2.05273045E-05
   22.7500000         2.11601255E-05
   22.7999992         1.51537442E-05
   22.8500004         3.96281439E-06
   22.8999996        -8.81323194E-06
   22.9500008        -1.85836998E-05
   23.0000000        -2.23149527E-05
   23.0499992        -1.88373306E-05
   23.1000004        -9.52750997E-06
   23.1499996         1.91344793E-06
   23.2000008         1.13470451E-05
   23.2500000         1.56976657E-05
   23.2999992         1.41643586E-05
   23.3500004         8.81165215E-06
   23.3999996         2.57089687E-06
   23.4500008        -2.15055593E-06
   23.5000000        -4.36594473E-06
   23.5499992        -4.55507552E-06
   23.6000004        -4.21484401E-06
   23.6499996        -4.48350511E-06
   23.7000008        -5.15164447E-06
   23.7500000        -5.16933369E-06
   23.7999992        -3.40339352E-06
   23.8500004         5.05090327E-07
   23.8999996         5.35711024E-06
   23.9500008         8.92656317E-06
   24.0000000         9.19700960E-06
   24.0499992         5.29841009E-06
   24.1000004        -1.42840952E-06
   24.1499996        -8.15468866E-06
   24.2000008        -1.16382116E-05
   24.2500000        -1.00242487E-05
   24.2999992        -3.30509920E-06
   24.3500004         6.25154553E-06
   24.3999996         1.47934034E-05
   24.4500008         1.86341713E-05
   24.5000000         1.56669594E-05
   24.5499992         6.30403929E-06
   24.6000004        -6.60967044E-06
   24.6499996        -1.85783629E-05
   24.7000008        -2.53147682E-05
   24.7500000        -2.43104369E-05
   24.7999992        -1.57334798E-05
   24.8500004        -2.42718329E-06
   24.8999996         1.12193520E-05
   24.9500008         2.07575285E-05
   25.0000000         2.34595336E-05
   25.0499992         1.93338619E-05
   25.1000004         1.07586084E-05
   25.1499996         1.38108680E-06
   25.2000008        -5.42370435E-06
   25.2500000        -7.99277132E-06
   25.2999992        -6.79520690E-06
   25.3500004        -3.96877886E-06
   25.3999996        -2.17164211E-06
   25.4500008        -3.19627361E-06