  -15.0000000        -0.00000000    
  -14.9499998         0.00000000    
  -14.8999996         0.00000000    
  -14.8500004         0.00000000    
  -14.8000002         0.00000000    
  -14.7500000        -1.86661868E-38
  -14.6999998         0.00000000    
  -14.6499996         0.00000000    
  -14.6000004         5.02784992E-38
  -14.5500002        -2.07209679E-33
  -14.5000000        -2.23084627E-32
  -14.4499998        -1.04970376E-31
  -14.3999996        -2.46278057E-31
  -14.3500004        -8.45979245E-32
  -14.3000002         1.36788996E-30
  -14.2500000         4.64491157E-30
  -14.1999998         6.15094252E-30
  -14.1499996        -4.98865245E-30
  -14.1000004        -3.90796433E-29
  -14.0500002        -7.91226970E-29
  -14.0000000        -5.51172622E-29
  -13.9499998         1.23483815E-28
  -13.8999996         4.40090255E-28
  -13.8500004         6.40103665E-28
  -13.8000002         3.23833203E-28
  -13.7500000        -6.45868214E-28
  -13.6999998        -1.84782578E-27
  -13.6499996        -2.87238180E-27
  -13.6000004        -4.54802925E-27
  -13.5500002        -8.30489419E-27
  -13.5000000        -1.04264740E-26
  -13.4499998         6.33616392E-27
  -13.3999996         6.90198442E-26
  -13.3500004         1.77851206E-25
  -13.3000002         2.39535691E-25
  -13.2500000         3.42585405E-26
  -13.1999998        -6.63966820E-25
  -13.1499996        -1.74158873E-24
  -13.1000004        -2.33174267E-24
  -13.0500002        -8.18438653E-25
  -13.0000000         4.15253186E-24
  -12.9499998         1.16060853E-23
  -12.8999996         1.63120374E-23
  -12.8500004         9.42316124E-24
  -12.8000002        -1.61577157E-23
  -12.7500000        -5.64310449E-23
  -12.6999998        -8.86132377E-23
  -12.6499996        -7.42328399E-23
  -12.6000004         2.04542734E-23
  -12.5500002         1.90994459E-22
  -12.5000000         3.67168960E-22
  -12.4499998         4.18078559E-22
  -12.3999996         2.06586465E-22
  -12.3500004        -3.18967286E-22
  -12.3000002        -1.04039732E-21
  -12.2500000        -1.64903474E-21
  -12.1999998        -1.72088363E-21
  -12.1499996        -8.70903853E-22
  -12.1000004         1.06666232E-21
  -12.0500002         3.87744103E-21
  -12.0000000         6.83223398E-21
  -11.9499998         8.58110544E-21
  -11.8999996         7.17623448E-21
  -11.8500004         4.94071284E-22
  -11.8000002        -1.26093910E-20
  -11.7500000        -3.03764567E-20
  -11.6999998        -4.61893583E-20
  -11.6499996        -4.82264101E-20
  -11.6000004        -2.27028249E-20
  -11.5500002         3.84469574E-20
  -11.5000000         1.27341457E-19
  -11.4499998         2.12636612E-19
  -11.3999996         2.41764601E-19
  -11.3500004         1.57891873E-19
  -11.3000002        -7.00421323E-20
  -11.2500000        -4.14764463E-19
  -11.1999998        -7.72612800E-19
  -11.1499996        -9.76055855E-19
  -11.1000004        -8.42614510E-19
  -11.0500002        -2.49857788E-19
  -11.0000000         7.88185664E-19
  -10.9499998         2.07265819E-18
  -10.8999996         3.22161847E-18
  -10.8500004         3.72923130E-18
  -10.8000002         3.07690157E-18
  -10.7500000         8.86015385E-19
  -10.6999998        -2.89827626E-18
  -10.6499996        -7.81156283E-18
  -10.6000004        -1.27119247E-17
  -10.5500002        -1.57554067E-17
  -10.5000000        -1.46387361E-17
  -10.4499998        -7.22232238E-18
  -10.3999996         7.47061801E-18
  -10.3500004         2.80944914E-17
  -10.3000002         5.01136455E-17
  -10.2500000         6.58161210E-17
  -10.1999998         6.57037038E-17
  -10.1499996         4.13620250E-17
  -10.1000004        -1.07081037E-17
  -10.0500002        -8.54597613E-17
  -10.0000000        -1.67401252E-16
  -9.94999981        -2.31802054E-16
  -9.89999962        -2.49607401E-16
  -9.85000038        -1.95462805E-16
  -9.80000019        -5.70173743E-17
  -9.75000000         1.57107128E-16
  -9.69999981         4.13293315E-16
  -9.64999962         6.54654613E-16
  -9.60000038         8.09029755E-16
  -9.55000019         8.02489867E-16
  -9.50000000         5.76701800E-16
  -9.44999981         1.07937971E-16
  -9.39999962        -5.75083332E-16
  -9.35000038        -1.37842881E-15
  -9.30000019        -2.14063035E-15
  -9.25000000        -2.64710332E-15
  -9.19999981        -2.66625601E-15
  -9.14999962        -2.00721503E-15
  -9.10000038        -5.90444168E-16
  -9.05000019         1.48728482E-15
  -9.00000000         3.91844260E-15
  -8.94999981         6.20369091E-15
  -8.89999962         7.73442725E-15
  -8.85000038         7.92826989E-15
  -8.80000019         6.38536846E-15
  -8.75000000         3.02102496E-15
  -8.69999981        -1.86609109E-15
  -8.64999962        -7.61086801E-15
  -8.60000038        -1.32767231E-14
  -8.55000019        -1.77990354E-14
  -8.50000000        -2.01411983E-14
  -8.44999981        -1.94395755E-14
  -8.39999962        -1.51345103E-14
  -8.35000038        -7.09815981E-15
  -8.30000019         4.23696426E-15
  -8.25000000         1.77726909E-14
  -8.19999981         3.17201472E-14
  -8.14999962         4.37251824E-14
  -8.10000038         5.11878781E-14
  -8.05000019         5.17527644E-14
  -8.00000000         4.38639671E-14
  -7.94999981         2.72226293E-14
  -7.90000010         2.99016183E-15
  -7.84999990        -2.63395500E-14
  -7.80000019        -5.73513201E-14
  -7.75000000        -8.62424823E-14
  -7.69999981        -1.09279658E-13
  -7.65000010        -1.23042445E-13
  -7.59999990        -1.24465257E-13
  -7.55000019        -1.10844005E-13
  -7.50000000        -8.00516473E-14
  -7.44999981        -3.11375986E-14
  -7.40000010         3.47201346E-14
  -7.34999990         1.13205906E-13
  -7.30000019         1.96284842E-13
  -7.25000000         2.72522375E-13
  -7.19999981         3.28530118E-13
  -7.15000010         3.51344062E-13
  -7.09999990         3.31127758E-13
  -7.05000019         2.63389815E-13
  -7.00000000         1.50034051E-13
  -6.94999981        -9.94384281E-16
  -6.90000010        -1.77136368E-13
  -6.84999990        -3.62980777E-13
  -6.80000019        -5.41594059E-13
  -6.75000000        -6.95059461E-13
  -6.69999981        -8.04512002E-13
  -6.65000010        -8.50489384E-13
  -6.59999990        -8.14489155E-13
  -6.55000019        -6.82113600E-13
  -6.50000000        -4.47282782E-13
  -6.44999981        -1.16161082E-13
  -6.40000010         2.90831920E-13
  -6.34999990         7.40033577E-13
  -6.30000019         1.18854839E-12
  -6.25000000         1.58997847E-12
  -6.19999981         1.89997020E-12
  -6.15000010         2.07997812E-12
  -6.09999990         2.09883304E-12
  -6.05000019         1.93310580E-12
  -6.00000000         1.56809613E-12
  -5.94999981         1.00100191E-12
  -5.90000010         2.46438747E-13
  -5.84999990        -6.57336869E-13
  -5.80000019        -1.64442884E-12
  -5.75000000        -2.62244003E-12
  -5.69999981        -3.48017296E-12
  -5.65000010        -4.10106324E-12
  -5.59999990        -4.37933804E-12
  -5.55000019        -4.23499170E-12
  -5.50000000        -3.62433044E-12
  -5.44999981        -2.54460754E-12
  -5.40000010        -1.03339342E-12
  -5.34999990         8.35176492E-13
  -5.30000019         2.95502880E-12
  -5.25000000         5.19241117E-12
  -5.19999981         7.38992201E-12
  -5.15000010         9.37169266E-12
  -5.09999990         1.09512035E-11
  -5.05000019         1.19425945E-11
  -5.00000000         1.21746953E-11
  -4.94999981         1.15060652E-11
  -4.90000010         9.83869410E-12
  -4.84999990         7.12848010E-12
  -4.80000019         3.39158411E-12
  -4.75000000        -1.29321033E-12
  -4.69999981        -6.78549014E-12
  -4.65000010        -1.28864367E-11
  -4.59999990        -1.93461931E-11
  -4.55000019        -2.58751180E-11
  -4.50000000        -3.21608573E-11
  -4.44999981        -3.78897712E-11
  -4.40000010        -4.27732849E-11
  -4.34999990        -4.65729157E-11
  -4.30000019        -4.91230633E-11
  -4.25000000        -5.03488432E-11
  -4.19999981        -5.02761652E-11
  -4.15000010        -4.90429988E-11
  -4.09999990        -4.69084493E-11
  -4.05000019        -4.42644012E-11
  -4.00000000        -4.16414368E-11
  -3.95000005        -3.97073520E-11
  -3.90000010        -3.92459537E-11
  -3.84999990        -4.11165824E-11
  -3.79999995        -4.61948882E-11
  -3.75000000        -5.53126191E-11
  -3.70000005        -6.92000901E-11
  -3.65000010        -8.84517390E-11
  -3.59999990        -1.13517647E-10
  -3.54999995        -1.44719917E-10
  -3.50000000        -1.82276610E-10
  -3.45000005        -2.26335381E-10
  -3.40000010        -2.77016632E-10
  -3.34999990        -3.34436895E-10
  -3.29999995        -3.98770211E-10
  -3.25000000        -4.70312622E-10
  -3.20000005        -5.49569668E-10
  -3.15000010        -6.37376707E-10
  -3.09999990        -7.35021044E-10
  -3.04999995        -8.44266712E-10
  -3.00000000        -9.67418701E-10
  -2.95000005        -1.10735388E-09
  -2.90000010        -1.26746036E-09
  -2.84999990        -1.45158174E-09
  -2.79999995        -1.66399627E-09
  -2.75000000        -1.90939264E-09
  -2.70000005        -2.19289453E-09
  -2.65000010        -2.52008192E-09
  -2.59999990        -2.89704460E-09
  -2.54999995        -3.33054140E-09
  -2.50000000        -3.82806808E-09
  -2.45000005        -4.39793446E-09
  -2.40000010        -5.04947817E-09
  -2.34999990        -5.79305226E-09
  -2.29999995        -6.64022659E-09
  -2.25000000        -7.60431629E-09
  -2.20000005        -8.70038974E-09
  -2.15000010        -9.94556970E-09
  -2.09999990        -1.13596208E-08
  -2.04999995        -1.29645317E-08
  -2.00000000        -1.47854449E-08
  -1.95000005        -1.68503718E-08
  -1.89999998        -1.91904483E-08
  -1.85000002        -2.18407266E-08
  -1.79999995        -2.48410110E-08
  -1.75000000        -2.82360784E-08
  -1.70000005        -3.20752243E-08
  -1.64999998        -3.64138373E-08
  -1.60000002        -4.13132426E-08
  -1.54999995        -4.68411407E-08
  -1.50000000        -5.30720108E-08
  -1.45000005        -6.00911747E-08
  -1.39999998        -6.79937600E-08
  -1.35000002        -7.68854989E-08
  -1.29999995        -8.68838939E-08
  -1.25000000        -9.81205659E-08
  -1.20000005        -1.10742086E-07
  -1.14999998        -1.24907615E-07
  -1.10000002        -1.40793901E-07
  -1.04999995        -1.58597942E-07
  -1.00000000        -1.78539096E-07
 -0.949999988        -2.00859049E-07
 -0.899999976        -2.25824252E-07
 -0.850000024        -2.53727819E-07
 -0.800000012        -2.84897197E-07
 -0.750000000        -3.19693129E-07
 -0.699999988        -3.58509482E-07
 -0.649999976        -4.01779232E-07
 -0.600000024        -4.49986686E-07
 -0.550000012        -5.03645083E-07
 -0.500000000        -5.63326694E-07
 -0.449999988        -6.29678027E-07
 -0.400000006        -7.03402975E-07
 -0.349999994        -7.85263865E-07
 -0.300000012        -8.76099307E-07
 -0.250000000        -9.76823230E-07
 -0.200000003        -1.08843494E-06
 -0.150000006        -1.21202038E-06
 -0.100000001        -1.34878121E-06
  -5.00000007E-02    -1.50004189E-06
   0.00000000        -1.66721657E-06
   5.00000007E-02    -1.85187014E-06
  0.100000001        -2.05565834E-06
  0.150000006        -2.28041677E-06
  0.200000003        -2.52812697E-06
  0.250000000        -2.80093718E-06
  0.300000012        -3.10118821E-06
  0.349999994        -3.43143597E-06
  0.400000006        -3.79441940E-06
  0.449999988        -4.19315802E-06
  0.500000000        -4.63091374E-06
  0.550000012        -5.11115104E-06
  0.600000024        -5.63747608E-06
  0.649999976        -6.21398749E-06
  0.699999988        -6.84513270E-06
  0.750000000        -7.53550967E-06
  0.800000012        -8.29021610E-06
  0.850000024        -9.11477582E-06
  0.899999976        -1.00150583E-05
  0.949999988        -1.09973689E-05
   1.00000000        -1.20682935E-05
   1.04999995        -1.32348805E-05
   1.10000002        -1.45045487E-05
   1.14999998        -1.58856910E-05
   1.20000005        -1.73872977E-05
   1.25000000        -1.90187584E-05
   1.29999995        -2.07898229E-05
   1.35000002        -2.27114142E-05
   1.39999998        -2.47946264E-05
   1.45000005        -2.70510864E-05
   1.50000000        -2.94935726E-05
   1.54999995        -3.21358093E-05
   1.60000002        -3.49925358E-05
   1.64999998        -3.80787242E-05
   1.70000005        -4.14099450E-05
   1.75000000        -4.50023581E-05
   1.79999995        -4.88737314E-05
   1.85000002        -5.30427569E-05
   1.89999998        -5.75306331E-05
   1.95000005        -6.23586166E-05
   2.00000000        -6.75480333E-05
   2.04999995        -7.31206528E-05
   2.09999990        -7.90994964E-05
   2.15000010        -8.55088001E-05
   2.20000005        -9.23744083E-05
   2.25000000        -9.97238167E-05
   2.29999995        -1.07588006E-04
   2.34999990        -1.15997696E-04
   2.40000010        -1.24982063E-04
   2.45000005        -1.34572227E-04
   2.50000000        -1.44800317E-04
   2.54999995        -1.55699861E-04
   2.59999990        -1.67307604E-04
   2.65000010        -1.79654191E-04
   2.70000005        -1.92774416E-04
   2.75000000        -2.06707584E-04
   2.79999995        -2.21493581E-04
   2.84999990        -2.37178814E-04
   2.90000010        -2.53809179E-04
   2.95000005        -2.71425291E-04
   3.00000000        -2.90065858E-04
   3.04999995        -3.09763273E-04
   3.09999990        -3.30555078E-04
   3.15000010        -3.52488831E-04
   3.20000005        -3.75605014E-04
   3.25000000        -3.99947749E-04
   3.29999995        -4.25573322E-04
   3.34999990        -4.52529348E-04
   3.40000010        -4.80860908E-04
   3.45000005        -5.10599231E-04
   3.50000000        -5.41777874E-04
   3.54999995        -5.74431731E-04
   3.59999990        -6.08598173E-04
   3.65000010        -6.44316257E-04
   3.70000005        -6.81617355E-04
   3.75000000        -7.20538024E-04
   3.79999995        -7.61111325E-04
   3.84999990        -8.03376315E-04
   3.90000010        -8.47347197E-04
   3.95000005        -8.93051270E-04
   4.00000000        -9.40504833E-04
   4.05000019        -9.89705906E-04
   4.09999990        -1.04065996E-03
   4.15000010        -1.09335629E-03
   4.19999981        -1.14780210E-03
   4.25000000        -1.20402616E-03
   4.30000019        -1.26201659E-03
   4.34999990        -1.32172357E-03
   4.40000010        -1.38313952E-03
   4.44999981        -1.44621101E-03
   4.50000000        -1.51089509E-03
   4.55000019        -1.57713704E-03
   4.59999990        -1.64484372E-03
   4.65000010        -1.71398697E-03
   4.69999981        -1.78453058E-03
   4.75000000        -1.85635965E-03
   4.80000019        -1.92940189E-03
   4.84999990        -2.00353866E-03
   4.90000010        -2.07865401E-03
   4.94999981        -2.15463177E-03
   5.00000000        -2.23130942E-03
   5.05000019        -2.30847183E-03
   5.09999990        -2.38590292E-03
   5.15000010        -2.46358244E-03
   5.19999981        -2.54144752E-03
   5.25000000        -2.61931075E-03
   5.30000019        -2.69687152E-03
   5.34999990        -2.77371658E-03
   5.40000010        -2.84952484E-03
   5.44999981        -2.92422716E-03
   5.50000000        -2.99776858E-03
   5.55000019        -3.06996191E-03
   5.59999990        -3.14061181E-03
   5.65000010        -3.20935785E-03
   5.69999981        -3.27555742E-03
   5.75000000        -3.33863846E-03
   5.80000019        -3.39829037E-03
   5.84999990        -3.45444796E-03
   5.90000010        -3.50685068E-03
   5.94999981        -3.55554302E-03
   6.00000000        -3.60049959E-03
   6.05000019        -3.64122447E-03
   6.09999990        -3.67730041E-03
   6.15000010        -3.70809948E-03
   6.19999981        -3.73277301E-03
   6.25000000        -3.75100342E-03
   6.30000019        -3.76253715E-03
   6.34999990        -3.76704824E-03
   6.40000010        -3.76456021E-03
   6.44999981        -3.75492522E-03
   6.50000000        -3.73785920E-03
   6.55000019        -3.71295004E-03
   6.59999990        -3.67967715E-03
   6.65000010        -3.63743166E-03
   6.69999981        -3.58598353E-03
   6.75000000        -3.52536747E-03
   6.80000019        -3.45533574E-03
   6.84999990        -3.37585877E-03
   6.90000010        -3.28676193E-03
   6.94999981        -3.18768574E-03
   7.00000000        -3.07814963E-03
   7.05000019        -2.95792776E-03
   7.09999990        -2.82713259E-03
   7.15000010        -2.68577156E-03
   7.19999981        -2.53363000E-03
   7.25000000        -2.37080688E-03
   7.30000019        -2.19721464E-03
   7.34999990        -2.01255502E-03
   7.40000010        -1.81683840E-03
   7.44999981        -1.61063753E-03
   7.50000000        -1.39489677E-03
   7.55000019        -1.17025874E-03
   7.59999990        -9.36192402E-04
   7.65000010        -6.91744615E-04
   7.69999981        -4.36476985E-04
   7.75000000        -1.70428437E-04
   7.80000019         1.05358529E-04
   7.84999990         3.88851098E-04
   7.90000010         6.78857614E-04
   7.94999981         9.74930532E-04
   8.00000000         1.27726328E-03
   8.05000019         1.58573152E-03
   8.10000038         1.89988455E-03
   8.14999962         2.21968326E-03
   8.19999981         2.54457491E-03
   8.25000000         2.87332293E-03
   8.30000019         3.20498529E-03
   8.35000038         3.53857549E-03
   8.39999962         3.87271703E-03
   8.44999981         4.20723250E-03
   8.50000000         4.54127416E-03
   8.55000019         4.87385504E-03
   8.60000038         5.20485127E-03
   8.64999962         5.53415343E-03
   8.69999981         5.86029887E-03
   8.75000000         6.18226314E-03
   8.80000019         6.49866182E-03
   8.85000038         6.80673914E-03
   8.89999962         7.10468832E-03
   8.94999981         7.39179179E-03
   9.00000000         7.66844349E-03
   9.05000019         7.93528464E-03
   9.10000038         8.19254201E-03
   9.14999962         8.44041910E-03
   9.19999981         8.67736898E-03
   9.25000000         8.90043844E-03
   9.30000019         9.10726935E-03
   9.35000038         9.29693319E-03
   9.39999962         9.46916547E-03
   9.44999981         9.62337106E-03
   9.50000000         9.75971669E-03
   9.55000019         9.87854321E-03
   9.60000038         9.97952186E-03
   9.64999962         1.00616617E-02
   9.69999981         1.01246387E-02
   9.75000000         1.01687051E-02
   9.80000019         1.01924911E-02
   9.85000038         1.01943593E-02
   9.89999962         1.01739690E-02
   9.94999981         1.01309037E-02
   10.0000000         1.00653600E-02
   10.0500002         9.97837819E-03
   10.1000004         9.87182651E-03
   10.1499996         9.74771194E-03
   10.1999998         9.60646756E-03
   10.2500000         9.44647565E-03
   10.3000002         9.26437601E-03
   10.3500004         9.05762333E-03
   10.3999996         8.82569980E-03
   10.4499998         8.57036188E-03
   10.5000000         8.29599146E-03
   10.5500002         8.00791662E-03
   10.6000004         7.70900352E-03
   10.6499996         7.39953946E-03
   10.6999998         7.07718357E-03
   10.7500000         6.73844852E-03
   10.8000002         6.38086442E-03
   10.8500004         6.00439636E-03
   10.8999996         5.61186252E-03
   10.9499998         5.20798471E-03
   11.0000000         4.79756156E-03
   11.0500002         4.38363245E-03
   11.1000004         3.96661740E-03
   11.1499996         3.54486774E-03
   11.1999998         3.11588543E-03
   11.2500000         2.67833518E-03
   11.3000002         2.23282003E-03
   11.3500004         1.78234302E-03
   11.3999996         1.33093621E-03
   11.4499998         8.82890192E-04
   11.5000000         4.41305048E-04
   11.5500002         7.16943259E-06
   11.6000004        -4.20385186E-04
   11.6499996        -8.42621608E-04
   11.6999998        -1.26082718E-03
   11.7500000        -1.67493930E-03
   11.8000002        -2.08360259E-03
   11.8500004        -2.48460006E-03
   11.8999996        -2.87591689E-03
   11.9499998        -3.25584761E-03
   12.0000000        -3.62355635E-03
   12.0500002        -3.97858117E-03
   12.1000004        -4.32026666E-03
   12.1499996        -4.64734342E-03
   12.1999998        -4.95836139E-03
   12.2500000        -5.25186863E-03
   12.3000002        -5.52709028E-03
   12.3500004        -5.78403939E-03
   12.3999996        -6.02359232E-03
   12.4499998        -6.24657748E-03
   12.5000000        -6.45279838E-03
   12.5500002        -6.64174976E-03
   12.6000004        -6.81266282E-03
   12.6499996        -6.96598552E-03
   12.6999998        -7.10281543E-03
   12.7500000        -7.22359214E-03
   12.8000002        -7.32884603E-03
   12.8500004        -7.41765602E-03
   12.8999996        -7.48764584E-03
   12.9499998        -7.53658684E-03
   13.0000000        -7.56328879E-03
   13.0500002        -7.56827183E-03
   13.1000004        -7.55413668E-03
   13.1499996        -7.52498768E-03
   13.1999998        -7.48398062E-03
   13.2500000        -7.43180048E-03
   13.3000002        -7.36678205E-03
   13.3500004        -7.28715770E-03
   13.3999996        -7.19139259E-03
   13.4499998        -7.07932469E-03
   13.5000000        -6.95308764E-03
   13.5500002        -6.81589590E-03
   13.6000004        -6.67093368E-03
   13.6499996        -6.51947455E-03
   13.6999998        -6.36056019E-03
   13.7500000        -6.19211420E-03
   13.8000002        -6.01253193E-03
   13.8500004        -5.82154281E-03
   13.8999996        -5.62107470E-03
   13.9499998        -5.41488221E-03
   14.0000000        -5.20612625E-03
   14.0500002        -4.99612652E-03
   14.1000004        -4.78448672E-03
   14.1499996        -4.56928695E-03
   14.1999998        -4.34785010E-03
   14.2500000        -4.11954150E-03
   14.3000002        -3.88697092E-03
   14.3500004        -3.65479989E-03
   14.3999996        -3.42869945E-03
   14.4499998        -3.21235298E-03
   14.5000000        -3.00548342E-03
   14.5500002        -2.80396687E-03
   14.6000004        -2.60113203E-03
   14.6499996        -2.39059841E-03
   14.6999998        -2.17002979E-03
   14.7500000        -1.94324355E-03
   14.8000002        -1.71876524E-03
   14.8500004        -1.50645687E-03
   14.8999996        -1.31348486E-03
   14.9499998        -1.14059635E-03
   15.0000000        -9.81570105E-04
   15.0500002        -8.26709380E-04
   15.1000004        -6.67437154E-04
   15.1499996        -5.00461436E-04
   15.1999998        -3.28295602E-04
   15.2500000        -1.58520095E-04
   15.3000002        -3.75321434E-07
   15.3500004         1.39820942E-04
   15.3999996         2.60853994E-04
   15.4499998         3.66563298E-04
   15.5000000         4.63879987E-04
   15.5500002         5.60128363E-04
   15.6000004         6.60246413E-04
   15.6499996         7.65428238E-04
   15.6999998         8.72791919E-04
   15.7500000         9.76838637E-04
   15.8000002         1.07103551E-03
   15.8500004         1.14945136E-03
   15.8999996         1.20848464E-03
   15.9499998         1.24864664E-03
   16.0000000         1.27496885E-03
   16.0499992         1.29560998E-03
   16.1000004         1.31962588E-03
   16.1499996         1.35386339E-03
   16.2000008         1.40002626E-03
   16.2500000         1.45363424E-03
   16.2999992         1.50476489E-03
   16.3500004         1.54149404E-03
   16.3999996         1.55459368E-03
   16.4500008         1.54222490E-03
   16.5000000         1.51112245E-03
   16.5499992         1.47450739E-03
   16.6000004         1.44744618E-03
   16.6499996         1.44057989E-03
   16.7000008         1.45516044E-03
   16.7500000         1.48222339E-03
   16.7999992         1.50613161E-03
   16.8500004         1.51080778E-03
   16.8999996         1.48689747E-03
   16.9500008         1.43607461E-03
   17.0000000         1.37035630E-03
   17.0499992         1.30730437E-03
   17.1000004         1.26245071E-03
   17.1499996         1.24261854E-03
   17.2000008         1.24327105E-03
   17.2500000         1.25087739E-03
   17.2999992         1.24905177E-03
   17.3500004         1.22603180E-03
   17.3999996         1.17953890E-03
   17.4500008         1.11722492E-03
   17.5000000         1.05252990E-03
   17.5499992         9.98513889E-04
   17.6000004         9.62501275E-04
   17.6499996         9.43644904E-04
   17.7000008         9.34422365E-04
   17.7500000         9.24667518E-04
   17.7999992         9.06030182E-04
   17.8500004         8.74868128E-04
   17.8999996         8.32754711E-04
   17.9500008         7.84688629E-04
   18.0000000         7.36729940E-04
   18.0499992         6.93866401E-04
   18.1000004         6.58918405E-04
   18.1499996         6.32456446E-04
   18.2000008         6.13087381E-04
   18.2500000         5.97887323E-04
   18.2999992         5.83124754E-04
   18.3500004         5.65072696E-04
   18.3999996         5.41082176E-04
   18.4500008         5.10703889E-04
   18.5000000         4.76156274E-04
   18.5499992         4.41653829E-04
   18.6000004         4.11697605E-04
   18.6499996         3.88992834E-04
   18.7000008         3.73082992E-04
   18.7500000         3.60503036E-04
   18.7999992         3.46518093E-04
   18.8500004         3.27636604E-04
   18.8999996         3.03570589E-04
   18.9500008         2.77560175E-04
   19.0000000         2.54757208E-04
   19.0499992         2.39477202E-04
   19.1000004         2.32805149E-04
   19.1499996         2.31805170E-04
   19.2000008         2.30860533E-04
   19.2500000         2.24497475E-04
   19.2999992         2.10181257E-04
   19.3500004         1.89596452E-04
   19.3999996         1.67711900E-04
   19.4500008         1.50046224E-04
   19.5000000         1.39618234E-04
   19.5499992         1.35239708E-04
   19.6000004         1.32135203E-04
   19.6499996         1.24628394E-04
   19.7000008         1.09499560E-04
   19.7500000         8.81977030E-05
   19.7999992         6.66269843E-05
   19.8500004         5.24879106E-05
   19.8999996         5.14169587E-05
   19.9500008         6.38879937E-05
   20.0000000         8.44908063E-05
   20.0499992         1.04033672E-04
   20.1000004         1.13475631E-04
   20.1499996         1.07795517E-04
   20.2000008         8.79611471E-05
   20.2500000         6.01517495E-05
   20.2999992         3.27730158E-05
   20.3500004         1.28567626E-05
   20.3999996         3.58726743E-06
   20.4500008         3.93665732E-06
   20.5000000         1.02137092E-05
   20.5499992         1.83711581E-05
   20.6000004         2.57228603E-05
   20.6499996         3.13112760E-05
   20.7000008         3.51106646E-05
   20.7500000         3.69660956E-05
   20.7999992         3.61882412E-05
   20.8500004         3.21115767E-05
   20.8999996         2.51076690E-05
   20.9500008         1.71249176E-05
   21.0000000         1.10843257E-05
   21.0499992         9.27395922E-06
   21.1000004         1.16950378E-05
   21.1499996         1.55549787E-05
   21.2000008         1.65259571E-05
   21.2500000         1.12971002E-05
   21.2999992         5.15819387E-09
   21.3500004        -1.30289891E-05
   21.3999996        -2.10062026E-05
   21.4500008        -1.81489158E-05
   21.5000000        -3.18302841E-06
   21.5499992         1.92047901E-05
   21.6000004         3.99743185E-05
   21.6499996         4.97977635E-05
   21.7000008         4.35674301E-05
   21.7500000         2.29873021E-05
   21.7999992        -4.15035174E-06
   21.8500004        -2.76447554E-05
   21.8999996        -3.95899806E-05
   21.9500008        -3.76633325E-05
   22.0000000        -2.54038059E-05
   22.0499992        -9.58411783E-06
   22.1000004         3.64310335E-06
   22.1499996         1.15896964E-05
   22.2000008         1.53796991E-05
   22.2500000         1.78926803E-05
   22.2999992         2.08472138E-05
   22.3500004         2.30318437E-05
   22.3999996         2.09068676E-05
   22.4500008         1.12531643E-05
   22.5000000        -5.82239181E-06
   22.5499992        -2.55614759E-05
   22.6000004        -4.00405734E-05
   22.6499996        -4.19484786E-05
   22.7000008        -2.86917439E-05
   22.7500000        -4.49076560E-06
   22.7999992         2.09184254E-05
   22.8500004         3.65715314E-05
   22.8999996         3.54922231E-05
   22.9500008         1.81739724E-05
   23.0000000        -7.52896449E-06
   23.0499992        -3.01405344E-05
   23.1000004        -4.00945646E-05
   23.1499996        -3.42797211E-05
   23.2000008        -1.73095686E-05
   23.2500000         1.09106247E-06
   23.2999992         1.11931513E-05
   23.3500004         8.20684454E-06
   23.3999996        -5.47875652E-06
   23.4500008        -2.18570476E-05
   23.5000000        -3.17620834E-05
   23.5499992        -2.98149062E-05
   23.6000004        -1.72391592E-05
   23.6499996        -1.10282690E-06
   23.7000008         9.51624679E-06
   23.7500000         8.32181922E-06
   23.7999992        -5.02749481E-06
   23.8500004        -2.49723198E-05
   23.8999996        -4.31503286E-05
   23.9500008        -5.27097473E-05
   24.0000000        -5.14601561E-05
   24.0499992        -4.22867888E-05
   24.1000004        -3.09043680E-05
   24.1499996        -2.25069380E-05
   24.2000008        -1.93562228E-05
   24.2500000        -2.05662564E-05
   24.2999992        -2.38669145E-05
   24.3500004        -2.78620319E-05
   24.3999996        -3.31157644E-05
   24.4500008        -4.13089983E-05
   24.5000000        -5.31430996E-05
   24.5499992        -6.66315755E-05
   24.6000004        -7.72501371E-05
   24.6499996        -8.02115610E-05
   24.7000008        -7.35940921E-05
   24.7500000        -6.03270419E-05
   24.7999992        -4.75243905E-05
   24.8500004        -4.31878907E-05
   24.8999996        -5.19842943E-05
   24.9500008        -7.24694619E-05
   25.0000000        -9.74765208E-05
   25.0499992        -1.17588374E-04
   25.1000004        -1.25879975E-04
   25.1499996        -1.21334480E-04
   25.2000008        -1.09128690E-04
   25.2500000        -9.76758674E-05
   25.2999992        -9.41816470E-05
   25.3500004        -1.01151374E-04
   25.3999996        -1.15649389E-04
   25.4500008        -1.31534383E-04