  -15.0000000        -0.00000000    
  -14.9499998         0.00000000    
  -14.8999996        -0.00000000    
  -14.8500004         0.00000000    
  -14.8000002         0.00000000    
  -14.7500000        -0.00000000    
  -14.6999998        -0.00000000    
  -14.6499996        -0.00000000    
  -14.6000004        -0.00000000    
  -14.5500002        -0.00000000    
  -14.5000000        -2.07218601E-34
  -14.4499998        -2.23085244E-33
  -14.3999996        -1.07042521E-32
  -14.3500004        -2.68586500E-32
  -14.3000002        -1.91640447E-32
  -14.2500000         1.09930398E-31
  -14.1999998         4.45327054E-31
  -14.1499996         7.25024697E-31
  -14.1000004        -5.35378373E-32
  -14.0500002        -3.18294078E-30
  -14.0000000        -7.96581101E-30
  -13.9499998        -8.69466791E-30
  -13.8999996         4.38257434E-30
  -13.8500004         3.53143510E-29
  -13.8000002         6.83929561E-29
  -13.7500000         6.76976713E-29
  -13.6999998         3.80611379E-30
  -13.6499996        -1.17084913E-28
  -13.6000004        -2.83432056E-28
  -13.5500002        -5.71887901E-28
  -13.5000000        -1.11392148E-27
  -13.4499998        -1.61453529E-27
  -13.3999996        -4.80305213E-28
  -13.3500004         5.28745115E-27
  -13.3000002         1.73048134E-26
  -13.2500000         2.92410215E-26
  -13.1999998         2.07306668E-26
  -13.1499996        -3.71556383E-26
  -13.1000004        -1.53428208E-25
  -13.0500002        -2.70329887E-25
  -13.0000000        -2.35272070E-25
  -12.9499998         1.44923252E-25
  -12.8999996         9.25336701E-25
  -12.8500004         1.77612684E-24
  -12.8000002         1.86765304E-24
  -12.7500000         1.60356144E-25
  -12.6999998        -3.77545240E-24
  -12.6499996        -8.70096933E-24
  -12.6000004        -1.11987357E-23
  -12.5500002        -6.65554215E-24
  -12.5000000         7.90071097E-24
  -12.4499998         3.00613560E-23
  -12.3999996         4.97085616E-23
  -12.3500004         5.07199981E-23
  -12.3000002         1.78118450E-23
  -12.2500000        -5.33197397E-23
  -12.1999998        -1.47091648E-22
  -12.1499996        -2.25408080E-22
  -12.1000004        -2.34182031E-22
  -12.0500002        -1.18741868E-22
  -12.0000000         1.53562049E-22
  -11.9499998         5.64481651E-22
  -11.8999996         1.01167259E-21
  -11.8500004         1.28210481E-21
  -11.8000002         1.06107956E-21
  -11.7500000         2.11660169E-23
  -11.6999998        -1.97656625E-21
  -11.6499996        -4.59777034E-21
  -11.6000004        -6.79920653E-21
  -11.5500002        -6.86805316E-21
  -11.5000000        -2.95451143E-21
  -11.4499998         5.86609227E-21
  -11.3999996         1.83091517E-20
  -11.3500004         3.00425536E-20
  -11.3000002         3.40983332E-20
  -11.2500000         2.30383355E-20
  -11.1999998        -7.37810856E-21
  -11.1499996        -5.42229428E-20
  -11.1000004        -1.04983702E-19
  -11.0500002        -1.38484407E-19
  -11.0000000        -1.29969487E-19
  -10.9499998        -5.96658559E-20
  -10.8999996         7.72963382E-20
  -10.8500004         2.62495970E-19
  -10.8000002         4.50219518E-19
  -10.7500000         5.70186091E-19
  -10.6999998         5.38821057E-19
  -10.6499996         2.80358496E-19
  -10.6000004        -2.42335227E-19
  -10.5500002        -9.90833954E-19
  -10.5000000        -1.81787601E-18
  -10.4499998        -2.45470748E-18
  -10.3999996        -2.54010850E-18
  -10.3500004        -1.70764603E-18
  -10.3000002         2.69340399E-19
  -10.2500000         3.30371863E-18
  -10.1999998         6.85095220E-18
  -10.1499996         9.87409054E-18
  -10.1000004         1.09871555E-17
  -10.0500002         8.80328125E-18
  -10.0000000         2.44117749E-18
  -9.94999981        -7.93684595E-18
  -9.89999962        -2.07390277E-17
  -9.85000038        -3.28975851E-17
  -9.80000019        -4.02853072E-17
  -9.75000000        -3.85993311E-17
  -9.69999981        -2.45745980E-17
  -9.64999962         2.72999918E-18
  -9.60000038         4.08908629E-17
  -9.55000019         8.36329892E-17
  -9.50000000         1.21139860E-16
  -9.44999981         1.41303174E-16
  -9.39999962         1.31933653E-16
  -9.35000038         8.37948387E-17
  -9.30000019        -5.90922899E-18
  -9.25000000        -1.30268175E-16
  -9.19999981        -2.70619536E-16
  -9.14999962        -3.96893752E-16
  -9.10000038        -4.71341066E-16
  -9.05000019        -4.55938248E-16
  -9.00000000        -3.22612562E-16
  -8.94999981        -6.40940037E-17
  -8.89999962         2.97756433E-16
  -8.85000038         7.09348642E-16
  -8.80000019         1.09058340E-15
  -8.75000000         1.34788565E-15
  -8.69999981         1.39268596E-15
  -8.64999962         1.16127645E-15
  -8.60000038         6.31599170E-16
  -8.55000019        -1.66395811E-16
  -8.50000000        -1.14830425E-15
  -8.44999981        -2.18051565E-15
  -8.39999962        -3.09226212E-15
  -8.35000038        -3.69396701E-15
  -8.30000019        -3.80207806E-15
  -8.25000000        -3.27027033E-15
  -8.19999981        -2.02480897E-15
  -8.14999962        -9.82552065E-17
  -8.10000038         2.34770957E-15
  -8.05000019         5.02053199E-15
  -8.00000000         7.52298580E-15
  -7.94999981         9.40692853E-15
  -7.90000010         1.02452489E-14
  -7.84999990         9.70594556E-15
  -7.80000019         7.61129237E-15
  -7.75000000         3.97081168E-15
  -7.69999981        -1.01295696E-15
  -7.65000010        -6.95715551E-15
  -7.59999990        -1.33172028E-14
  -7.55000019        -1.94036800E-14
  -7.50000000        -2.44016047E-14
  -7.44999981        -2.74088410E-14
  -7.40000010        -2.75153588E-14
  -7.34999990        -2.39368292E-14
  -7.30000019        -1.61947719E-14
  -7.25000000        -4.30834330E-15
  -7.19999981         1.10574696E-14
  -7.15000010         2.85446749E-14
  -7.09999990         4.61918779E-14
  -7.05000019         6.16574527E-14
  -7.00000000         7.25308553E-14
  -6.94999981         7.66608524E-14
  -6.90000010         7.24314068E-14
  -6.84999990         5.89472183E-14
  -6.80000019         3.61333481E-14
  -6.75000000         4.78779656E-15
  -6.69999981        -3.33726204E-14
  -6.65000010        -7.56634067E-14
  -6.59999990        -1.18421549E-13
  -6.55000019        -1.57112320E-13
  -6.50000000        -1.86632895E-13
  -6.44999981        -2.01840579E-13
  -6.40000010        -1.98249024E-13
  -6.34999990        -1.72757398E-13
  -6.30000019        -1.24245557E-13
  -6.25000000        -5.39025713E-14
  -6.19999981         3.47522338E-14
  -6.15000010         1.36094437E-13
  -6.09999990         2.42749993E-13
  -6.05000019         3.45977722E-13
  -6.00000000         4.36060611E-13
  -5.94999981         5.02787428E-13
  -5.90000010         5.36160743E-13
  -5.84999990         5.27431235E-13
  -5.80000019         4.70427300E-13
  -5.75000000         3.62988339E-13
  -5.69999981         2.08183243E-13
  -5.65000010         1.49712599E-14
  -5.59999990        -2.01922965E-13
  -5.55000019        -4.22962175E-13
  -5.50000000        -6.25422023E-13
  -5.44999981        -7.85395403E-13
  -5.40000010        -8.79883297E-13
  -5.34999990        -8.88735158E-13
  -5.30000019        -7.96364710E-13
  -5.25000000        -5.93232657E-13
  -5.19999981        -2.77123512E-13
  -5.15000010         1.45760086E-13
  -5.09999990         6.60046182E-13
  -5.05000019         1.24088023E-12
  -5.00000000         1.85430512E-12
  -4.94999981         2.45835101E-12
  -4.90000010         3.00491056E-12
  -4.84999990         3.44221982E-12
  -4.80000019         3.71775397E-12
  -4.75000000         3.78138319E-12
  -4.69999981         3.58843988E-12
  -4.65000010         3.10283808E-12
  -4.59999990         2.29978666E-12
  -4.55000019         1.16821201E-12
  -4.50000000        -2.87720504E-13
  -4.44999981        -2.04787749E-12
  -4.40000010        -4.07669168E-12
  -4.34999990        -6.32521292E-12
  -4.30000019        -8.73397275E-12
  -4.25000000        -1.12374771E-11
  -4.19999981        -1.37688966E-11
  -4.15000010        -1.62650813E-11
  -4.09999990        -1.86730978E-11
  -4.05000019        -2.09560043E-11
  -4.00000000        -2.30996663E-11
  -3.95000005        -2.51201230E-11
  -3.90000010        -2.70704275E-11
  -3.84999990        -2.90447891E-11
  -3.79999995        -3.11820847E-11
  -3.75000000        -3.36644081E-11
  -3.70000005        -3.67133997E-11
  -3.65000010        -4.05843727E-11
  -3.59999990        -4.55584563E-11
  -3.54999995        -5.19358757E-11
  -3.50000000        -6.00305014E-11
  -3.45000005        -7.01637984E-11
  -3.40000010        -8.26639590E-11
  -3.34999990        -9.78648690E-11
  -3.29999995        -1.16107103E-10
  -3.25000000        -1.37741679E-10
  -3.20000005        -1.63137934E-10
  -3.15000010        -1.92697705E-10
  -3.09999990        -2.26875033E-10
  -3.04999995        -2.66200423E-10
  -3.00000000        -3.11301845E-10
  -2.95000005        -3.62943120E-10
  -2.90000010        -4.22037294E-10
  -2.84999990        -4.89686680E-10
  -2.79999995        -5.67195402E-10
  -2.75000000        -6.56083188E-10
  -2.70000005        -7.58133278E-10
  -2.65000010        -8.75375217E-10
  -2.59999990        -1.01014053E-09
  -2.54999995        -1.16508503E-09
  -2.50000000        -1.34320433E-09
  -2.45000005        -1.54788959E-09
  -2.40000010        -1.78299564E-09
  -2.34999990        -2.05284345E-09
  -2.29999995        -2.36230657E-09
  -2.25000000        -2.71686029E-09
  -2.20000005        -3.12273363E-09
  -2.15000010        -3.58688967E-09
  -2.09999990        -4.11728651E-09
  -2.04999995        -4.72286166E-09
  -2.00000000        -5.41374368E-09
  -1.95000005        -6.20139806E-09
  -1.89999998        -7.09879577E-09
  -1.85000002        -8.12048384E-09
  -1.79999995        -9.28287669E-09
  -1.75000000        -1.06045439E-08
  -1.70000005        -1.21064501E-08
  -1.64999998        -1.38120626E-08
  -1.60000002        -1.57477906E-08
  -1.54999995        -1.79433801E-08
  -1.50000000        -2.04319122E-08
  -1.45000005        -2.32505215E-08
  -1.39999998        -2.64410058E-08
  -1.35000002        -3.00498613E-08
  -1.29999995        -3.41295134E-08
  -1.25000000        -3.87381505E-08
  -1.20000005        -4.39414052E-08
  -1.14999998        -4.98123640E-08
  -1.10000002        -5.64323237E-08
  -1.04999995        -6.38917044E-08
  -1.00000000        -7.22918898E-08
 -0.949999988        -8.17451493E-08
 -0.899999976        -9.23774408E-08
 -0.850000024        -1.04327732E-07
 -0.800000012        -1.17750638E-07
 -0.750000000        -1.32817490E-07
 -0.699999988        -1.49719796E-07
 -0.649999976        -1.68667981E-07
 -0.600000024        -1.89896909E-07
 -0.550000012        -2.13666354E-07
 -0.500000000        -2.40261329E-07
 -0.449999988        -2.69998054E-07
 -0.400000006        -3.03227552E-07
 -0.349999994        -3.40338261E-07
 -0.300000012        -3.81754916E-07
 -0.250000000        -4.27948464E-07
 -0.200000003        -4.79437915E-07
 -0.150000006        -5.36792413E-07
 -0.100000001        -6.00639567E-07
  -5.00000007E-02    -6.71669795E-07
   0.00000000        -7.50640481E-07
   5.00000007E-02    -8.38389326E-07
  0.100000001        -9.35825767E-07
  0.150000006        -1.04395519E-06
  0.200000003        -1.16386741E-06
  0.250000000        -1.29676732E-06
  0.300000012        -1.44395642E-06
  0.349999994        -1.60688819E-06
  0.400000006        -1.78711116E-06
  0.449999988        -1.98633484E-06
  0.500000000        -2.20642414E-06
  0.550000012        -2.44942726E-06
  0.600000024        -2.71754675E-06
  0.649999976        -3.01318187E-06
  0.699999988        -3.33895719E-06
  0.750000000        -3.69771351E-06
  0.800000012        -4.09250697E-06
  0.850000024        -4.52671884E-06
  0.899999976        -5.00399165E-06
  0.949999988        -5.52821939E-06
   1.00000000        -6.10371762E-06
   1.04999995        -6.73505974E-06
   1.10000002        -7.42720840E-06
   1.14999998        -8.18551780E-06
   1.20000005        -9.01579733E-06
   1.25000000        -9.92425066E-06
   1.29999995        -1.09176472E-05
   1.35000002        -1.20032282E-05
   1.39999998        -1.31888182E-05
   1.45000005        -1.44827463E-05
   1.50000000        -1.58939383E-05
   1.54999995        -1.74320885E-05
   1.60000002        -1.91075651E-05
   1.64999998        -2.09313675E-05
   1.70000005        -2.29154411E-05
   1.75000000        -2.50723278E-05
   1.79999995        -2.74156919E-05
   1.85000002        -2.99597359E-05
   1.89999998        -3.27199923E-05
   1.95000005        -3.57128192E-05
   2.00000000        -3.89557972E-05
   2.04999995        -4.24675272E-05
   2.09999990        -4.62676726E-05
   2.15000010        -5.03772426E-05
   2.20000005        -5.48187018E-05
   2.25000000        -5.96148675E-05
   2.29999995        -6.47911875E-05
   2.34999990        -7.03739352E-05
   2.40000010        -7.63910357E-05
   2.45000005        -8.28721459E-05
   2.50000000        -8.98482322E-05
   2.54999995        -9.73519200E-05
   2.59999990        -1.05418068E-04
   2.65000010        -1.14082752E-04
   2.70000005        -1.23383201E-04
   2.75000000        -1.33360227E-04
   2.79999995        -1.44054080E-04
   2.84999990        -1.55509522E-04
   2.90000010        -1.67772421E-04
   2.95000005        -1.80890711E-04
   3.00000000        -1.94915017E-04
   3.04999995        -2.09897116E-04
   3.09999990        -2.25891621E-04
   3.15000010        -2.42953349E-04
   3.20000005        -2.61140813E-04
   3.25000000        -2.80513661E-04
   3.29999995        -3.01135675E-04
   3.34999990        -3.23070912E-04
   3.40000010        -3.46388813E-04
   3.45000005        -3.71157279E-04
   3.50000000        -3.97447468E-04
   3.54999995        -4.25335369E-04
   3.59999990        -4.54890396E-04
   3.65000010        -4.86195175E-04
   3.70000005        -5.19323978E-04
   3.75000000        -5.54356026E-04
   3.79999995        -5.91375632E-04
   3.84999990        -6.30465394E-04
   3.90000010        -6.71712100E-04
   3.95000005        -7.15199683E-04
   4.00000000        -7.61013944E-04
   4.05000019        -8.09250167E-04
   4.09999990        -8.59985303E-04
   4.15000010        -9.13318887E-04
   4.19999981        -9.69325309E-04
   4.25000000        -1.02809712E-03
   4.30000019        -1.08972448E-03
   4.34999990        -1.15429785E-03
   4.40000010        -1.22189743E-03
   4.44999981        -1.29261415E-03
   4.50000000        -1.36651949E-03
   4.55000019        -1.44369598E-03
   4.59999990        -1.52423070E-03
   4.65000010        -1.60818035E-03
   4.69999981        -1.69562490E-03
   4.75000000        -1.78662990E-03
   4.80000019        -1.88126171E-03
   4.84999990        -1.97957759E-03
   4.90000010        -2.08160956E-03
   4.94999981        -2.18743621E-03
   5.00000000        -2.29706755E-03
   5.05000019        -2.41056550E-03
   5.09999990        -2.52792821E-03
   5.15000010        -2.64916080E-03
   5.19999981        -2.77427677E-03
   5.25000000        -2.90328148E-03
   5.30000019        -3.03619308E-03
   5.34999990        -3.17298970E-03
   5.40000010        -3.31357471E-03
   5.44999981        -3.45791737E-03
   5.50000000        -3.60598229E-03
   5.55000019        -3.75770405E-03
   5.59999990        -3.91296810E-03
   5.65000010        -4.07173531E-03
   5.69999981        -4.23389254E-03
   5.75000000        -4.39930009E-03
   5.80000019        -4.56775445E-03
   5.84999990        -4.73911455E-03
   5.90000010        -4.91322624E-03
   5.94999981        -5.08983433E-03
   6.00000000        -5.26879355E-03
   6.05000019        -5.44990273E-03
   6.09999990        -5.63293183E-03
   6.15000010        -5.81760658E-03
   6.19999981        -6.00373326E-03
   6.25000000        -6.19087508E-03
   6.30000019        -6.37878291E-03
   6.34999990        -6.56712521E-03
   6.40000010        -6.75548241E-03
   6.44999981        -6.94359140E-03
   6.50000000        -7.13098887E-03
   6.55000019        -7.31736282E-03
   6.59999990        -7.50229461E-03
   6.65000010        -7.68539403E-03
   6.69999981        -7.86605664E-03
   6.75000000        -8.04403238E-03
   6.80000019        -8.21869634E-03
   6.84999990        -8.38958379E-03
   6.90000010        -8.55626352E-03
   6.94999981        -8.71828012E-03
   7.00000000        -8.87507852E-03
   7.05000019        -9.02609155E-03
   7.09999990        -9.17085819E-03
   7.15000010        -9.30881966E-03
   7.19999981        -9.43938363E-03
   7.25000000        -9.56215430E-03
   7.30000019        -9.67647415E-03
   7.34999990        -9.78186447E-03
   7.40000010        -9.87776555E-03
   7.44999981        -9.96361114E-03
   7.50000000        -1.00388657E-02
   7.55000019        -1.01030264E-02
   7.59999990        -1.01557532E-02
   7.65000010        -1.01965629E-02
   7.69999981        -1.02249356E-02
   7.75000000        -1.02402568E-02
   7.80000019        -1.02420039E-02
   7.84999990        -1.02296760E-02
   7.90000010        -1.02030206E-02
   7.94999981        -1.01617677E-02
   8.00000000        -1.01056481E-02
   8.05000019        -1.00340769E-02
   8.10000038        -9.94701125E-03
   8.14999962        -9.84402932E-03
   8.19999981        -9.72496718E-03
   8.25000000        -9.58948862E-03
   8.30000019        -9.43757221E-03
   8.35000038        -9.26900376E-03
   8.39999962        -9.08370130E-03
   8.44999981        -8.88180826E-03
   8.50000000        -8.66302941E-03
   8.55000019        -8.42774287E-03
   8.60000038        -8.17574095E-03
   8.64999962        -7.90727790E-03
   8.69999981        -7.62230065E-03
   8.75000000        -7.32125435E-03
   8.80000019        -7.00411620E-03
   8.85000038        -6.67133136E-03
   8.89999962        -6.32331055E-03
   8.94999981        -5.96084353E-03
   9.00000000        -5.58415148E-03
   9.05000019        -5.19393757E-03
   9.10000038        -4.79059387E-03
   9.14999962        -4.37466986E-03
   9.19999981        -3.94654041E-03
   9.25000000        -3.50690284E-03
   9.30000019        -3.05645214E-03
   9.35000038        -2.59628054E-03
   9.39999962        -2.12686602E-03
   9.44999981        -1.64934935E-03
   9.50000000        -1.16462563E-03
   9.55000019        -6.73490460E-04
   9.60000038        -1.76795365E-04
   9.64999962         3.24592751E-04
   9.69999981         8.29496770E-04
   9.75000000         1.33699877E-03
   9.80000019         1.84643653E-03
   9.85000038         2.35638581E-03
   9.89999962         2.86584394E-03
   9.94999981         3.37371044E-03
   10.0000000         3.87889310E-03
   10.0500002         4.38040355E-03
   10.1000004         4.87684598E-03
   10.1499996         5.36755985E-03
   10.1999998         5.85164595E-03
   10.2500000         6.32816833E-03
   10.3000002         6.79624546E-03
   10.3500004         7.25458749E-03
   10.3999996         7.70196412E-03
   10.4499998         8.13718140E-03
   10.5000000         8.55903793E-03
   10.5500002         8.96673184E-03
   10.6000004         9.35981330E-03
   10.6499996         9.73759498E-03
   10.6999998         1.00997714E-02
   10.7500000         1.04453573E-02
   10.8000002         1.07735731E-02
   10.8500004         1.10834213E-02
   10.8999996         1.13739921E-02
   10.9499998         1.16445711E-02
   11.0000000         1.18947662E-02
   11.0500002         1.21243577E-02
   11.1000004         1.23331361E-02
   11.1499996         1.25210052E-02
   11.1999998         1.26876291E-02
   11.2500000         1.28326034E-02
   11.3000002         1.29554775E-02
   11.3500004         1.30558936E-02
   11.3999996         1.31337186E-02
   11.4499998         1.31889954E-02
   11.5000000         1.32220061E-02
   11.5500002         1.32331327E-02
   11.6000004         1.32227186E-02
   11.6499996         1.31910890E-02
   11.6999998         1.31384619E-02
   11.7500000         1.30650094E-02
   11.8000002         1.29709663E-02
   11.8500004         1.28566343E-02
   11.8999996         1.27225136E-02
   11.9499998         1.25690643E-02
   12.0000000         1.23969251E-02
   12.0500002         1.22066950E-02
   12.1000004         1.19990567E-02
   12.1499996         1.17746610E-02
   12.1999998         1.15343053E-02
   12.2500000         1.12788873E-02
   12.3000002         1.10091586E-02
   12.3500004         1.07261585E-02
   12.3999996         1.04307840E-02
   12.4499998         1.01238461E-02
   12.5000000         9.80610214E-03
   12.5500002         9.47851036E-03
   12.6000004         9.14192945E-03
   12.6499996         8.79728142E-03
   12.6999998         8.44539143E-03
   12.7500000         8.08700174E-03
   12.8000002         7.72309117E-03
   12.8500004         7.35422503E-03
   12.8999996         6.98131556E-03
   12.9499998         6.60547661E-03
   13.0000000         6.22771028E-03
   13.0500002         5.84916025E-03
   13.1000004         5.47090033E-03
   13.1499996         5.09388652E-03
   13.1999998         4.71853744E-03
   13.2500000         4.34551574E-03
   13.3000002         3.97534948E-03
   13.3500004         3.60885565E-03
   13.3999996         3.24670505E-03
   13.4499998         2.88972957E-03
   13.5000000         2.53875228E-03
   13.5500002         2.19447189E-03
   13.6000004         1.85720238E-03
   13.6499996         1.52738579E-03
   13.6999998         1.20533514E-03
   13.7500000         8.91390955E-04
   13.8000002         5.86183683E-04
   13.8500004         2.90159689E-04
   13.8999996         3.98359498E-06
   13.9499998        -2.71857803E-04
   14.0000000        -5.37421554E-04
   14.0500002        -7.92559818E-04
   14.1000004        -1.03706564E-03
   14.1499996        -1.27091445E-03
   14.1999998        -1.49401056E-03
   14.2500000        -1.70578121E-03
   14.3000002        -1.90594455E-03
   14.3500004        -2.09446484E-03
   14.3999996        -2.27144803E-03
   14.4499998        -2.43739411E-03
   14.5000000        -2.59277434E-03
   14.5500002        -2.73796939E-03
   14.6000004        -2.87313201E-03
   14.6499996        -2.99813342E-03
   14.6999998        -3.11224815E-03
   14.7500000        -3.21510434E-03
   14.8000002        -3.30658094E-03
   14.8500004        -3.38702672E-03
   14.8999996        -3.45725287E-03
   14.9499998        -3.51833971E-03
   15.0000000        -3.57132126E-03
   15.0500002        -3.61654605E-03
   15.1000004        -3.65399709E-03
   15.1499996        -3.68327089E-03
   15.1999998        -3.70400981E-03
   15.2500000        -3.71612702E-03
   15.3000002        -3.71990656E-03
   15.3500004        -3.71616823E-03
   15.3999996        -3.70597513E-03
   15.4499998        -3.69011099E-03
   15.5000000        -3.66928545E-03
   15.5500002        -3.64373159E-03
   15.6000004        -3.61325708E-03
   15.6499996        -3.57767218E-03
   15.6999998        -3.53666884E-03
   15.7500000        -3.49039910E-03
   15.8000002        -3.43904179E-03
   15.8500004        -3.38328560E-03
   15.8999996        -3.32407258E-03
   15.9499998        -3.26240738E-03
   16.0000000        -3.19917919E-03
   16.0499992        -3.13489488E-03
   16.1000004        -3.06961988E-03
   16.1499996        -3.00290855E-03
   16.2000008        -2.93420767E-03
   16.2500000        -2.86289118E-03
   16.2999992        -2.78884149E-03
   16.3500004        -2.71243323E-03
   16.3999996        -2.63468339E-03
   16.4500008        -2.55698222E-03
   16.5000000        -2.48047989E-03
   16.5499992        -2.40587001E-03
   16.6000004        -2.33303593E-03
   16.6499996        -2.26113270E-03
   16.7000008        -2.18898547E-03
   16.7500000        -2.11562635E-03
   16.7999992        -2.04077642E-03
   16.8500004        -1.96501799E-03
   16.8999996        -1.88969367E-03
   16.9500008        -1.81634177E-03
   17.0000000        -1.74610212E-03
   17.0499992        -1.67931465E-03
   17.1000004        -1.61537284E-03
   17.1499996        -1.55306584E-03
   17.2000008        -1.49111892E-03
   17.2500000        -1.42874313E-03
   17.2999992        -1.36602670E-03
   17.3500004        -1.30383228E-03
   17.3999996        -1.24342507E-03
   17.4500008        -1.18588458E-03
   17.5000000        -1.13170338E-03
   17.5499992        -1.08062790E-03
   17.6000004        -1.03185070E-03
   17.6499996        -9.84381535E-04
   17.7000008        -9.37485602E-04
   17.7500000        -8.90939729E-04
   17.7999992        -8.45016562E-04
   17.8500004        -8.00333277E-04
   17.8999996        -7.57526141E-04
   17.9500008        -7.17053423E-04
   18.0000000        -6.79056742E-04
   18.0499992        -6.43375621E-04
   18.1000004        -6.09667040E-04
   18.1499996        -5.77487284E-04
   18.2000008        -5.46425290E-04
   18.2500000        -5.16178494E-04
   18.2999992        -4.86637291E-04
   18.3500004        -4.57870105E-04
   18.3999996        -4.30130021E-04
   18.4500008        -4.03761194E-04
   18.5000000        -3.79061210E-04
   18.5499992        -3.56146193E-04
   18.6000004        -3.34894168E-04
   18.6499996        -3.14977311E-04
   18.7000008        -2.95995473E-04
   18.7500000        -2.77668296E-04
   18.7999992        -2.59945111E-04
   18.8500004        -2.43017159E-04
   18.8999996        -2.27182027E-04
   18.9500008        -2.12660030E-04
   19.0000000        -1.99426489E-04
   19.0499992        -1.87183832E-04
   19.1000004        -1.75478373E-04
   19.1499996        -1.63903358E-04
   19.2000008        -1.52297434E-04
   19.2500000        -1.40817079E-04
   19.2999992        -1.29848035E-04
   19.3500004        -1.19798671E-04
   19.3999996        -1.10887617E-04
   19.4500008        -1.03027902E-04
   19.5000000        -9.58838500E-05
   19.5499992        -8.90661177E-05
   19.6000004        -8.23596056E-05
   19.6499996        -7.58526876E-05
   19.7000008        -6.98967851E-05
   19.7500000        -6.49023859E-05
   19.7999992        -6.10770512E-05
   19.8500004        -5.82397515E-05
   19.8999996        -5.58279971E-05
   19.9500008        -5.30979232E-05
   20.0000000        -4.94391243E-05
   20.0499992        -4.46490048E-05
   20.1000004        -3.90358946E-05
   20.1499996        -3.33014686E-05
   20.2000008        -2.82563105E-05
   20.2500000        -2.45052543E-05
   20.2999992        -2.22411709E-05
   20.3500004        -2.12279465E-05
   20.3999996        -2.09553145E-05
   20.4500008        -2.08690763E-05
   20.5000000        -2.05616179E-05
   20.5499992        -1.98476991E-05
   20.6000004        -1.87245241E-05
   20.6499996        -1.72754699E-05
   20.7000008        -1.55934213E-05
   20.7500000        -1.37643883E-05
   20.7999992        -1.18967764E-05
   20.8500004        -1.01455071E-05
   20.8999996        -8.68562893E-06
   20.9500008        -7.63476328E-06
   21.0000000        -6.97313317E-06
   21.0499992        -6.52632389E-06
   21.1000004        -6.04574825E-06
   21.1499996        -5.35685058E-06
   21.2000008        -4.49029085E-06
   21.2500000        -3.70426937E-06
   21.2999992        -3.36056132E-06
   21.3500004        -3.70373687E-06
   21.3999996        -4.66344773E-06
   21.4500008        -5.80435744E-06
   21.5000000        -6.47835213E-06
   21.5499992        -6.12266422E-06
   21.6000004        -4.55787813E-06
   21.6499996        -2.12522787E-06
   21.7000008         4.21901774E-07
   21.7500000         2.23150801E-06
   21.7999992         2.72063312E-06
   21.8500004         1.81647147E-06
   21.8999996        -4.38436558E-08
   21.9500008        -2.14252373E-06
   22.0000000        -3.81017867E-06
   22.0499992        -4.68290546E-06
   22.1000004        -4.76858941E-06
   22.1499996        -4.31859507E-06
   22.2000008        -3.60961667E-06
   22.2500000        -2.78061725E-06
   22.2999992        -1.82034171E-06
   22.3500004        -6.95888048E-07
   22.3999996         4.82833855E-07
   22.4500008         1.39477970E-06
   22.5000000         1.60815182E-06
   22.5499992         8.12533301E-07
   22.6000004        -9.48026127E-07
   22.6499996        -3.19152355E-06
   22.7000008        -5.14286512E-06
   22.7500000        -6.06069125E-06
   22.7999992        -5.59194223E-06
   22.8500004        -3.96884434E-06
   22.8999996        -1.93475694E-06
   22.9500008        -4.19631817E-07
   23.0000000        -1.17409236E-07
   23.0499992        -1.17253433E-06
   23.1000004        -3.13147325E-06
   23.1499996        -5.18200841E-06
   23.2000008        -6.55947042E-06
   23.2500000        -6.91302785E-06
   23.2999992        -6.45035425E-06
   23.3500004        -5.79376183E-06
   23.3999996        -5.62972764E-06
   23.4500008        -6.34159915E-06
   23.5000000        -7.81541439E-06
   23.5499992        -9.51777383E-06
   23.6000004        -1.07969172E-05
   23.6499996        -1.12417647E-05
   23.7000008        -1.09072535E-05
   23.7500000        -1.02900749E-05
   23.7999992        -1.00749539E-05
   23.8500004        -1.07927935E-05
   23.8999996        -1.25721945E-05
   23.9500008        -1.51078266E-05
   24.0000000        -1.78430673E-05
   24.0499992        -2.02537722E-05
   24.1000004        -2.20719539E-05
   24.1499996        -2.33439896E-05
   24.2000008        -2.43224549E-05
   24.2500000        -2.52797399E-05
   24.2999992        -2.63791862E-05
   24.3500004        -2.76663650E-05
   24.3999996        -2.91653905E-05
   24.4500008        -3.09779571E-05
   24.5000000        -3.32962336E-05
   24.5499992        -3.62921928E-05
   24.6000004        -3.99596356E-05
   24.6499996        -4.40174626E-05
   24.7000008        -4.79812370E-05
   24.7500000        -5.13772611E-05
   24.7999992        -5.40137589E-05
   24.8500004        -5.61299312E-05
   24.8999996        -5.83327528E-05
   24.9500008        -6.13283191E-05
   25.0000000        -6.55789627E-05
   25.0499992        -7.10753011E-05
   25.1000004        -7.73376887E-05
   25.1499996        -8.36628315E-05
   25.2000008        -8.94710611E-05
   25.2500000        -9.45757129E-05
   25.2999992        -9.92387431E-05
   25.3500004        -1.03994142E-04
   25.3999996        -1.09352739E-04
   25.4500008        -1.15555675E-04