  -15.0000000         1.32773884E-38
  -14.9499998         0.00000000    
  -14.8999996         0.00000000    
  -14.8500004         2.35215598E-38
  -14.8000002        -0.00000000    
  -14.7500000        -2.18662074E-38
  -14.6999998        -2.51862660E-38
  -14.6499996        -0.00000000    
  -14.6000004        -0.00000000    
  -14.5500002         0.00000000    
  -14.5000000         0.00000000    
  -14.4499998         1.36615992E-38
  -14.3999996         0.00000000    
  -14.3500004         0.00000000    
  -14.3000002        -1.45472325E-38
  -14.2500000        -3.02629209E-38
  -14.1999998        -3.94775289E-38
  -14.1499996        -2.72316993E-38
  -14.1000004        -0.00000000    
  -14.0500002         1.48912583E-38
  -14.0000000         6.23783023E-38
  -13.9499998         1.88927812E-37
  -13.8999996         3.21451881E-37
  -13.8500004         1.61850940E-38
  -13.8000002        -1.46853102E-36
  -13.7500000        -3.58980076E-36
  -13.6999998        -1.85489640E-36
  -13.6499996         1.10199403E-35
  -13.6000004         3.24269444E-35
  -13.5500002         2.89580479E-35
  -13.5000000        -5.87051579E-35
  -13.4499998        -2.33060145E-34
  -13.3999996        -2.95501326E-34
  -13.3500004         1.61724432E-34
  -13.3000002         1.31335275E-33
  -13.2500000         2.23196733E-33
  -13.1999998         5.61170901E-34
  -13.1499996        -5.56732822E-33
  -13.1000004        -1.30031716E-32
  -13.0500002        -1.04275121E-32
  -13.0000000         1.52308377E-32
  -12.9499998         5.85998804E-32
  -12.8999996         7.53750370E-32
  -12.8500004        -3.88682240E-33
  -12.8000002        -1.97782826E-31
  -12.7500000        -3.70535192E-31
  -12.6999998        -2.28159739E-31
  -12.6499996         4.44795401E-31
  -12.6000004         1.35682526E-30
  -12.5500002         1.49433911E-30
  -12.5000000        -2.92316622E-31
  -12.4499998        -3.79113780E-30
  -12.3999996        -6.11879980E-30
  -12.3500004        -2.71356796E-30
  -12.3000002         8.13977289E-30
  -12.2500000         1.96787640E-29
  -12.1999998         1.66457854E-29
  -12.1499996        -1.28294620E-29
  -12.1000004        -5.68594464E-29
  -12.0500002        -6.98403045E-29
  -12.0000000         1.97889772E-30
  -11.9499998         1.55528533E-28
  -11.8999996         2.71496178E-28
  -11.8500004         1.45586449E-28
  -11.8000002        -3.34048384E-28
  -11.7500000        -9.38946315E-28
  -11.6999998        -1.02440532E-27
  -11.6499996         1.03995210E-28
  -11.6000004         2.38767858E-27
  -11.5500002         4.31459037E-27
  -11.5000000         3.24710787E-27
  -11.4499998        -2.63652472E-27
  -11.3999996        -1.15186111E-26
  -11.3500004        -1.66017149E-26
  -11.3000002        -9.00669998E-27
  -11.2500000         1.46404310E-26
  -11.1999998         4.41269839E-26
  -11.1499996         5.50983042E-26
  -11.1000004         2.23848249E-26
  -11.0500002        -5.59156627E-26
  -11.0000000        -1.39861821E-25
  -10.9499998        -1.56753638E-25
  -10.8999996        -4.77236381E-26
  -10.8500004         1.68667324E-25
  -10.8000002         3.66165492E-25
  -10.7500000         3.63486373E-25
  -10.6999998         5.95360043E-26
  -10.6499996        -4.29530868E-25
  -10.6000004        -7.62102447E-25
  -10.5500002        -5.74050432E-25
  -10.5000000         1.83505945E-25
  -10.4499998         1.02639895E-24
  -10.3999996         1.12775210E-24
  -10.3500004        -2.80491297E-26
  -10.3000002        -1.90295555E-24
  -10.2500000        -2.77388107E-24
  -10.1999998        -7.45131042E-25
  -10.1499996         4.35911007E-24
  -10.1000004         9.52479571E-24
  -10.0500002         9.23391824E-24
  -10.0000000        -9.18068137E-25
  -9.94999981        -1.91756262E-23
  -9.89999962        -3.49170947E-23
  -9.85000038        -3.22311874E-23
  -9.80000019        -4.40523398E-25
  -9.75000000         5.34918186E-23
  -9.69999981         1.00214510E-22
  -9.64999962         9.91250617E-23
  -9.60000038         2.46116146E-23
  -9.55000019        -1.06263754E-22
  -9.50000000        -2.26168365E-22
  -9.44999981        -2.45405767E-22
  -9.39999962        -1.09273732E-22
  -9.35000038         1.47290441E-22
  -9.30000019         3.91388176E-22
  -9.25000000         4.54979124E-22
  -9.19999981         2.47223631E-22
  -9.14999962        -1.53004495E-22
  -9.10000038        -5.04625208E-22
  -9.05000019        -5.42434743E-22
  -9.00000000        -1.82481955E-22
  -8.94999981         3.47872109E-22
  -8.89999962         5.92003128E-22
  -8.85000038         1.75215953E-22
  -8.80000019        -8.20504653E-22
  -8.75000000        -1.70558180E-21
  -8.69999981        -1.48168354E-21
  -8.64999962         4.52437957E-22
  -8.60000038         3.57788573E-21
  -8.55000019         6.08529110E-21
  -8.50000000         5.63731100E-21
  -8.44999981         8.85060839E-22
  -8.39999962        -7.07994145E-21
  -8.35000038        -1.44304388E-20
  -8.30000019        -1.61225789E-20
  -8.25000000        -8.82637822E-21
  -8.19999981         6.27070072E-21
  -8.14999962         2.27416927E-20
  -8.10000038         3.14107362E-20
  -8.05000019         2.53374550E-20
  -8.00000000         4.67940596E-21
  -7.94999981        -2.17874139E-20
  -7.90000010        -4.03035126E-20
  -7.84999990        -3.97131448E-20
  -7.80000019        -1.88718429E-20
  -7.75000000         1.10699732E-20
  -7.69999981         3.21083532E-20
  -7.65000010         3.04736504E-20
  -7.59999990         6.94925984E-21
  -7.55000019        -2.09040884E-20
  -7.50000000        -2.80837996E-20
  -7.44999981         6.80057221E-22
  -7.40000010         5.60290142E-20
  -7.34999990         1.02512629E-19
  -7.30000019         9.55007547E-20
  -7.25000000         1.02515054E-20
  -7.19999981        -1.32874920E-19
  -7.15000010        -2.65072199E-19
  -7.09999990        -2.96334818E-19
  -7.05000019        -1.65151611E-19
  -7.00000000         1.13827497E-19
  -6.94999981         4.33527117E-19
  -6.90000010         6.27818763E-19
  -6.84999990         5.48306285E-19
  -6.80000019         1.51642369E-19
  -6.75000000        -4.48413990E-19
  -6.69999981        -1.00131981E-18
  -6.65000010        -1.21685961E-18
  -6.59999990        -9.04006253E-19
  -6.55000019        -8.64840078E-20
  -6.50000000         9.68957612E-19
  -6.44999981         1.84097710E-18
  -6.40000010         2.13086110E-18
  -6.34999990         1.65040110E-18
  -6.30000019         5.23517336E-19
  -6.25000000        -8.61675181E-19
  -6.19999981        -2.03724845E-18
  -6.15000010        -2.68621879E-18
  -6.09999990        -2.78559999E-18
  -6.05000019        -2.56383535E-18
  -6.00000000        -2.27085790E-18
  -5.94999981        -1.88935000E-18
  -5.90000010        -9.87841938E-19
  -5.84999990         1.12257229E-18
  -5.80000019         4.90728786E-18
  -5.75000000         1.00152473E-17
  -5.69999981         1.49098495E-17
  -5.65000010         1.70619038E-17
  -5.59999990         1.38111568E-17
  -5.55000019         3.66425254E-18
  -5.50000000        -1.25234541E-17
  -5.44999981        -3.11106036E-17
  -5.40000010        -4.63460000E-17
  -5.34999990        -5.20879668E-17
  -5.30000019        -4.39850346E-17
  -5.25000000        -2.12488207E-17
  -5.19999981         1.27153559E-17
  -5.15000010         5.10178863E-17
  -5.09999990         8.50788016E-17
  -5.05000019         1.06665840E-16
  -5.00000000         1.09598103E-16
  -4.94999981         9.05526396E-17
  -4.90000010         4.93480700E-17
  -4.84999990        -1.09434903E-17
  -4.80000019        -8.37380544E-17
  -4.75000000        -1.58493589E-16
  -4.69999981        -2.20828729E-16
  -4.65000010        -2.53927137E-16
  -4.59999990        -2.41812263E-16
  -4.55000019        -1.73762139E-16
  -4.50000000        -4.94720843E-17
  -4.44999981         1.17572752E-16
  -4.40000010         2.99512624E-16
  -4.34999990         4.57585198E-16
  -4.30000019         5.49122089E-16
  -4.25000000         5.37520703E-16
  -4.19999981         4.02814194E-16
  -4.15000010         1.50167467E-16
  -4.09999990        -1.85261498E-16
  -4.05000019        -5.39611921E-16
  -4.00000000        -8.30924763E-16
  -3.95000005        -9.74841749E-16
  -3.90000010        -9.07417714E-16
  -3.84999990        -6.06081402E-16
  -3.79999995        -1.04364676E-16
  -3.75000000         5.03841137E-16
  -3.70000005         1.08340395E-15
  -3.65000010         1.48326110E-15
  -3.59999990         1.57318233E-15
  -3.54999995         1.28423324E-15
  -3.50000000         6.27029851E-16
  -3.45000005        -2.99186913E-16
  -3.40000010        -1.32484084E-15
  -3.34999990        -2.23156357E-15
  -3.29999995        -2.79340688E-15
  -3.25000000        -2.80937959E-15
  -3.20000005        -2.14569327E-15
  -3.15000010        -7.72365246E-16
  -3.09999990         1.21372484E-15
  -3.04999995         3.54637575E-15
  -3.00000000         5.78734499E-15
  -2.95000005         7.37098489E-15
  -2.90000010         7.68096846E-15
  -2.84999990         6.18626532E-15
  -2.79999995         2.66485777E-15
  -2.75000000        -2.70606126E-15
  -2.70000005        -9.25805063E-15
  -2.65000010        -1.58216386E-14
  -2.59999990        -2.10095291E-14
  -2.54999995        -2.33243753E-14
  -2.50000000        -2.17020327E-14
  -2.45000005        -1.57752602E-14
  -2.40000010        -5.87557787E-15
  -2.34999990         6.60973267E-15
  -2.29999995         1.96482963E-14
  -2.25000000         3.07907047E-14
  -2.20000005         3.77192479E-14
  -2.15000010         3.84245959E-14
  -2.09999990         3.17040536E-14
  -2.04999995         1.80205785E-14
  -2.00000000        -1.72262096E-15
  -1.95000005        -2.51184419E-14
  -1.89999998        -4.90440411E-14
  -1.85000002        -6.81729114E-14
  -1.79999995        -7.93497890E-14
  -1.75000000        -7.91804841E-14
  -1.70000005        -6.62782343E-14
  -1.64999998        -4.04658166E-14
  -1.60000002        -5.92460456E-15
  -1.54999995         3.31772167E-14
  -1.50000000         6.70212448E-14
  -1.45000005         9.09635052E-14
  -1.39999998         9.49121763E-14
  -1.35000002         7.42379587E-14
  -1.29999995         2.83825714E-14
  -1.25000000        -3.69102603E-14
  -1.20000005        -1.15545391E-13
  -1.14999998        -1.91837106E-13
  -1.10000002        -2.53122013E-13
  -1.04999995        -2.95954667E-13
  -1.00000000        -2.97842480E-13
 -0.949999988        -2.60310030E-13
 -0.899999976        -1.96405880E-13
 -0.850000024        -1.05428775E-13
 -0.800000012        -1.80933742E-14
 -0.750000000         6.93393436E-14
 -0.699999988         1.11492975E-13
 -0.649999976         1.10668134E-13
 -0.600000024         3.93272993E-14
 -0.550000012        -8.34983260E-14
 -0.500000000        -2.74600899E-13
 -0.449999988        -4.81158299E-13
 -0.400000006        -6.74373643E-13
 -0.349999994        -8.93685950E-13
 -0.300000012        -1.09425479E-12
 -0.250000000        -1.19417237E-12
 -0.200000003        -1.19974213E-12
 -0.150000006        -1.21452013E-12
 -0.100000001        -1.16033311E-12
  -5.00000007E-02    -9.99400974E-13
   0.00000000        -7.82400349E-13
   5.00000007E-02    -6.73037797E-13
  0.100000001        -7.10085745E-13
  0.150000006        -9.65864433E-13
  0.200000003        -1.21134222E-12
  0.250000000        -1.80520291E-12
  0.300000012        -2.35480103E-12
  0.349999994        -3.12792587E-12
  0.400000006        -3.75202430E-12
  0.449999988        -4.47663347E-12
  0.500000000        -5.42491529E-12
  0.550000012        -6.23001910E-12
  0.600000024        -6.74398775E-12
  0.649999976        -6.88480956E-12
  0.699999988        -7.03411981E-12
  0.750000000        -6.46675899E-12
  0.800000012        -6.59488653E-12
  0.850000024        -6.96984918E-12
  0.899999976        -8.39440930E-12
  0.949999988        -1.02609848E-11
   1.00000000        -1.19716910E-11
   1.04999995        -1.34736380E-11
   1.10000002        -1.49408819E-11
   1.14999998        -1.72296188E-11
   1.20000005        -2.18150359E-11
   1.25000000        -2.37275720E-11
   1.29999995        -2.93010789E-11
   1.35000002        -3.24335177E-11
   1.39999998        -3.50970954E-11
   1.45000005        -3.46741143E-11
   1.50000000        -3.53785161E-11
   1.54999995        -3.89216888E-11
   1.60000002        -4.52482704E-11
   1.64999998        -5.04299658E-11
   1.70000005        -5.50934610E-11
   1.75000000        -6.67399122E-11
   1.79999995        -7.46888246E-11
   1.85000002        -7.92098609E-11
   1.89999998        -8.27771601E-11
   1.95000005        -8.95463495E-11
   2.00000000        -9.84412135E-11
   2.04999995        -1.09476220E-10
   2.09999990        -1.40170486E-10
   2.15000010        -1.64418243E-10
   2.20000005        -1.58026897E-10
   2.25000000        -1.63420250E-10
   2.29999995        -1.92565491E-10
   2.34999990        -1.87843657E-10
   2.40000010        -1.96536384E-10
   2.45000005        -2.52474958E-10
   2.50000000        -2.78628509E-10
   2.54999995        -3.03915337E-10
   2.59999990        -3.26995930E-10
   2.65000010        -3.31333266E-10
   2.70000005        -3.59529267E-10
   2.75000000        -3.87469640E-10
   2.79999995        -4.43853759E-10
   2.84999990        -5.84913951E-10
   2.90000010        -6.31946884E-10
   2.95000005        -6.68804345E-10
   3.00000000        -6.92572610E-10
   3.04999995        -7.23390736E-10
   3.09999990        -6.71314448E-10
   3.15000010        -6.80368761E-10
   3.20000005        -7.80930487E-10
   3.25000000        -9.68030434E-10
   3.29999995        -1.03621234E-09
   3.34999990        -1.31822409E-09
   3.40000010        -1.57359448E-09
   3.45000005        -1.55625512E-09
   3.50000000        -1.62395852E-09
   3.54999995        -1.48109935E-09
   3.59999990        -1.57660418E-09
   3.65000010        -1.89206895E-09
   3.70000005        -1.94210426E-09
   3.75000000        -2.36867059E-09
   3.79999995        -2.23190977E-09
   3.84999990        -2.46061060E-09
   3.90000010        -2.30383357E-09
   3.95000005        -2.96687586E-09
   4.00000000        -3.24914518E-09
   4.05000019        -3.89537114E-09
   4.09999990        -4.04585832E-09
   4.15000010        -4.52097781E-09
   4.19999981        -3.55468166E-09
   4.25000000        -3.26554894E-09
   4.30000019        -4.20811386E-09
   4.34999990        -4.34142367E-09
   4.40000010        -5.25860200E-09
   4.44999981        -6.45479847E-09
   4.50000000        -7.42053707E-09
   4.55000019        -7.08763315E-09
   4.59999990        -8.03536615E-09
   4.65000010        -7.24109839E-09
   4.69999981        -7.01713310E-09
   4.75000000        -8.17843127E-09
   4.80000019        -7.90010191E-09
   4.84999990        -8.44060644E-09
   4.90000010        -9.81546666E-09
   4.94999981        -1.17172005E-08
   5.00000000        -1.23003545E-08
   5.05000019        -1.39669112E-08
   5.09999990        -1.48169930E-08
   5.15000010        -1.69234902E-08
   5.19999981        -1.58631188E-08
   5.25000000        -1.59263998E-08
   5.30000019        -1.41156766E-08
   5.34999990        -1.16338281E-08
   5.40000010        -1.33369706E-08
   5.44999981        -1.32202755E-08
   5.50000000        -1.93432417E-08
   5.55000019        -2.38412383E-08
   5.59999990        -2.45392293E-08
   5.65000010        -2.25527952E-08
   5.69999981        -2.45464467E-08
   5.75000000        -2.36973552E-08
   5.80000019        -2.46773304E-08
   5.84999990        -3.10880957E-08
   5.90000010        -2.98611234E-08
   5.94999981        -2.94165581E-08
   6.00000000        -2.96495131E-08
   6.05000019        -2.37502071E-08
   6.09999990        -2.91504030E-08
   6.15000010        -3.29640777E-08
   6.19999981        -4.11326511E-08
   6.25000000        -3.53677763E-08
   6.30000019        -4.21610800E-08
   6.34999990        -4.29300897E-08
   6.40000010        -3.51196476E-08
   6.44999981        -4.17813055E-08
   6.50000000        -3.76750009E-08
   6.55000019        -4.05891498E-08
   6.59999990        -3.03448431E-08
   6.65000010        -4.05782963E-08
   6.69999981        -5.08392937E-08
   6.75000000        -4.38970780E-08
   6.80000019        -5.58665363E-08
   6.84999990        -7.23034859E-08
   6.90000010        -7.43472555E-08
   6.94999981        -5.22687849E-08
   7.00000000        -3.14881632E-08
   7.05000019        -5.43346736E-08
   7.09999990        -4.11949337E-08
   7.15000010        -5.31630988E-08
   7.19999981        -6.50112284E-08
   7.25000000        -7.70268116E-08
   7.30000019        -5.63349936E-08
   7.34999990        -3.22631237E-08
   7.40000010        -8.06244103E-08
   7.44999981        -6.94160747E-08
   7.50000000        -1.27398238E-07
   7.55000019        -1.04377214E-07
   7.59999990        -6.63022561E-08
   7.65000010        -8.08820388E-08
   7.69999981        -3.57258401E-08
   7.75000000        -4.04939859E-09
   7.80000019        -1.35299887E-08
   7.84999990        -1.34091858E-08
   7.90000010         1.67009535E-08
   7.94999981         1.22322863E-08
   8.00000000        -3.23243832E-08
   8.05000019        -7.91540131E-08
   8.10000038        -1.26889347E-07
   8.14999962        -1.60766930E-07
   8.19999981        -1.35778663E-07
   8.25000000        -1.76781114E-07
   8.30000019        -1.13186047E-07
   8.35000038        -3.34388162E-08
   8.39999962         2.86341013E-08
   8.44999981         2.08897731E-07
   8.50000000         1.90390551E-07
   8.55000019         1.29419632E-07
   8.60000038         1.82003763E-08
   8.64999962        -2.23814510E-07
   8.69999981        -2.06526309E-07
   8.75000000        -2.87470328E-07
   8.80000019        -3.52349723E-08
   8.85000038         4.74615440E-08
   8.89999962         1.82157848E-07
   8.94999981         2.06562348E-07
   9.00000000         1.63712244E-07
   9.05000019         1.83171860E-08
   9.10000038        -2.34949709E-07
   9.14999962        -2.50320682E-07
   9.19999981        -1.45323369E-07
   9.25000000        -1.43945911E-07
   9.30000019         1.46060117E-07
   9.35000038         3.31356830E-07
   9.39999962         3.87186532E-07
   9.44999981         2.48519655E-07
   9.50000000         1.10200432E-07
   9.55000019        -1.21027909E-07
   9.60000038        -6.34366799E-08
   9.64999962        -1.48187979E-07
   9.69999981        -1.05219506E-07
   9.75000000         7.46077191E-08
   9.80000019         1.84709393E-07
   9.85000038         1.96100189E-07
   9.89999962         3.26551657E-07
   9.94999981         1.70483247E-07
   10.0000000        -1.53741226E-07
   10.0500002        -1.14130984E-07
   10.1000004        -1.89907723E-07
   10.1499996        -1.67420581E-07
   10.1999998        -1.02135800E-07
   10.2500000         2.47686245E-07
   10.3000002         6.75507749E-07
   10.3500004         7.48570017E-07
   10.3999996         6.72960198E-07
   10.4499998         7.57126600E-07
   10.5000000         6.12295935E-07
   10.5500002         3.28965626E-07
   10.6000004        -3.90070568E-07
   10.6499996        -7.39742006E-07
   10.6999998        -9.95784262E-07
   10.7500000        -8.94653965E-07
   10.8000002        -4.06049764E-07
   10.8500004         1.38451128E-07
   10.8999996         6.16431748E-07
   10.9499998         1.07064056E-06
   11.0000000         1.20696893E-06
   11.0500002         8.72728322E-07
   11.1000004         5.81625216E-07
   11.1499996        -1.19605644E-07
   11.1999998         9.24876389E-08
   11.2500000         5.60984397E-08
   11.3000002         1.51900494E-07
   11.3500004        -2.52093244E-08
   11.3999996         1.67717246E-07
   11.4499998         5.15120302E-09
   11.5000000        -1.74353502E-07
   11.5500002        -4.34976897E-07
   11.6000004        -3.59816283E-07
   11.6499996        -6.70302597E-07
   11.6999998        -3.27199217E-07
   11.7500000         8.12945444E-08
   11.8000002         3.55846623E-07
   11.8500004         8.41891222E-07
   11.8999996         1.07958613E-06
   11.9499998         7.46184355E-07
   12.0000000         2.46637541E-07
   12.0500002        -4.62613571E-07
   12.1000004        -6.39403083E-07
   12.1499996        -7.51056461E-07
   12.1999998        -3.33228741E-07
   12.2500000         3.37725261E-08
   12.3000002         7.05744640E-07
   12.3500004         1.21100106E-06
   12.3999996         1.07804692E-06
   12.4499998         6.19231514E-07
   12.5000000        -2.53712074E-07
   12.5500002        -1.04966989E-06
   12.6000004        -1.65570430E-06
   12.6499996        -1.62851404E-06
   12.6999998        -9.63267780E-07
   12.7500000        -1.24448377E-07
   12.8000002         7.99871373E-07
   12.8500004         1.31018726E-06
   12.8999996         1.13200508E-06
   12.9499998         3.77955558E-07
   13.0000000        -4.78275240E-07
   13.0500002        -1.04790331E-06
   13.1000004        -1.17194054E-06
   13.1499996        -5.82386292E-07
   13.1999998         4.53901578E-07
   13.2500000         1.37590098E-06
   13.3000002         1.76340700E-06
   13.3500004         1.35765185E-06
   13.3999996         2.08354123E-07
   13.4499998        -1.25207566E-06
   13.5000000        -2.48956394E-06
   13.5500002        -3.07580876E-06
   13.6000004        -2.72970442E-06
   13.6499996        -1.55766793E-06
   13.6999998        -2.15534435E-08
   13.7500000         1.42316435E-06
   13.8000002         2.48954848E-06
   13.8500004         2.79841538E-06
   13.8999996         2.40979261E-06
   13.9499998         1.66315203E-06
   14.0000000         6.71160819E-07
   14.0500002        -3.94731359E-07
   14.1000004        -1.33278172E-06
   14.1499996        -2.03257900E-06
   14.1999998        -2.40699819E-06
   14.2500000        -2.29582929E-06
   14.3000002        -1.76762012E-06
   14.3500004        -9.29804230E-07
   14.3999996         2.96855784E-08
   14.4499998         7.64748961E-07
   14.5000000         1.17104173E-06
   14.5500002         1.30546869E-06
   14.6000004         1.36876201E-06
   14.6499996         1.23437587E-06
   14.6999998         1.22273536E-06
   14.7500000         1.04194953E-06
   14.8000002         6.94533469E-07
   14.8500004        -1.02257218E-07
   14.8999996        -1.59638535E-06
   14.9499998        -3.01775799E-06
   15.0000000        -4.46079093E-06
   15.0500002        -4.28254134E-06
   15.1000004        -2.92730647E-06
   15.1499996        -2.32518275E-07
   15.1999998         3.31431465E-06
   15.2500000         5.92403012E-06
   15.3000002         7.12450219E-06
   15.3500004         5.89891260E-06
   15.3999996         2.82553265E-06
   15.4499998        -8.40861219E-07
   15.5000000        -4.31182525E-06
   15.5500002        -6.47973593E-06
   15.6000004        -6.44869351E-06
   15.6499996        -4.78523361E-06
   15.6999998        -2.05929337E-06
   15.7500000         7.75402270E-07
   15.8000002         2.82873384E-06
   15.8500004         3.61282446E-06
   15.8999996         3.13060059E-06
   15.9499998         2.45103229E-06
   16.0000000         1.63784944E-06
   16.0499992         9.11817096E-07
   16.1000004         8.31733473E-07
   16.1499996         6.39602490E-07
   16.2000008         3.94070304E-10
   16.2500000        -9.80722120E-07
   16.2999992        -1.85792271E-06
   16.3500004        -2.62830690E-06
   16.3999996        -2.96191160E-06
   16.4500008        -2.57013858E-06
   16.5000000        -1.25946008E-06
   16.5499992         5.50357072E-07
   16.6000004         2.51252277E-06
   16.6499996         3.72710133E-06
   16.7000008         3.99320379E-06
   16.7500000         3.22456208E-06
   16.7999992         1.55673695E-06
   16.8500004        -7.20251194E-07
   16.8999996        -3.13350824E-06
   16.9500008        -4.71013891E-06
   17.0000000        -5.10352083E-06
   17.0499992        -4.17873980E-06
   17.1000004        -1.92716652E-06
   17.1499996         1.23383711E-06
   17.2000008         4.20203332E-06
   17.2500000         6.24121867E-06
   17.2999992         6.77024809E-06
   17.3500004         5.41432883E-06
   17.3999996         2.39703718E-06
   17.4500008        -1.35394657E-06
   17.5000000        -4.74468743E-06
   17.5499992        -6.71854423E-06
   17.6000004        -6.94517712E-06
   17.6499996        -5.13939267E-06
   17.7000008        -1.99313536E-06
   17.7500000         1.64876258E-06
   17.7999992         4.57192027E-06
   17.8500004         5.94017547E-06
   17.8999996         5.51439462E-06
   17.9500008         3.55096995E-06
   18.0000000         6.83132953E-07
   18.0499992        -2.04572370E-06
   18.1000004        -4.02266141E-06
   18.1499996        -4.48310766E-06
   18.2000008        -3.44091495E-06
   18.2500000        -1.37251573E-06
   18.2999992         8.48380239E-07
   18.3500004         2.60270463E-06
   18.3999996         3.34198762E-06
   18.4500008         2.93221456E-06
   18.5000000         1.57907823E-06
   18.5499992        -2.26992285E-07
   18.6000004        -1.78384062E-06
   18.6499996        -2.56118301E-06
   18.7000008        -2.33978608E-06
   18.7500000        -1.20494963E-06
   18.7999992         3.64397863E-07
   18.8500004         1.70951444E-06
   18.8999996         2.24242012E-06
   18.9500008         1.77404138E-06
   19.0000000         4.99721693E-07
   19.0499992        -1.04659580E-06
   19.1000004        -2.19285585E-06
   19.1499996        -2.38032953E-06
   19.2000008        -1.50689812E-06
   19.2500000         7.99213637E-08
   19.2999992         1.74621209E-06
   19.3500004         2.79427286E-06
   19.3999996         2.78286893E-06
   19.4500008         1.66573875E-06
   19.5000000        -1.06800428E-07
   19.5499992        -1.91165077E-06
   19.6000004        -3.06915467E-06
   19.6499996        -3.15642910E-06
   19.7000008        -2.11845145E-06
   19.7500000        -2.71569320E-07
   19.7999992         1.74154229E-06
   19.8500004         3.24936514E-06
   19.8999996         3.65006508E-06
   19.9500008         2.69800535E-06
   20.0000000         6.01560714E-07
   20.0499992        -1.99498641E-06
   20.1000004        -4.20581227E-06
   20.1499996        -5.17116541E-06
   20.2000008        -4.37861809E-06
   20.2500000        -1.91787058E-06
   20.2999992         1.49106575E-06
   20.3500004         4.67968721E-06
   20.3999996         6.47492516E-06
   20.4500008         6.10383768E-06
   20.5000000         3.59069486E-06
   20.5499992        -2.18132982E-07
   20.6000004        -3.92975880E-06
   20.6499996        -6.10222014E-06
   20.7000008        -5.86248098E-06
   20.7500000        -3.26864983E-06
   20.7999992         6.48316075E-07
   20.8500004         4.28814474E-06
   20.8999996         6.11070345E-06
   20.9500008         5.29787894E-06
   21.0000000         2.10033591E-06
   21.0499992        -2.23709958E-06
   21.1000004        -5.96905784E-06
   21.1499996        -7.57184534E-06
   21.2000008        -6.37284165E-06
   21.2500000        -2.81210009E-06
   21.2999992         1.75642197E-06
   21.3500004         5.63476351E-06
   21.3999996         7.47370632E-06
   21.4500008         6.77666321E-06
   21.5000000         4.01997067E-06
   21.5499992         3.77173734E-07
   21.6000004        -2.81248731E-06
   21.6499996        -4.57121814E-06
   21.7000008        -4.59262037E-06
   21.7500000        -3.24197299E-06
   21.7999992        -1.29519697E-06
   21.8500004         4.34242054E-07
   21.8999996         1.40501766E-06
   21.9500008         1.48727270E-06
   22.0000000         9.22929132E-07
   22.0499992         1.54986552E-07
   22.1000004        -3.73836997E-07
   22.1499996        -3.81374122E-07
   22.2000008         1.66357239E-07
   22.2500000         1.05826814E-06
   22.2999992         1.90925562E-06
   22.3500004         2.28880390E-06
   22.3999996         1.87702381E-06
   22.4500008         6.10866778E-07
   22.5000000        -1.24032090E-06
   22.5499992        -3.10991027E-06
   22.6000004        -4.30463660E-06
   22.6499996        -4.26030465E-06
   22.7000008        -2.79547476E-06
   22.7500000        -2.45909121E-07
   22.7999992         2.59572539E-06
   22.8500004         4.74121953E-06
   22.8999996         5.37803817E-06
   22.9500008         4.20486140E-06
   23.0000000         1.58475189E-06
   23.0499992        -1.56249018E-06
   23.1000004        -4.09837139E-06
   23.1499996        -5.10409564E-06
   23.2000008        -4.24086102E-06
   23.2500000        -1.88110789E-06
   23.2999992         1.04535957E-06
   23.3500004         3.42709086E-06
   23.3999996         4.41029260E-06
   23.4500008         3.71934470E-06
   23.5000000         1.72963314E-06
   23.5499992        -7.25862549E-07
   23.6000004        -2.72005354E-06
   23.6499996        -3.60079844E-06
   23.7000008        -3.20997378E-06
   23.7500000        -1.87502428E-06
   23.7999992        -2.03939535E-07
   23.8500004         1.20349489E-06
   23.8999996         1.98866269E-06
   23.9500008         2.11955944E-06
   24.0000000         1.81449752E-06
   24.0499992         1.37251789E-06
   24.1000004         1.00550085E-06
   24.1499996         7.54093492E-07
   24.2000008         5.10285474E-07
   24.2500000         1.11930021E-07
   24.2999992        -5.41575105E-07
   24.3500004        -1.41532178E-06
   24.3999996        -2.33266337E-06
   24.4500008        -3.02144190E-06
   24.5000000        -3.20179765E-06
   24.5499992        -2.68140025E-06
   24.6000004        -1.43611544E-06
   24.6499996         3.41828695E-07
   24.7000008         2.26011798E-06
   24.7500000         3.81083760E-06
   24.7999992         4.52116001E-06
   24.8500004         4.12645159E-06
   24.8999996         2.70067426E-06
   24.9500008         6.70825386E-07
   25.0000000        -1.31837589E-06
   25.0499992        -2.64442247E-06
   25.1000004        -2.95749669E-06
   25.1499996        -2.32671027E-06
   25.2000008        -1.19874653E-06
   25.2500000        -1.86621406E-07
   25.2999992         2.25897523E-07
   25.3500004        -8.70795205E-08
   25.3999996        -8.40635892E-07
   25.4500008        -1.47927881E-06