  -15.0000000         1.52495568E-36
  -14.9499998         1.43619021E-36
  -14.8999996         1.47180893E-36
  -14.8500004         1.09587172E-36
  -14.8000002        -2.41758199E-36
  -14.7500000        -4.05939798E-36
  -14.6999998        -5.46806014E-36
  -14.6499996        -1.06792978E-36
  -14.6000004         1.75853514E-36
  -14.5500002         1.41287274E-31
  -14.5000000         9.28444841E-31
  -14.4499998         1.42453684E-30
  -14.3999996        -6.43904584E-30
  -14.3500004        -3.31160494E-29
  -14.3000002        -4.29891608E-29
  -14.2500000         1.05440728E-28
  -14.1999998         5.08315938E-28
  -14.1499996         6.51482156E-28
  -14.1000004        -9.34531891E-28
  -14.0500002        -4.95009332E-27
  -14.0000000        -6.88620489E-27
  -13.9499998         4.58807665E-27
  -13.8999996         3.49991299E-26
  -13.8500004         5.61862482E-26
  -13.8000002        -2.95530522E-27
  -13.7500000        -1.87263364E-25
  -13.6999998        -3.65346236E-25
  -13.6499996        -1.62818734E-25
  -13.6000004         7.39387494E-25
  -13.5500002         1.90075167E-24
  -13.5000000         1.66693015E-24
  -13.4499998        -1.82959011E-24
  -13.3999996        -7.79526314E-24
  -13.3500004        -1.02044925E-23
  -13.3000002        -1.56752948E-25
  -13.2500000         2.40870095E-23
  -13.1999998         4.51729932E-23
  -13.1499996         2.85197924E-23
  -13.1000004        -4.84390036E-23
  -13.0500002        -1.50439183E-22
  -13.0000000        -1.68248266E-22
  -12.9499998         1.36749432E-23
  -12.8999996         3.70321424E-22
  -12.8500004         6.25739010E-22
  -12.8000002         3.59571712E-22
  -12.7500000        -5.99440180E-22
  -12.6999998        -1.72594123E-21
  -12.6499996        -1.80908459E-21
  -12.6000004         1.82188499E-22
  -12.5500002         3.69296077E-21
  -12.5000000         5.87496669E-21
  -12.4499998         3.01574622E-21
  -12.3999996        -5.81439429E-21
  -12.3500004        -1.53587859E-20
  -12.3000002        -1.51548956E-20
  -12.2500000         2.74136521E-21
  -12.1999998         3.27490950E-20
  -12.1499996         5.12299837E-20
  -12.1000004         2.83189839E-20
  -12.0500002        -4.45575183E-20
  -12.0000000        -1.29448415E-19
  -11.9499998        -1.47105477E-19
  -11.8999996        -2.84932508E-20
  -11.8500004         2.08404937E-19
  -11.8000002         4.16721107E-19
  -11.7500000         3.77616221E-19
  -11.6999998        -3.73758102E-20
  -11.6499996        -6.89651703E-19
  -11.6000004        -1.14052066E-18
  -11.5500002        -8.74559760E-19
  -11.5000000         2.83400867E-19
  -11.4499998         1.83127262E-18
  -11.3999996         2.67518316E-18
  -11.3500004         1.77358711E-18
  -11.3000002        -9.53091667E-19
  -11.2500000        -4.11137633E-18
  -11.1999998        -5.34379273E-18
  -11.1499996        -2.87420716E-18
  -11.1000004         2.77586862E-18
  -11.0500002         8.27711580E-18
  -11.0000000         9.11177578E-18
  -10.9499998         2.82741562E-18
  -10.8999996        -8.12978583E-18
  -10.8500004        -1.65018280E-17
  -10.8000002        -1.42667761E-17
  -10.7500000         1.15061805E-18
  -10.6999998         2.26936505E-17
  -10.6499996         3.55496882E-17
  -10.6000004         2.57316020E-17
  -10.5500002        -8.96243990E-18
  -10.5000000        -5.30913237E-17
  -10.4499998        -7.86881829E-17
  -10.3999996        -6.08386907E-17
  -10.3500004         4.39290518E-18
  -10.3000002         9.13629788E-17
  -10.2500000         1.53382235E-16
  -10.1999998         1.46324756E-16
  -10.1499996         5.53481569E-17
  -10.1000004        -9.07617310E-17
  -10.0500002        -2.27317782E-16
  -10.0000000        -2.81586654E-16
  -9.94999981        -2.08287281E-16
  -9.89999962        -1.65171656E-17
  -9.85000038         2.24276351E-16
  -9.80000019         4.04175667E-16
  -9.75000000         4.15712733E-16
  -9.69999981         2.09353047E-16
  -9.64999962        -1.58817725E-16
  -9.60000038        -5.16710268E-16
  -9.55000019        -6.31702349E-16
  -9.50000000        -3.35314959E-16
  -9.44999981         3.28817131E-16
  -9.39999962         1.02880452E-15
  -9.35000038         1.23983484E-15
  -9.30000019         5.35854483E-16
  -9.25000000        -1.03924198E-15
  -9.19999981        -2.76258525E-15
  -9.14999962        -3.42778437E-15
  -9.10000038        -1.99401741E-15
  -9.05000019         1.58281754E-15
  -9.00000000         5.86887869E-15
  -8.94999981         8.32062148E-15
  -8.89999962         6.58163955E-15
  -8.85000038         1.49047226E-16
  -8.80000019        -8.62199242E-15
  -8.75000000        -1.50972527E-14
  -8.69999981        -1.46496212E-14
  -8.64999962        -5.63345308E-15
  -8.60000038         8.74073881E-15
  -8.55000019         2.11745616E-14
  -8.50000000         2.38720651E-14
  -8.44999981         1.32996912E-14
  -8.39999962        -6.70460459E-15
  -8.35000038        -2.58227904E-14
  -8.30000019        -3.24064743E-14
  -8.25000000        -2.04312055E-14
  -8.19999981         5.80104448E-15
  -8.14999962         3.25448896E-14
  -8.10000038         4.34469795E-14
  -8.05000019         2.90481174E-14
  -8.00000000        -6.43174224E-15
  -7.94999981        -4.54650965E-14
  -7.90000010        -6.54327937E-14
  -7.84999990        -5.08462460E-14
  -7.80000019        -3.08260637E-15
  -7.75000000         5.79896848E-14
  -7.69999981         1.02049296E-13
  -7.65000010         1.02623998E-13
  -7.59999990         5.09021807E-14
  -7.55000019        -3.76221813E-14
  -7.50000000        -1.27223644E-13
  -7.44999981        -1.75664970E-13
  -7.40000010        -1.52578295E-13
  -7.34999990        -5.53369538E-14
  -7.30000019         8.46862863E-14
  -7.25000000         2.09951075E-13
  -7.19999981         2.58486727E-13
  -7.15000010         1.93224722E-13
  -7.09999990         2.64664084E-14
  -7.05000019        -1.74654995E-13
  -7.00000000        -3.10815121E-13
  -6.94999981        -2.97003443E-13
  -6.90000010        -1.13700512E-13
  -6.84999990         1.66340872E-13
  -6.80000019         3.98331975E-13
  -6.75000000         4.33428250E-13
  -6.69999981         2.05599020E-13
  -6.65000010        -2.10926952E-13
  -6.59999990        -6.14944998E-13
  -6.55000019        -7.70262543E-13
  -6.50000000        -5.36168603E-13
  -6.44999981         3.43194609E-14
  -6.40000010         6.92713627E-13
  -6.34999990         1.10689236E-12
  -6.30000019         1.03572836E-12
  -6.25000000         4.72207722E-13
  -6.19999981        -3.31905510E-13
  -6.15000010        -9.85811693E-13
  -6.09999990        -1.16502424E-12
  -6.05000019        -7.90286619E-13
  -6.00000000        -7.40362022E-14
  -5.94999981         5.94696167E-13
  -5.90000010         8.65417601E-13
  -5.84999990         6.18954540E-13
  -5.80000019         2.33939268E-14
  -5.75000000        -5.69959661E-13
  -5.69999981        -8.28995618E-13
  -5.65000010        -6.18528612E-13
  -5.59999990        -5.53179938E-14
  -5.55000019         5.81856449E-13
  -5.50000000         1.01135604E-12
  -5.44999981         1.08081447E-12
  -5.40000010         8.07241047E-13
  -5.34999990         3.10010996E-13
  -5.30000019        -2.65242743E-13
  -5.25000000        -8.08450203E-13
  -5.19999981        -1.23747193E-12
  -5.15000010        -1.45783006E-12
  -5.09999990        -1.35903777E-12
  -5.05000019        -8.80949773E-13
  -5.00000000        -8.06446313E-14
  -4.94999981         8.33971672E-13
  -4.90000010         1.55380537E-12
  -4.84999990         1.84481011E-12
  -4.80000019         1.64748889E-12
  -4.75000000         1.10649857E-12
  -4.69999981         4.78290584E-13
  -4.65000010        -3.69044251E-15
  -4.59999990        -3.05641065E-13
  -4.55000019        -5.42956196E-13
  -4.50000000        -8.32636911E-13
  -4.44999981        -1.15196112E-12
  -4.40000010        -1.39510820E-12
  -4.34999990        -1.46971226E-12
  -4.30000019        -1.30825320E-12
  -4.25000000        -1.17249006E-12
  -4.19999981        -1.09362367E-12
  -4.15000010        -1.31031329E-12
  -4.09999990        -1.18330974E-12
  -4.05000019        -3.95991969E-13
  -4.00000000         1.58048932E-12
  -3.95000005         4.53447870E-12
  -3.90000010         7.44794764E-12
  -3.84999990         8.69161427E-12
  -3.79999995         7.17345497E-12
  -3.75000000         2.90455615E-12
  -3.70000005        -3.21582778E-12
  -3.65000010        -8.65098791E-12
  -3.59999990        -1.19548225E-11
  -3.54999995        -1.07802213E-11
  -3.50000000        -6.52634760E-12
  -3.45000005        -1.37990867E-12
  -3.40000010         3.27132765E-12
  -3.34999990         5.19280756E-12
  -3.29999995         4.09113715E-12
  -3.25000000         1.93614222E-12
  -3.20000005         7.13759780E-13
  -3.15000010         1.76337601E-12
  -3.09999990         3.92249211E-12
  -3.04999995         8.25970715E-12
  -3.00000000         1.19377988E-11
  -2.95000005         1.34581174E-11
  -2.90000010         1.01196664E-11
  -2.84999990         4.66469832E-12
  -2.79999995        -4.11716971E-12
  -2.75000000        -1.59714499E-11
  -2.70000005        -1.96947077E-11
  -2.65000010        -2.14212502E-11
  -2.59999990        -1.94204340E-11
  -2.54999995        -9.71182770E-12
  -2.50000000         8.58133096E-12
  -2.45000005         2.01751688E-11
  -2.40000010         1.33477647E-11
  -2.34999990         1.20053672E-11
  -2.29999995         4.62419686E-12
  -2.25000000         1.63968717E-11
  -2.20000005         2.53684747E-11
  -2.15000010         3.99174305E-11
  -2.09999990         3.99998923E-11
  -2.04999995         3.67064712E-11
  -2.00000000        -3.34696160E-12
  -1.95000005        -3.84776169E-11
  -1.89999998        -3.82841016E-11
  -1.85000002        -2.50917603E-11
  -1.79999995         1.23299565E-11
  -1.75000000        -2.50651778E-12
  -1.70000005         2.79678416E-11
  -1.64999998         4.28458831E-11
  -1.60000002        -2.18501497E-12
  -1.54999995        -5.22913240E-11
  -1.50000000         2.77242274E-11
  -1.45000005         1.14388179E-10
  -1.39999998         1.01820885E-10
  -1.35000002         1.97424257E-10
  -1.29999995         1.12311188E-10
  -1.25000000        -7.10763462E-11
  -1.20000005         3.47395480E-11
  -1.14999998        -6.77989331E-11
  -1.10000002         8.66679159E-11
  -1.04999995         2.76862561E-10
  -1.00000000         2.32580705E-10
 -0.949999988         1.96107922E-10
 -0.899999976         2.57529803E-10
 -0.850000024        -1.10125700E-10
 -0.800000012        -3.52379986E-10
 -0.750000000        -3.74189596E-10
 -0.699999988        -4.47657120E-11
 -0.649999976        -1.35159342E-10
 -0.600000024         4.31917904E-11
 -0.550000012         8.51264059E-10
 -0.500000000         1.27426247E-09
 -0.449999988         8.08014655E-10
 -0.400000006         7.96463173E-10
 -0.349999994         2.52006860E-10
 -0.300000012        -8.58628280E-10
 -0.250000000        -2.48206622E-10
 -0.200000003        -3.89742821E-10
 -0.150000006         9.90776239E-10
 -0.100000001         8.89717688E-10
  -5.00000007E-02     3.08735509E-10
   0.00000000         5.49382650E-10
   5.00000007E-02     1.98051575E-09
  0.100000001         5.62079605E-10
  0.150000006         2.60372035E-09
  0.200000003         3.63945452E-09
  0.250000000         4.50409399E-09
  0.300000012        -3.47321838E-09
  0.349999994        -7.93551802E-09
  0.400000006        -1.34051736E-09
  0.449999988         3.62470343E-09
  0.500000000         2.42359155E-09
  0.550000012         8.99575614E-09
  0.600000024         1.31055122E-08
  0.649999976         1.00373541E-08
  0.699999988        -4.49831328E-09
  0.750000000        -7.35383576E-09
  0.800000012        -1.25239854E-08
  0.850000024        -3.44064843E-09
  0.899999976         8.34610869E-09
  0.949999988         1.49590704E-08
   1.00000000         4.42657822E-09
   1.04999995         1.28859163E-08
   1.10000002         1.85956246E-08
   1.14999998         8.63007499E-10
   1.20000005        -2.44415688E-08
   1.25000000        -5.07752862E-09
   1.29999995         4.88525842E-09
   1.35000002         2.01191508E-08
   1.39999998         3.63171111E-08
   1.45000005         5.25971018E-08
   1.50000000         1.39811238E-08
   1.54999995        -3.56317251E-08
   1.60000002        -2.10428865E-08
   1.64999998        -4.28834106E-08
   1.70000005         7.38053396E-10
   1.75000000         4.79530726E-08
   1.79999995         7.32761691E-08
   1.85000002         7.56019247E-08
   1.89999998        -6.97102180E-08
   1.95000005        -9.99490126E-08
   2.00000000        -3.05147410E-08
   2.04999995         9.73648824E-08
   2.09999990         8.78586519E-08
   2.15000010         2.13775149E-08
   2.20000005        -1.40918592E-08
   2.25000000        -4.66792187E-08
   2.29999995        -9.24681203E-08
   2.34999990         3.94404829E-08
   2.40000010         6.03123809E-08
   2.45000005         1.12611424E-07
   2.50000000         6.33592663E-08
   2.54999995         2.28150228E-07
   2.59999990         7.65825003E-09
   2.65000010        -2.52542804E-07
   2.70000005        -3.95753062E-07
   2.75000000        -1.13638396E-08
   2.79999995         1.12885118E-07
   2.84999990        -7.57114833E-08
   2.90000010         1.10965985E-07
   2.95000005         9.53838324E-08
   3.00000000         4.35175963E-07
   3.04999995         3.83458826E-07
   3.09999990         4.90511134E-08
   3.15000010         2.95975241E-07
   3.20000005        -4.90322918E-07
   3.25000000        -6.19139428E-07
   3.29999995        -3.41446537E-07
   3.34999990         2.09474905E-07
   3.40000010         2.62307339E-07
   3.45000005         4.56660587E-07
   3.50000000         1.01103717E-06
   3.54999995         3.82075939E-07
   3.59999990        -7.58935414E-07
   3.65000010        -7.90294280E-07
   3.70000005        -1.06100549E-06
   3.75000000         7.95988115E-07
   3.79999995         7.16164436E-07
   3.84999990        -4.96208870E-08
   3.90000010        -9.45263690E-09
   3.95000005        -1.58893147E-06
   4.00000000        -1.79292397E-06
   4.05000019         1.23199789E-06
   4.09999990         5.72052613E-07
   4.15000010         3.00574652E-06
   4.19999981         2.07510561E-06
   4.25000000         1.04640117E-06
   4.30000019        -2.41763018E-06
   4.34999990        -3.08858785E-06
   4.40000010        -4.18573745E-06
   4.44999981         9.60797252E-07
   4.50000000         2.85933106E-06
   4.55000019         2.05269589E-06
   4.59999990        -5.95064250E-07
   4.65000010        -1.85244221E-06
   4.69999981        -1.18284891E-06
   4.75000000         4.20061451E-06
   4.80000019         1.71470094E-06
   4.84999990         4.83595295E-06
   4.90000010         6.25427947E-06
   4.94999981        -4.79126493E-06
   5.00000000        -5.43104625E-06
   5.05000019        -9.91314027E-06
   5.09999990        -9.32911098E-06
   5.15000010        -1.39646954E-06
   5.19999981         6.14286046E-06
   5.25000000         8.04129013E-06
   5.30000019         6.02842692E-06
   5.34999990         8.50415120E-07
   5.40000010         1.71366196E-06
   5.44999981        -8.95759285E-07
   5.50000000        -6.81698111E-06
   5.55000019         1.92064454E-06
   5.59999990        -4.43697309E-06
   5.65000010        -4.60529418E-06
   5.69999981         1.13211954E-05
   5.75000000         8.68075585E-06
   5.80000019         9.92169589E-06
   5.84999990         1.07009191E-06
   5.90000010        -1.43662182E-05
   5.94999981        -1.50816650E-05
   6.00000000        -1.99397764E-05
   6.05000019        -2.53012217E-06
   6.09999990         1.18737362E-05
   6.15000010         2.78586558E-05
   6.19999981         2.25146505E-05
   6.25000000         1.20487312E-06
   6.30000019        -2.90830903E-05
   6.34999990        -3.23053137E-05
   6.40000010        -1.33294543E-05
   6.44999981         3.44270811E-05
   6.50000000         3.08438830E-05
   6.55000019         3.01007603E-05
   6.59999990         7.77914556E-06
   6.65000010        -1.57158611E-05
   6.69999981        -4.72530992E-05
   6.75000000        -5.69921249E-05
   6.80000019        -1.24769522E-05
   6.84999990        -3.51766130E-06
   6.90000010         3.95896859E-05
   6.94999981         2.21160790E-05
   7.00000000         3.15279940E-05
   7.05000019         4.15340619E-05
   7.09999990         8.54260998E-06
   7.15000010         1.68504848E-05
   7.19999981        -9.55919677E-06
   7.25000000        -1.46115444E-05
   7.30000019        -2.43372342E-05
   7.34999990        -6.31247713E-06
   7.40000010        -2.90811276E-05
   7.44999981        -1.01701822E-04
   7.50000000        -7.11927423E-05
   7.55000019        -6.10637435E-05
   7.59999990         7.43455257E-06
   7.65000010         1.32117959E-04
   7.69999981         1.91276282E-04
   7.75000000         1.34570073E-04
   7.80000019         3.69897825E-05
   7.84999990        -6.27363843E-05
   7.90000010        -1.20176701E-04
   7.94999981        -1.53035173E-04
   8.00000000        -8.85657137E-05
   8.05000019        -3.22392698E-05
   8.10000038         5.52633492E-06
   8.14999962         1.00748090E-04
   8.19999981         6.72946117E-05
   8.25000000         2.28121226E-05
   8.30000019         7.63679782E-05
   8.35000038         3.82031503E-05
   8.39999962         2.86256654E-05
   8.44999981         2.73031237E-05
   8.50000000        -4.19956777E-05
   8.55000019        -1.11220907E-04
   8.60000038        -1.46354563E-04
   8.64999962        -7.15490096E-05
   8.69999981        -3.25868023E-05
   8.75000000         3.92821858E-05
   8.80000019         1.23388585E-04
   8.85000038         9.88991451E-05
   8.89999962         1.13635411E-04
   8.94999981         6.54628866E-06
   9.00000000        -7.21122051E-05
   9.05000019        -3.17029153E-05
   9.10000038         1.06180933E-05
   9.14999962        -5.25766554E-05
   9.19999981        -3.43298984E-06
   9.25000000         5.08039520E-05
   9.30000019         6.02579057E-05
   9.35000038         4.91376977E-06
   9.39999962        -4.20950419E-05
   9.44999981        -6.62478342E-05
   9.50000000        -9.77482850E-05
   9.55000019        -7.88726029E-05
   9.60000038        -4.02085825E-05
   9.64999962         5.31024079E-06
   9.69999981         5.20932117E-05
   9.75000000         3.57307654E-05
   9.80000019         5.18930610E-05
   9.85000038         1.02243059E-04
   9.89999962         5.40185574E-05
   9.94999981         7.91233015E-06
   10.0000000        -1.76621597E-05
   10.0500002        -2.08243418E-05
   10.1000004        -4.21118602E-05
   10.1499996        -7.43949422E-05
   10.1999998        -4.60072952E-05
   10.2500000        -1.35054834E-05
   10.3000002         3.13554992E-05
   10.3500004         1.06633757E-04
   10.3999996         1.50231936E-04
   10.4499998         1.15169081E-04
   10.5000000        -1.09320827E-05
   10.5500002        -1.67234335E-04
   10.6000004        -2.47087766E-04
   10.6499996        -2.39097688E-04
   10.6999998        -9.42822517E-05
   10.7500000         9.57278098E-05
   10.8000002         2.51507241E-04
   10.8500004         3.46381043E-04
   10.8999996         3.07233742E-04
   10.9499998         1.24420883E-04
   11.0000000        -9.03072141E-05
   11.0500002        -2.92455807E-04
   11.1000004        -3.84523330E-04
   11.1499996        -3.34488665E-04
   11.1999998        -1.78640679E-04
   11.2500000         3.01253294E-05
   11.3000002         2.18347850E-04
   11.3500004         3.26304871E-04
   11.3999996         3.16914928E-04
   11.4499998         2.03904012E-04
   11.5000000         4.93430343E-05
   11.5500002        -9.06923451E-05
   11.6000004        -1.81862692E-04
   11.6499996        -2.15495878E-04
   11.6999998        -1.98748690E-04
   11.7500000        -1.65456047E-04
   11.8000002        -1.02553007E-04
   11.8500004        -7.99233749E-06
   11.8999996         1.17986783E-04
   11.9499998         2.59520806E-04
   12.0000000         3.34717159E-04
   12.0500002         3.02346190E-04
   12.1000004         1.07916094E-04
   12.1499996        -1.51188360E-04
   12.1999998        -3.79052159E-04
   12.2500000        -4.92835708E-04
   12.3000002        -3.74444964E-04
   12.3500004        -8.13510414E-05
   12.3999996         2.55974068E-04
   12.4499998         4.82638250E-04
   12.5000000         5.16230066E-04
   12.5500002         3.22145235E-04
   12.6000004        -2.72356756E-05
   12.6499996        -3.80491634E-04
   12.6999998        -5.55928797E-04
   12.7500000        -4.55168774E-04
   12.8000002        -1.66933634E-04
   12.8500004         1.62628639E-04
   12.8999996         4.68213955E-04
   12.9499998         5.48564363E-04
   13.0000000         3.87775770E-04
   13.0500002         8.97449645E-05
   13.1000004        -2.33214072E-04
   13.1499996        -4.59340867E-04
   13.1999998        -5.05916832E-04
   13.2500000        -3.77123302E-04
   13.3000002        -1.38529591E-04
   13.3500004         1.16297793E-04
   13.3999996         3.44305066E-04
   13.4499998         3.93783324E-04
   13.5000000         3.66412132E-04
   13.5500002         2.37206186E-04
   13.6000004         6.91092209E-05
   13.6499996        -1.08867011E-04
   13.6999998        -2.26403063E-04
   13.7500000        -2.51710007E-04
   13.8000002        -2.60133558E-04
   13.8500004        -2.02396797E-04
   13.8999996        -9.28984737E-05
   13.9499998         3.22541164E-05
   14.0000000         1.53317116E-04
   14.0500002         2.57731183E-04
   14.1000004         2.56949221E-04
   14.1499996         1.41282071E-04
   14.1999998        -2.36981177E-05
   14.2500000        -1.81995565E-04
   14.3000002        -2.65923125E-04
   14.3500004        -2.27695593E-04
   14.3999996        -1.32039102E-04
   14.4499998         1.15816467E-04
   14.5000000         2.66818679E-04
   14.5500002         3.81581835E-04
   14.6000004         2.70758464E-04
   14.6499996         7.09341111E-05
   14.6999998        -1.85792698E-04
   14.7500000        -3.42945568E-04
   14.8000002        -3.75428004E-04
   14.8500004        -2.66858609E-04
   14.8999996        -5.01560135E-05
   14.9499998         1.71527528E-04
   15.0000000         2.33618310E-04
   15.0500002         2.22964110E-04
   15.1000004         1.30893663E-04
   15.1499996         2.52972113E-05
   15.1999998        -1.78798018E-05
   15.2500000        -1.42572035E-05
   15.3000002         3.07240844E-05
   15.3500004         7.07926229E-05
   15.3999996         5.36383741E-05
   15.4499998        -3.69469271E-05
   15.5000000        -1.26275991E-04
   15.5500002        -1.88085018E-04
   15.6000004        -1.87595724E-04
   15.6499996        -1.20832294E-04
   15.6999998        -1.28349247E-05
   15.7500000         6.62483944E-05
   15.8000002         9.45888096E-05
   15.8500004         8.36206018E-05
   15.8999996         3.58151738E-05
   15.9499998         4.71590738E-06
   16.0000000         2.95325972E-05
   16.0499992         8.08077530E-05
   16.1000004         1.51668850E-04
   16.1499996         1.68858751E-04
   16.2000008         1.56014838E-04
   16.2500000         7.62632699E-05
   16.2999992        -4.44456891E-05
   16.3500004        -2.11809747E-04
   16.3999996        -3.60093545E-04
   16.4500008        -4.24182392E-04
   16.5000000        -3.93177470E-04
   16.5499992        -2.23864670E-04
   16.6000004         4.04701059E-05
   16.6499996         3.30630370E-04
   16.7000008         5.32575476E-04
   16.7500000         5.70359291E-04
   16.7999992         4.23311605E-04
   16.8500004         1.54607114E-04
   16.8999996        -1.32458081E-04
   16.9500008        -3.33794887E-04
   17.0000000        -3.72605951E-04
   17.0499992        -2.82148016E-04
   17.1000004        -1.23832273E-04
   17.1499996         1.71966694E-05
   17.2000008         8.52329904E-05
   17.2500000         5.75993072E-05
   17.2999992        -2.18391197E-05
   17.3500004        -1.05316234E-04
   17.3999996        -1.39719079E-04
   17.4500008        -1.14375136E-04
   17.5000000        -1.69964696E-05
   17.5499992         1.34890317E-04
   17.6000004         2.90529832E-04
   17.6499996         3.88435350E-04
   17.7000008         3.59256461E-04
   17.7500000         1.78879214E-04
   17.7999992        -1.09276247E-04
   17.8500004        -3.92350310E-04
   17.8999996        -5.28649602E-04
   17.9500008        -4.29192733E-04
   18.0000000        -1.11692898E-04
   18.0499992         2.76750681E-04
   18.1000004         5.29277953E-04
   18.1499996         4.87280515E-04
   18.2000008         1.38847099E-04
   18.2500000        -3.48173577E-04
   18.2999992        -7.04595877E-04
   18.3500004        -7.01253244E-04
   18.3999996        -2.86829629E-04
   18.4500008         3.62223189E-04
   18.5000000         9.26608453E-04
   18.5499992         1.09894550E-03
   18.6000004         7.49541679E-04
   18.6499996         6.27656527E-06
   18.7000008        -8.04091629E-04
   18.7500000        -1.31088239E-03
   18.7999992        -1.27526920E-03
   18.8500004        -7.02501566E-04
   18.8999996         1.71960783E-04
   18.9500008         9.91440029E-04
   19.0000000         1.43646437E-03
   19.0499992         1.34633703E-03
   19.1000004         7.69619655E-04
   19.1499996        -7.11624743E-05
   19.2000008        -8.75734899E-04
   19.2500000        -1.37136632E-03
   19.2999992        -1.40292710E-03
   19.3500004        -9.74074588E-04
   19.3999996        -2.38592227E-04
   19.4500008         5.53375285E-04
   19.5000000         1.14152266E-03
   19.5499992         1.34209590E-03
   19.6000004         1.10765104E-03
   19.6499996         5.37506363E-04
   19.7000008        -1.68080631E-04
   19.7500000        -7.83331459E-04
   19.7999992        -1.13205484E-03
   19.8500004        -1.13146869E-03
   19.8999996        -7.98286055E-04
   19.9500008        -2.27159850E-04
   20.0000000         4.33627371E-04
   20.0499992         1.00413489E-03
   20.1000004         1.29926996E-03
   20.1499996         1.17627706E-03
   20.2000008         6.01977401E-04
   20.2500000        -2.89860589E-04
   20.2999992        -1.19779864E-03
   20.3500004        -1.74173771E-03
   20.3999996        -1.62564311E-03
   20.4500008        -8.02594528E-04
   20.5000000         4.52371809E-04
   20.5499992         1.62516942E-03
   20.6000004         2.18359288E-03
   20.6499996         1.83648348E-03
   20.7000008         6.94797782E-04
   20.7500000        -7.59601244E-04
   20.7999992        -1.89324433E-03
   20.8500004        -2.21992913E-03
   20.8999996        -1.62667723E-03
   20.9500008        -4.12317924E-04
   21.0000000         8.73839890E-04
   21.0499992         1.70042121E-03
   21.1000004         1.78805331E-03
   21.1499996         1.19866524E-03
   21.2000008         2.56467261E-04
   21.2500000        -6.34322583E-04
   21.2999992        -1.16953184E-03
   21.3500004        -1.23964960E-03
   21.3999996        -9.17934114E-04
   21.4500008        -3.79691279E-04
   21.5000000         1.87273792E-04
   21.5499992         6.38176454E-04
   21.6000004         8.85966700E-04
   21.6499996         8.94776778E-04
   21.7000008         6.73591101E-04
   21.7500000         2.76311534E-04
   21.7999992        -2.00987866E-04
   21.8500004        -6.36560842E-04
   21.8999996        -9.13308235E-04
   21.9500008        -9.51275462E-04
   22.0000000        -7.28937797E-04
   22.0499992        -2.88343814E-04
   22.1000004         2.71551777E-04
   22.1499996         8.08435609E-04
   22.2000008         1.15967414E-03
   22.2500000         1.18256174E-03
   22.2999992         8.11685517E-04
   22.3500004         1.13336646E-04
   22.3999996        -6.99434138E-04
   22.4500008        -1.32180366E-03
   22.5000000        -1.47846097E-03
   22.5499992        -1.06171414E-03
   22.6000004        -2.10532060E-04
   22.6499996         7.27120554E-04
   22.7000008         1.34639989E-03
   22.7500000         1.38104113E-03
   22.7999992         8.37458996E-04
   22.8500004        -9.82567781E-06
   22.8999996        -7.62010575E-04
   22.9500008        -1.09916716E-03
   23.0000000        -9.29804926E-04
   23.0499992        -4.08040622E-04
   23.1000004         1.79141760E-04
   23.1499996         5.76563005E-04
   23.2000008         6.77850679E-04
   23.2500000         5.35624567E-04
   23.2999992         2.80634122E-04
   23.3500004         2.10164708E-05
   23.3999996        -2.05961085E-04
   23.4500008        -4.07626474E-04
   23.5000000        -5.71197423E-04
   23.5499992        -6.27788308E-04
   23.6000004        -4.83211654E-04
   23.6499996        -9.95708688E-05
   23.7000008         4.35434253E-04
   23.7500000         9.13900963E-04
   23.7999992         1.09884061E-03
   23.8500004         8.55526945E-04
   23.8999996         2.40262219E-04
   23.9500008        -5.10233280E-04
   24.0000000        -1.08791084E-03
   24.0499992        -1.25967071E-03
   24.1000004        -9.70278168E-04
   24.1499996        -3.53696436E-04
   24.2000008         3.44153057E-04
   24.2500000         8.77883111E-04
   24.2999992         1.09109411E-03
   24.3500004         9.51511494E-04
   24.3999996         5.34057268E-04
   24.4500008        -1.95792691E-05
   24.5000000        -5.41300338E-04
   24.5499992        -8.74890189E-04
   24.6000004        -9.14683565E-04
   24.6499996        -6.45937573E-04
   24.7000008        -1.61603501E-04
   24.7500000         3.57007026E-04
   24.7999992         7.11228524E-04
   24.8500004         7.72731437E-04
   24.8999996         5.44275215E-04
   24.9500008         1.52931156E-04
   25.0000000        -2.20685644E-04
   25.0499992        -4.41509444E-04
   25.1000004        -4.77047433E-04
   25.1499996        -3.89413239E-04
   25.2000008        -2.64170580E-04
   25.2500000        -1.40101809E-04
   25.2999992         7.34993409E-06
   25.3500004         2.19980750E-04
   25.3999996         4.82212781E-04
   25.4500008         6.85573963E-04