  -15.0000000         0.00000000    
  -14.9499998         0.00000000    
  -14.8999996         0.00000000    
  -14.8500004        -0.00000000    
  -14.8000002        -0.00000000    
  -14.7500000        -0.00000000    
  -14.6999998        -0.00000000    
  -14.6499996         0.00000000    
  -14.6000004         0.00000000    
  -14.5500002         0.00000000    
  -14.5000000         0.00000000    
  -14.4499998        -0.00000000    
  -14.3999996        -0.00000000    
  -14.3500004        -1.41605147E-38
  -14.3000002        -0.00000000    
  -14.2500000        -0.00000000    
  -14.1999998         0.00000000    
  -14.1499996         0.00000000    
  -14.1000004         0.00000000    
  -14.0500002        -0.00000000    
  -14.0000000        -0.00000000    
  -13.9499998        -0.00000000    
  -13.8999996        -0.00000000    
  -13.8500004         0.00000000    
  -13.8000002         1.24962430E-38
  -13.7500000         1.51983486E-38
  -13.6999998         0.00000000    
  -13.6499996         0.00000000    
  -13.6000004        -0.00000000    
  -13.5500002        -1.61454120E-38
  -13.5000000        -1.54067679E-38
  -13.4499998        -0.00000000    
  -13.3999996        -0.00000000    
  -13.3500004         0.00000000    
  -13.3000002         0.00000000    
  -13.2500000         0.00000000    
  -13.1999998        -0.00000000    
  -13.1499996        -0.00000000    
  -13.1000004         0.00000000    
  -13.0500002         0.00000000    
  -13.0000000         1.18929055E-38
  -12.9499998         0.00000000    
  -12.8999996        -0.00000000    
  -12.8500004        -0.00000000    
  -12.8000002        -0.00000000    
  -12.7500000         1.59532589E-38
  -12.6999998         4.23439493E-38
  -12.6499996         2.88966857E-38
  -12.6000004        -8.28992757E-38
  -12.5500002        -2.98775801E-37
  -12.5000000        -4.43754678E-37
  -12.4499998        -1.12889041E-37
  -12.3999996         1.09189786E-36
  -12.3500004         2.90355212E-36
  -12.3000002         3.60062909E-36
  -12.2500000         1.22552956E-37
  -12.1999998        -9.68157064E-36
  -12.1499996        -2.25389247E-35
  -12.1000004        -2.58222503E-35
  -12.0500002        -2.33228507E-37
  -12.0000000         6.53068386E-35
  -11.9499998         1.48687236E-34
  -11.8999996         1.76027386E-34
  -11.8500004         3.79625614E-35
  -11.8000002        -3.35937574E-34
  -11.7500000        -8.54753554E-34
  -11.6999998        -1.16198866E-33
  -11.6499996        -6.66328238E-34
  -11.6000004         1.17291286E-33
  -11.5500002         4.27158337E-33
  -11.5000000         7.22196399E-33
  -11.4499998         6.93362771E-33
  -11.3999996        -6.17793362E-34
  -11.3500004        -1.77348464E-32
  -11.3000002        -4.03753539E-32
  -11.2500000        -5.34792213E-32
  -11.1999998        -3.10883873E-32
  -11.1499996         5.20204798E-32
  -11.1000004         1.93497949E-31
  -11.0500002         3.29209794E-31
  -11.0000000         3.18003995E-31
  -10.9499998        -1.42707262E-32
  -10.8999996        -7.43008350E-31
  -10.8500004        -1.65267020E-30
  -10.8000002        -2.10383321E-30
  -10.7500000        -1.15440344E-30
  -10.6999998         1.90424348E-30
  -10.6499996         6.65683843E-30
  -10.6000004         1.07635019E-29
  -10.5500002         1.00403272E-29
  -10.5000000         1.86677378E-31
  -10.4499998        -1.97717277E-29
  -10.3999996        -4.35933761E-29
  -10.3500004        -5.61711130E-29
  -10.3000002        -3.72700757E-29
  -10.2500000         2.77186247E-29
  -10.1999998         1.32179136E-28
  -10.1499996         2.35026263E-28
  -10.1000004         2.60799635E-28
  -10.0500002         1.23453024E-28
  -10.0000000        -2.23383342E-28
  -9.94999981        -7.21710806E-28
  -9.89999962        -1.16066284E-27
  -9.85000038        -1.18914233E-27
  -9.80000019        -4.32297509E-28
  -9.75000000         1.27722349E-27
  -9.69999981         3.60939763E-27
  -9.64999962         5.53356112E-27
  -9.60000038         5.41526665E-27
  -9.55000019         1.60534292E-27
  -9.50000000        -6.46431067E-27
  -9.44999981        -1.70056533E-26
  -9.39999962        -2.51450600E-26
  -9.35000038        -2.36744137E-26
  -9.30000019        -5.93854644E-27
  -9.25000000         2.94307826E-26
  -9.19999981         7.36714364E-26
  -9.14999962         1.05987974E-25
  -9.10000038         9.78535546E-26
  -9.05000019         2.50424110E-26
  -9.00000000        -1.14870166E-25
  -8.94999981        -2.86516352E-25
  -8.89999962        -4.12547260E-25
  -8.85000038        -3.90791881E-25
  -8.80000019        -1.35792002E-25
  -8.75000000         3.63868477E-25
  -8.69999981         9.94110778E-25
  -8.64999962         1.50010115E-24
  -8.60000038         1.53538749E-24
  -8.55000019         7.86677388E-25
  -8.50000000        -8.45680485E-25
  -8.44999981        -3.06973093E-24
  -8.39999962        -5.11627612E-24
  -8.35000038        -5.84171537E-24
  -8.30000019        -4.07868028E-24
  -8.25000000         7.94609088E-25
  -8.19999981         8.22270348E-24
  -8.14999962         1.60601573E-23
  -8.10000038         2.07129630E-23
  -8.05000019         1.80810390E-23
  -8.00000000         5.27935616E-24
  -7.94999981        -1.72934498E-23
  -7.90000010        -4.43767454E-23
  -7.84999990        -6.57862222E-23
  -7.80000019        -6.86577831E-23
  -7.75000000        -4.20453365E-23
  -7.69999981         1.71754157E-23
  -7.65000010         9.92067435E-23
  -7.59999990         1.79653479E-22
  -7.55000019         2.23422271E-22
  -7.50000000         1.94775904E-22
  -7.44999981         7.17842345E-23
  -7.40000010        -1.38962973E-22
  -7.34999990        -3.93034030E-22
  -7.30000019        -6.09756916E-22
  -7.25000000        -6.88169286E-22
  -7.19999981        -5.36795839E-22
  -7.15000010        -1.11702401E-22
  -7.09999990         5.47653847E-22
  -7.05000019         1.29848767E-21
  -7.00000000         1.90414594E-21
  -6.94999981         2.08135606E-21
  -6.90000010         1.58332961E-21
  -6.84999990         3.02818231E-22
  -6.80000019        -1.63444750E-21
  -6.75000000        -3.82323889E-21
  -6.69999981        -5.61283243E-21
  -6.65000010        -6.23745921E-21
  -6.59999990        -5.03012529E-21
  -6.55000019        -1.67440470E-21
  -6.50000000         3.57543650E-21
  -6.44999981         9.78220157E-21
  -6.40000010         1.53819582E-20
  -6.34999990         1.84351788E-20
  -6.30000019         1.70553269E-20
  -6.25000000         9.95376077E-21
  -6.19999981        -2.99764397E-21
  -6.15000010        -2.03139322E-20
  -6.09999990        -3.87006789E-20
  -6.05000019        -5.32610417E-20
  -6.00000000        -5.82198860E-20
  -5.94999981        -4.81927994E-20
  -5.90000010        -1.98805929E-20
  -5.84999990         2.61190986E-20
  -5.80000019         8.38734193E-20
  -5.75000000         1.41638007E-19
  -5.69999981         1.82875067E-19
  -5.65000010         1.89051935E-19
  -5.59999990         1.44083218E-19
  -5.55000019         3.97714901E-20
  -5.50000000        -1.18886456E-19
  -5.44999981        -3.09990510E-19
  -5.40000010        -4.94156199E-19
  -5.34999990        -6.18329502E-19
  -5.30000019        -6.24617781E-19
  -5.25000000        -4.63750797E-19
  -5.19999981        -1.11468365E-19
  -5.15000010         4.15275738E-19
  -5.09999990         1.04660268E-18
  -5.05000019         1.65734487E-18
  -5.00000000         2.07828260E-18
  -4.94999981         2.12325207E-18
  -4.90000010         1.63099534E-18
  -4.84999990         5.16306441E-19
  -4.80000019        -1.17931585E-18
  -4.75000000        -3.25055428E-18
  -4.69999981        -5.31876431E-18
  -4.65000010        -6.86200871E-18
  -4.59999990        -7.29105281E-18
  -4.55000019        -6.06896005E-18
  -4.50000000        -2.86092037E-18
  -4.44999981         2.31053569E-18
  -4.40000010         8.93959317E-18
  -4.34999990         1.59803651E-17
  -4.30000019         2.18970408E-17
  -4.25000000         2.48471871E-17
  -4.19999981         2.30026984E-17
  -4.15000010         1.49826381E-17
  -4.09999990         3.37212171E-19
  -4.05000019        -2.00101227E-17
  -4.00000000        -4.34783567E-17
  -3.95000005        -6.58213620E-17
  -3.90000010        -8.14945089E-17
  -3.84999990        -8.44422365E-17
  -3.79999995        -6.92758668E-17
  -3.75000000        -3.27148311E-17
  -3.70000005         2.49358013E-17
  -3.65000010         9.85839611E-17
  -3.59999990         1.77780463E-16
  -3.54999995         2.47119454E-16
  -3.50000000         2.87850992E-16
  -3.45000005         2.80767043E-16
  -3.40000010         2.10169388E-16
  -3.34999990         6.84343329E-17
  -3.29999995        -1.39591890E-16
  -3.25000000        -3.93349369E-16
  -3.20000005        -6.55524833E-16
  -3.15000010        -8.74152242E-16
  -3.09999990        -9.88431651E-16
  -3.04999995        -9.38281160E-16
  -3.00000000        -6.76856299E-16
  -2.95000005        -1.84470898E-16
  -2.90000010         5.18460556E-16
  -2.84999990         1.36233571E-15
  -2.79999995         2.22616204E-15
  -2.75000000         2.94481317E-15
  -2.70000005         3.32725087E-15
  -2.65000010         3.18555645E-15
  -2.59999990         2.37243658E-15
  -2.54999995         8.22570424E-16
  -2.50000000        -1.40893237E-15
  -2.45000005        -4.11916908E-15
  -2.40000010        -6.94962496E-15
  -2.34999990        -9.40524124E-15
  -2.29999995        -1.09046276E-14
  -2.25000000        -1.08614823E-14
  -2.20000005        -8.79117793E-15
  -2.15000010        -4.43043844E-15
  -2.09999990         2.14781467E-15
  -2.04999995         1.04465175E-14
  -2.00000000         1.95069994E-14
  -1.95000005         2.79427818E-14
  -1.89999998         3.40589068E-14
  -1.85000002         3.60598663E-14
  -1.79999995         3.23346357E-14
  -1.75000000         2.17905866E-14
  -1.70000005         4.19268646E-15
  -1.64999998        -1.95492494E-14
  -1.60000002        -4.72073010E-14
  -1.54999995        -7.52370713E-14
  -1.50000000        -9.90011499E-14
  -1.45000005        -1.13235661E-13
  -1.39999998        -1.12748576E-13
  -1.35000002        -9.32973249E-14
  -1.29999995        -5.25475456E-14
  -1.25000000         9.01762795E-15
  -1.20000005         8.73988382E-14
  -1.14999998         1.74756693E-13
  -1.10000002         2.59614297E-13
  -1.04999995         3.27686690E-13
  -1.00000000         3.63373367E-13
 -0.949999988         3.51851008E-13
 -0.899999976         2.81603977E-13
 -0.850000024         1.47121220E-13
 -0.800000012        -4.86024862E-14
 -0.750000000        -2.92174352E-13
 -0.699999988        -5.58947311E-13
 -0.649999976        -8.13577883E-13
 -0.600000024        -1.01225018E-12
 -0.550000012        -1.10668083E-12
 -0.500000000        -1.04972411E-12
 -0.449999988        -8.02264722E-13
 -0.400000006        -3.40702699E-13
 -0.349999994         3.35773239E-13
 -0.300000012         1.19906819E-12
 -0.250000000         2.18828232E-12
 -0.200000003         3.20886243E-12
 -0.150000006         4.13557123E-12
 -0.100000001         4.81947295E-12
  -5.00000007E-02     5.09889613E-12
   0.00000000         4.81365208E-12
   5.00000007E-02     3.82136597E-12
  0.100000001         2.01434897E-12
  0.150000006        -6.65163020E-13
  0.200000003        -4.21291691E-12
  0.250000000        -8.55632579E-12
  0.300000012        -1.35547251E-11
  0.349999994        -1.90076010E-11
  0.400000006        -2.46707377E-11
  0.449999988        -3.02796295E-11
  0.500000000        -3.55777977E-11
  0.550000012        -4.03487105E-11
  0.600000024        -4.44468282E-11
  0.649999976        -4.78253964E-11
  0.699999988        -5.05573049E-11
  0.750000000        -5.28463731E-11
  0.800000012        -5.50274375E-11
  0.850000024        -5.75539547E-11
  0.899999976        -6.09761339E-11
  0.949999988        -6.59079250E-11
   1.00000000        -7.29906482E-11
   1.04999995        -8.28539112E-11
   1.10000002        -9.60824822E-11
   1.14999998        -1.13187487E-10
   1.20000005        -1.34593919E-10
   1.25000000        -1.60642180E-10
   1.29999995        -1.91602026E-10
   1.35000002        -2.27709032E-10
   1.39999998        -2.69208128E-10
   1.45000005        -3.16410065E-10
   1.50000000        -3.69751924E-10
   1.54999995        -4.29850627E-10
   1.60000002        -4.97564323E-10
   1.64999998        -5.74033765E-10
   1.70000005        -6.60700383E-10
   1.75000000        -7.59343144E-10
   1.79999995        -8.72064421E-10
   1.85000002        -1.00129560E-09
   1.89999998        -1.14978638E-09
   1.95000005        -1.32059175E-09
   2.00000000        -1.51706747E-09
   2.04999995        -1.74291392E-09
   2.09999990        -2.00218797E-09
   2.15000010        -2.29936759E-09
   2.20000005        -2.63942646E-09
   2.25000000        -3.02792835E-09
   2.29999995        -3.47119444E-09
   2.34999990        -3.97638367E-09
   2.40000010        -4.55171811E-09
   2.45000005        -5.20655874E-09
   2.50000000        -5.95161431E-09
   2.54999995        -6.79909595E-09
   2.59999990        -7.76287123E-09
   2.65000010        -8.85859297E-09
   2.70000005        -1.01039550E-08
   2.75000000        -1.15187797E-08
   2.79999995        -1.31252857E-08
   2.84999990        -1.49483110E-08
   2.90000010        -1.70156031E-08
   2.95000005        -1.93581222E-08
   3.00000000        -2.20104983E-08
   3.04999995        -2.50114596E-08
   3.09999990        -2.84042248E-08
   3.15000010        -3.22374589E-08
   3.20000005        -3.65655026E-08
   3.25000000        -4.14491836E-08
   3.29999995        -4.69569201E-08
   3.34999990        -5.31649746E-08
   3.40000010        -6.01591381E-08
   3.45000005        -6.80348293E-08
   3.50000000        -7.68983597E-08
   3.54999995        -8.68686953E-08
   3.59999990        -9.80776562E-08
   3.65000010        -1.10671714E-07
   3.70000005        -1.24814292E-07
   3.75000000        -1.40685472E-07
   3.79999995        -1.58485989E-07
   3.84999990        -1.78437020E-07
   3.90000010        -2.00784399E-07
   3.95000005        -2.25799823E-07
   4.00000000        -2.53784378E-07
   4.05000019        -2.85070371E-07
   4.09999990        -3.20026743E-07
   4.15000010        -3.59060323E-07
   4.19999981        -4.02620628E-07
   4.25000000        -4.51206120E-07
   4.30000019        -5.05360447E-07
   4.34999990        -5.65690698E-07
   4.40000010        -6.32859610E-07
   4.44999981        -7.07596598E-07
   4.50000000        -7.90708157E-07
   4.55000019        -8.83073255E-07
   4.59999990        -9.85660563E-07
   4.65000010        -1.09953351E-06
   4.69999981        -1.22585766E-06
   4.75000000        -1.36590609E-06
   4.80000019        -1.52108055E-06
   4.84999990        -1.69290274E-06
   4.90000010        -1.88303341E-06
   4.94999981        -2.09330733E-06
   5.00000000        -2.32570665E-06
   5.05000019        -2.58240289E-06
   5.09999990        -2.86576756E-06
   5.15000010        -3.17837294E-06
   5.19999981        -3.52303823E-06
   5.25000000        -3.90280229E-06
   5.30000019        -4.32098250E-06
   5.34999990        -4.78118682E-06
   5.40000010        -5.28733608E-06
   5.44999981        -5.84366353E-06
   5.50000000        -6.45476121E-06
   5.55000019        -7.12557994E-06
   5.59999990        -7.86152941E-06
   5.65000010        -8.66839036E-06
   5.69999981        -9.55247742E-06
   5.75000000        -1.05205518E-05
   5.80000019        -1.15799367E-05
   5.84999990        -1.27385165E-05
   5.90000010        -1.40048041E-05
   5.94999981        -1.53879155E-05
   6.00000000        -1.68976931E-05
   6.05000019        -1.85446115E-05
   6.09999990        -2.03399923E-05
   6.15000010        -2.22960298E-05
   6.19999981        -2.44257444E-05
   6.25000000        -2.67431242E-05
   6.30000019        -2.92630357E-05
   6.34999990        -3.20014151E-05
   6.40000010        -3.49752045E-05
   6.44999981        -3.82025210E-05
   6.50000000        -4.17029587E-05
   6.55000019        -4.54969850E-05
   6.59999990        -4.96065586E-05
   6.65000010        -5.40550209E-05
   6.69999981        -5.88672810E-05
   6.75000000        -6.40695798E-05
   6.80000019        -6.96898715E-05
   6.84999990        -7.57577072E-05
   6.90000010        -8.23043010E-05
   6.94999981        -8.93627002E-05
   7.00000000        -9.69680405E-05
   7.05000019        -1.05157102E-04
   7.09999990        -1.13969276E-04
   7.15000010        -1.23445221E-04
   7.19999981        -1.33627735E-04
   7.25000000        -1.44562393E-04
   7.30000019        -1.56296330E-04
   7.34999990        -1.68880171E-04
   7.40000010        -1.82366261E-04
   7.44999981        -1.96809182E-04
   7.50000000        -2.12265892E-04
   7.55000019        -2.28796183E-04
   7.59999990        -2.46461568E-04
   7.65000010        -2.65327981E-04
   7.69999981        -2.85464019E-04
   7.75000000        -3.06937436E-04
   7.80000019        -3.29823233E-04
   7.84999990        -3.54196265E-04
   7.90000010        -3.80132551E-04
   7.94999981        -4.07714484E-04
   8.00000000        -4.37023991E-04
   8.05000019        -4.68148472E-04
   8.10000038        -5.01175353E-04
   8.14999962        -5.36198437E-04
   8.19999981        -5.73307276E-04
   8.25000000        -6.12597796E-04
   8.30000019        -6.54167088E-04
   8.35000038        -6.98116142E-04
   8.39999962        -7.44546007E-04
   8.44999981        -7.93558196E-04
   8.50000000        -8.45257018E-04
   8.55000019        -8.99747829E-04
   8.60000038        -9.57134354E-04
   8.64999962        -1.01752486E-03
   8.69999981        -1.08103082E-03
   8.75000000        -1.14775996E-03
   8.80000019        -1.21781533E-03
   8.85000038        -1.29130657E-03
   8.89999962        -1.36833964E-03
   8.94999981        -1.44901848E-03
   9.00000000        -1.53344159E-03
   9.05000019        -1.62171805E-03
   9.10000038        -1.71394355E-03
   9.14999962        -1.81021146E-03
   9.19999981        -1.91061373E-03
   9.25000000        -2.01523467E-03
   9.30000019        -2.12415797E-03
   9.35000038        -2.23745592E-03
   9.39999962        -2.35519884E-03
   9.44999981        -2.47746357E-03
   9.50000000        -2.60429876E-03
   9.55000019        -2.73574539E-03
   9.60000038        -2.87185749E-03
   9.64999962        -3.01265507E-03
   9.69999981        -3.15816095E-03
   9.75000000        -3.30838491E-03
   9.80000019        -3.46332765E-03
   9.85000038        -3.62295727E-03
   9.89999962        -3.78725794E-03
   9.94999981        -3.95618612E-03
   10.0000000        -4.12968174E-03
   10.0500002        -4.30768868E-03
   10.1000004        -4.49010869E-03
   10.1499996        -4.67683841E-03
   10.1999998        -4.86775488E-03
   10.2500000        -5.06273890E-03
   10.3000002        -5.26161818E-03
   10.3500004        -5.46421716E-03
   10.3999996        -5.67033794E-03
   10.4499998        -5.87975839E-03
   10.5000000        -6.09224895E-03
   10.5500002        -6.30754093E-03
   10.6000004        -6.52538380E-03
   10.6499996        -6.74544740E-03
   10.6999998        -6.96737645E-03
   10.7500000        -7.19087571E-03
   10.8000002        -7.41553726E-03
   10.8500004        -7.64101604E-03
   10.8999996        -7.86687341E-03
   10.9499998        -8.09269957E-03
   11.0000000        -8.31801817E-03
   11.0500002        -8.54237471E-03
   11.1000004        -8.76526535E-03
   11.1499996        -8.98614898E-03
   11.1999998        -9.20449104E-03
   11.2500000        -9.41972621E-03
   11.3000002        -9.63126495E-03
   11.3500004        -9.83859506E-03
   11.3999996        -1.00410962E-02
   11.4499998        -1.02381390E-02
   11.5000000        -1.04290675E-02
   11.5500002        -1.06132058E-02
   11.6000004        -1.07898815E-02
   11.6499996        -1.09584071E-02
   11.6999998        -1.11181606E-02
   11.7500000        -1.12684462E-02
   11.8000002        -1.14086214E-02
   11.8500004        -1.15379142E-02
   11.8999996        -1.16557050E-02
   11.9499998        -1.17612686E-02
   12.0000000        -1.18539315E-02
   12.0500002        -1.19331051E-02
   12.1000004        -1.19981235E-02
   12.1499996        -1.20482808E-02
   12.1999998        -1.20829260E-02
   12.2500000        -1.21015161E-02
   12.3000002        -1.21034021E-02
   12.3500004        -1.20879402E-02
   12.3999996        -1.20546753E-02
   12.4499998        -1.20030809E-02
   12.5000000        -1.19326981E-02
   12.5500002        -1.18429940E-02
   12.6000004        -1.17335767E-02
   12.6499996        -1.16040418E-02
   12.6999998        -1.14539973E-02
   12.7500000        -1.12831471E-02
   12.8000002        -1.10912900E-02
   12.8500004        -1.08781103E-02
   12.8999996        -1.06436042E-02
   12.9499998        -1.03875939E-02
   13.0000000        -1.01101184E-02
   13.0500002        -9.81115829E-03
   13.1000004        -9.49069392E-03
   13.1499996        -9.14884917E-03
   13.1999998        -8.78571998E-03
   13.2500000        -8.40164721E-03
   13.3000002        -7.99696892E-03
   13.3500004        -7.57191749E-03
   13.3999996        -7.12701259E-03
   13.4499998        -6.66270126E-03
   13.5000000        -6.17941795E-03
   13.5500002        -5.67772379E-03
   13.6000004        -5.15825860E-03
   13.6499996        -4.62181680E-03
   13.6999998        -4.06925008E-03
   13.7500000        -3.50146438E-03
   13.8000002        -2.91940453E-03
   13.8500004        -2.32383586E-03
   13.8999996        -1.71585020E-03
   13.9499998        -1.09629077E-03
   14.0000000        -4.66363388E-04
   14.0500002         1.72766799E-04
   14.1000004         8.19935638E-04
   14.1499996         1.47382845E-03
   14.1999998         2.13303859E-03
   14.2500000         2.79636751E-03
   14.3000002         3.46245337E-03
   14.3500004         4.13000584E-03
   14.3999996         4.79780557E-03
   14.4499998         5.46435174E-03
   14.5000000         6.12840569E-03
   14.5500002         6.78846845E-03
   14.6000004         7.44319661E-03
   14.6499996         8.09117127E-03
   14.6999998         8.73090420E-03
   14.7500000         9.36086103E-03
   14.8000002         9.97957401E-03
   14.8500004         1.05856936E-02
   14.8999996         1.11778378E-02
   14.9499998         1.17549421E-02
   15.0000000         1.23157799E-02
   15.0500002         1.28591517E-02
   15.1000004         1.33837201E-02
   15.1499996         1.38881244E-02
   15.1999998         1.43710617E-02
   15.2500000         1.48313837E-02
   15.3000002         1.52682019E-02
   15.3500004         1.56807303E-02
   15.3999996         1.60683244E-02
   15.4499998         1.64302364E-02
   15.5000000         1.67657956E-02
   15.5500002         1.70741994E-02
   15.6000004         1.73545871E-02
   15.6499996         1.76062677E-02
   15.6999998         1.78285688E-02
   15.7500000         1.80210713E-02
   15.8000002         1.81835406E-02
   15.8500004         1.83159038E-02
   15.8999996         1.84181910E-02
   15.9499998         1.84904616E-02
   16.0000000         1.85327195E-02
   16.0499992         1.85449440E-02
   16.1000004         1.85271278E-02
   16.1499996         1.84792895E-02
   16.2000008         1.84016991E-02
   16.2500000         1.82947777E-02
   16.2999992         1.81591231E-02
   16.3500004         1.79955270E-02
   16.3999996         1.78047940E-02
   16.4500008         1.75876990E-02
   16.5000000         1.73449218E-02
   16.5499992         1.70770772E-02
   16.6000004         1.67848300E-02
   16.6499996         1.64688155E-02
   16.7000008         1.61298849E-02
   16.7500000         1.57690626E-02
   16.7999992         1.53875398E-02
   16.8500004         1.49867740E-02
   16.8999996         1.45681482E-02
   16.9500008         1.41330548E-02
   17.0000000         1.36827463E-02
   17.0499992         1.32183107E-02
   17.1000004         1.27405617E-02
   17.1499996         1.22504262E-02
   17.2000008         1.17488895E-02
   17.2500000         1.12371370E-02
   17.2999992         1.07168378E-02
   17.3500004         1.01896832E-02
   17.3999996         9.65734199E-03
   17.4500008         9.12119728E-03
   17.5000000         8.58237874E-03
   17.5499992         8.04172922E-03
   17.6000004         7.49990996E-03
   17.6499996         6.95795286E-03
   17.7000008         6.41703792E-03
   17.7500000         5.87842939E-03
   17.7999992         5.34382183E-03
   17.8500004         4.81460290E-03
   17.8999996         4.29198705E-03
   17.9500008         3.77679453E-03
   18.0000000         3.26960371E-03
   18.0499992         2.77094543E-03
   18.1000004         2.28142319E-03
   18.1499996         1.80167193E-03
   18.2000008         1.33260142E-03
   18.2500000         8.75185186E-04
   18.2999992         4.30350483E-04
   18.3500004        -1.13635042E-06
   18.3999996        -4.18514304E-04
   18.4500008        -8.21516733E-04
   18.5000000        -1.20987173E-03
   18.5499992        -1.58353476E-03
   18.6000004        -1.94227160E-03
   18.6499996        -2.28588213E-03
   18.7000008        -2.61398847E-03
   18.7500000        -2.92604952E-03
   18.7999992        -3.22171114E-03
   18.8500004        -3.50076915E-03
   18.8999996        -3.76305729E-03
   18.9500008        -4.00875742E-03
   19.0000000        -4.23815567E-03
   19.0499992        -4.45170514E-03
   19.1000004        -4.64990549E-03
   19.1499996        -4.83291270E-03
   19.2000008        -5.00089442E-03
   19.2500000        -5.15384274E-03
   19.2999992        -5.29167522E-03
   19.3500004        -5.41432854E-03
   19.3999996        -5.52199455E-03
   19.4500008        -5.61507139E-03
   19.5000000        -5.69425384E-03
   19.5499992        -5.76025667E-03
   19.6000004        -5.81382774E-03
   19.6499996        -5.85538521E-03
   19.7000008        -5.88529976E-03
   19.7500000        -5.90354437E-03
   19.7999992        -5.91019588E-03
   19.8500004        -5.90553554E-03
   19.8999996        -5.89012215E-03
   19.9500008        -5.86491264E-03
   20.0000000        -5.83096594E-03
   20.0499992        -5.78914629E-03
   20.1000004        -5.74001297E-03
   20.1499996        -5.68373688E-03
   20.2000008        -5.62033616E-03
   20.2500000        -5.54986252E-03
   20.2999992        -5.47261070E-03
   20.3500004        -5.38919820E-03
   20.3999996        -5.30045852E-03
   20.4500008        -5.20727830E-03
   20.5000000        -5.11035789E-03
   20.5499992        -5.01012756E-03
   20.6000004        -4.90681035E-03
   20.6499996        -4.80042072E-03
   20.7000008        -4.69098892E-03
   20.7500000        -4.57873149E-03
   20.7999992        -4.46399674E-03
   20.8500004        -4.34729224E-03
   20.8999996        -4.22925316E-03
   20.9500008        -4.11049929E-03
   21.0000000        -3.99159966E-03
   21.0499992        -3.87301273E-03
   21.1000004        -3.75502836E-03
   21.1499996        -3.63778626E-03
   21.2000008        -3.52127943E-03
   21.2500000        -3.40548158E-03
   21.2999992        -3.29032238E-03
   21.3500004        -3.17592756E-03
   21.3999996        -3.06250062E-03
   21.4500008        -2.95037380E-03
   21.5000000        -2.83991080E-03
   21.5499992        -2.73145759E-03
   21.6000004        -2.62526469E-03
   21.6499996        -2.52144504E-03
   21.7000008        -2.41996604E-03
   21.7500000        -2.32072594E-03
   21.7999992        -2.22362112E-03
   21.8500004        -2.12862156E-03
   21.8999996        -2.03584251E-03
   21.9500008        -1.94552378E-03
   22.0000000        -1.85797852E-03
   22.0499992        -1.77343306E-03
   22.1000004        -1.69192813E-03
   22.1499996        -1.61326933E-03
   22.2000008        -1.53708714E-03
   22.2500000        -1.46299892E-03
   22.2999992        -1.39077974E-03
   22.3500004        -1.32047629E-03
   22.3999996        -1.25240639E-03
   22.4500008        -1.18701032E-03
   22.5000000        -1.12466840E-03
   22.5499992        -1.06555910E-03
   22.6000004        -1.00958406E-03
   22.6499996        -9.56452743E-04
   22.7000008        -9.05776280E-04
   22.7500000        -8.57192557E-04
   22.7999992        -8.10411992E-04
   22.8500004        -7.65225908E-04
   22.8999996        -7.21508870E-04
   22.9500008        -6.79210469E-04
   23.0000000        -6.38402300E-04
   23.0499992        -5.99292573E-04
   23.1000004        -5.62193978E-04
   23.1499996        -5.27411699E-04
   23.2000008        -4.95099055E-04
   23.2500000        -4.65156278E-04
   23.2999992        -4.37230483E-04
   23.3500004        -4.10836306E-04
   23.3999996        -3.85543623E-04
   23.4500008        -3.61145940E-04
   23.5000000        -3.37713020E-04
   23.5499992        -3.15510435E-04
   23.6000004        -2.94823520E-04
   23.6499996        -2.75781262E-04
   23.7000008        -2.58263404E-04
   23.7500000        -2.41926187E-04
   23.7999992        -2.26331307E-04
   23.8500004        -2.11112245E-04
   23.8999996        -1.96104331E-04
   23.9500008        -1.81397059E-04
   24.0000000        -1.67299164E-04
   24.0499992        -1.54229623E-04
   24.1000004        -1.42579825E-04
   24.1499996        -1.32572488E-04
   24.2000008        -1.24166079E-04
   24.2500000        -1.17033524E-04
   24.2999992        -1.10636494E-04
   24.3500004        -1.04384184E-04
   24.3999996        -9.78323442E-05
   24.4500008        -9.08474758E-05
   24.5000000        -8.36646213E-05
   24.5499992        -7.67978490E-05
   24.6000004        -7.08321750E-05
   24.6499996        -6.61759550E-05
   24.7000008        -6.28777489E-05
   24.7500000        -6.05904534E-05
   24.7999992        -5.86988644E-05
   24.8500004        -5.65611517E-05
   24.8999996        -5.37645901E-05
   24.9500008        -5.02935982E-05
   25.0000000        -4.65439043E-05
   25.0499992        -4.31776025E-05
   25.1000004        -4.08723427E-05
   25.1499996        -4.00572135E-05
   25.2000008        -4.07328444E-05
   25.2500000        -4.24477112E-05
   25.2999992        -4.44484212E-05
   25.3500004        -4.59574912E-05
   25.3999996        -4.64774639E-05
   25.4500008        -4.60008487E-05