  -15.0000000         1.76138831E-36
  -14.9499998        -9.60736774E-37
  -14.8999996        -7.65183040E-37
  -14.8500004         2.08615612E-36
  -14.8000002         2.63725066E-37
  -14.7500000        -5.52112133E-37
  -14.6999998        -1.63482411E-36
  -14.6499996         2.65699664E-37
  -14.6000004         4.66212134E-37
  -14.5500002        -2.32213765E-37
  -14.5000000        -1.13710855E-36
  -14.4499998        -6.95794462E-37
  -14.3999996         2.88353700E-36
  -14.3500004         2.19104158E-36
  -14.3000002         4.27373127E-36
  -14.2500000         2.84248223E-36
  -14.1999998         2.33696657E-36
  -14.1499996        -1.80175558E-36
  -14.1000004        -4.87922278E-36
  -14.0500002        -6.34479605E-36
  -14.0000000        -4.60526745E-36
  -13.9499998        -9.66056327E-37
  -13.8999996         3.19366978E-36
  -13.8500004         3.90449661E-36
  -13.8000002         4.45636337E-36
  -13.7500000         2.59298635E-36
  -13.6999998        -1.29323335E-37
  -13.6499996        -2.19481903E-36
  -13.6000004        -4.10416456E-36
  -13.5500002        -2.94688359E-36
  -13.5000000        -1.00221010E-36
  -13.4499998         5.28537898E-37
  -13.3999996         4.06681441E-36
  -13.3500004         3.48955586E-36
  -13.3000002         4.21092762E-36
  -13.2500000         2.62220690E-36
  -13.1999998         5.09322834E-38
  -13.1499996        -2.15981966E-36
  -13.1000004        -3.50576195E-36
  -13.0500002        -4.33156933E-36
  -13.0000000        -4.36984070E-36
  -12.9499998        -3.27375248E-36
  -12.8999996        -2.26336096E-36
  -12.8500004         1.05813092E-36
  -12.8000002         4.04852875E-36
  -12.7500000         7.40996153E-36
  -12.6999998         8.22148383E-36
  -12.6499996         5.59214138E-36
  -12.6000004         9.53688669E-37
  -12.5500002        -5.35205828E-36
  -12.5000000        -9.82680489E-36
  -12.4499998        -1.08704902E-35
  -12.3999996        -7.63480998E-36
  -12.3500004        -7.02041742E-37
  -12.3000002         5.19995215E-36
  -12.2500000         1.05075635E-35
  -12.1999998         1.06092749E-35
  -12.1499996         6.69592978E-36
  -12.1000004         5.12298576E-38
  -12.0500002        -6.16520743E-36
  -12.0000000        -9.02214299E-36
  -11.9499998        -8.19690922E-36
  -11.8999996        -3.68155948E-36
  -11.8500004         2.37182872E-36
  -11.8000002         6.92937633E-36
  -11.7500000         8.31065394E-36
  -11.6999998         5.63732731E-36
  -11.6499996         6.43132141E-37
  -11.6000004        -5.08396715E-36
  -11.5500002        -8.68136084E-36
  -11.5000000        -8.56514015E-36
  -11.4499998        -4.81107582E-36
  -11.3999996         1.46952470E-36
  -11.3500004         7.52194416E-36
  -11.3000002         1.10429300E-35
  -11.2500000         1.03975819E-35
  -11.1999998         5.19068825E-36
  -11.1499996        -2.94189721E-36
  -11.1000004        -1.02272708E-35
  -11.0500002        -1.22775750E-35
  -11.0000000        -6.31549120E-36
  -10.9499998         5.24311053E-36
  -10.8999996         1.28814092E-35
  -10.8500004         4.56452370E-36
  -10.8000002        -2.27969925E-35
  -10.7500000        -5.09117164E-35
  -10.6999998        -4.26497762E-35
  -10.6499996         3.27320563E-35
  -10.6000004         1.53902034E-34
  -10.5500002         2.23765084E-34
  -10.5000000         1.13804349E-34
  -10.4499998        -2.17628958E-34
  -10.3999996        -5.99763299E-34
  -10.3500004        -6.64278562E-34
  -10.3000002        -1.02800781E-34
  -10.2500000         9.44600812E-34
  -10.1999998         1.70691992E-33
  -10.1499996         1.19957619E-33
  -10.1000004        -7.86252723E-34
  -10.0500002        -2.86970607E-33
  -10.0000000        -2.59666610E-33
  -9.94999981         1.23967781E-33
  -9.89999962         5.88959551E-33
  -9.85000038         4.75062854E-33
  -9.80000019        -7.17792409E-33
  -9.75000000        -2.44275499E-32
  -9.69999981        -2.70155139E-32
  -9.64999962         8.63673021E-33
  -9.60000038         8.24809004E-32
  -9.55000019         1.44709479E-31
  -9.50000000         1.03487937E-31
  -9.44999981        -1.09540063E-31
  -9.39999962        -4.36513103E-31
  -9.35000038        -6.34592083E-31
  -9.30000019        -3.65296530E-31
  -9.25000000         5.34618357E-31
  -9.19999981         1.73219493E-30
  -9.14999962         2.31646810E-30
  -9.10000038         1.22732895E-30
  -9.05000019        -1.84137090E-30
  -9.00000000        -5.59671631E-30
  -8.94999981        -7.21017014E-30
  -8.89999962        -3.84537116E-30
  -8.85000038         4.82216145E-30
  -8.80000019         1.47987449E-29
  -8.75000000         1.87538451E-29
  -8.69999981         1.04850808E-29
  -8.64999962        -9.27407039E-30
  -8.60000038        -3.02650351E-29
  -8.55000019        -3.72863077E-29
  -8.50000000        -2.11928714E-29
  -8.44999981         1.10005206E-29
  -8.39999962         3.70652139E-29
  -8.35000038         3.59879962E-29
  -8.30000019         1.06886810E-29
  -8.25000000        -4.12256176E-30
  -8.19999981         3.28218185E-29
  -8.14999962         1.17532463E-28
  -8.10000038         1.62688370E-28
  -8.05000019         2.86606061E-29
  -8.00000000        -3.55594894E-28
  -7.94999981        -8.40965592E-28
  -7.90000010        -1.01288652E-27
  -7.84999990        -3.82856721E-28
  -7.80000019         1.19139288E-27
  -7.75000000         3.09260939E-27
  -7.69999981         3.92891172E-27
  -7.65000010         2.20308956E-27
  -7.59999990        -2.47808520E-27
  -7.55000019        -8.36358806E-27
  -7.50000000        -1.16688251E-26
  -7.44999981        -8.40672735E-27
  -7.40000010         2.62125633E-27
  -7.34999990         1.74746357E-26
  -7.30000019         2.75392421E-26
  -7.25000000         2.37675841E-26
  -7.19999981         3.07432730E-27
  -7.15000010        -2.71181536E-26
  -7.09999990        -5.03919786E-26
  -7.05000019        -4.99672756E-26
  -7.00000000        -2.03765206E-26
  -6.94999981         2.58182079E-26
  -6.90000010         6.29586684E-26
  -6.84999990         6.84321366E-26
  -6.80000019         4.00663440E-26
  -6.75000000         5.92430881E-28
  -6.69999981        -1.87593126E-26
  -6.65000010        -7.45673467E-27
  -6.59999990         5.58735542E-27
  -6.55000019        -3.29425140E-26
  -6.50000000        -1.49876497E-25
  -6.44999981        -2.90470813E-25
  -6.40000010        -3.12376790E-25
  -6.34999990        -6.50091459E-26
  -6.30000019         4.68267094E-25
  -6.25000000         1.05738492E-24
  -6.19999981         1.26005551E-24
  -6.15000010         6.58676669E-25
  -6.09999990        -7.87513284E-25
  -6.05000019        -2.49894924E-24
  -6.00000000        -3.38988559E-24
  -5.94999981        -2.42336256E-24
  -5.90000010         6.11063885E-25
  -5.84999990         4.58044867E-24
  -5.80000019         7.23921166E-24
  -5.75000000         6.33559397E-24
  -5.69999981         1.13464102E-24
  -5.65000010        -6.56297839E-24
  -5.59999990        -1.27876285E-23
  -5.55000019        -1.33155224E-23
  -5.50000000        -6.30274304E-24
  -5.44999981         5.96771224E-24
  -5.40000010         1.76126024E-23
  -5.34999990         2.20976837E-23
  -5.30000019         1.61303990E-23
  -5.25000000         2.03320576E-24
  -5.19999981        -1.32968674E-23
  -5.15000010        -2.25825350E-23
  -5.09999990        -2.29540190E-23
  -5.05000019        -1.77105647E-23
  -5.00000000        -1.31245968E-23
  -4.94999981        -1.19580656E-23
  -4.90000010        -8.54424555E-24
  -4.84999990         9.25107123E-24
  -4.80000019         4.98948653E-23
  -4.75000000         1.05291083E-22
  -4.69999981         1.44613779E-22
  -4.65000010         1.23926401E-22
  -4.59999990         1.16849296E-23
  -4.55000019        -1.81410392E-22
  -4.50000000        -3.87128933E-22
  -4.44999981        -4.95009234E-22
  -4.40000010        -4.00468659E-22
  -4.34999990        -6.61732562E-23
  -4.30000019         4.34418153E-22
  -4.25000000         9.21655705E-22
  -4.19999981         1.16986633E-21
  -4.15000010         1.00349590E-21
  -4.09999990         3.86486888E-22
  -4.05000019        -5.40998436E-22
  -4.00000000        -1.49558799E-21
  -3.95000005        -2.14618513E-21
  -3.90000010        -2.22644548E-21
  -3.84999990        -1.62200849E-21
  -3.79999995        -4.02419758E-22
  -3.75000000         1.20085966E-21
  -3.70000005         2.84373507E-21
  -3.65000010         4.12447359E-21
  -3.59999990         4.63429554E-21
  -3.54999995         4.01939419E-21
  -3.50000000         2.07711756E-21
  -3.45000005        -1.12872056E-21
  -3.40000010        -5.14495072E-21
  -3.34999990        -9.07849625E-21
  -3.29999995        -1.16661563E-20
  -3.25000000        -1.15485343E-20
  -3.20000005        -7.71012060E-21
  -3.15000010         1.32038458E-23
  -3.09999990         1.05035968E-20
  -3.04999995         2.12496932E-20
  -3.00000000         2.86932992E-20
  -2.95000005         2.91817849E-20
  -2.90000010         2.02727945E-20
  -2.84999990         2.07387670E-21
  -2.79999995        -2.19981107E-20
  -2.75000000        -4.55378017E-20
  -2.70000005        -6.07075477E-20
  -2.65000010        -6.07368609E-20
  -2.59999990        -4.24944265E-20
  -2.54999995        -8.16285658E-21
  -2.50000000         3.51016936E-20
  -2.45000005         7.66368491E-20
  -2.40000010         1.05455175E-19
  -2.34999990         1.12462235E-19
  -2.29999995         9.26874940E-20
  -2.25000000         4.58724479E-20
  -2.20000005        -2.32732936E-20
  -2.15000010        -1.04400300E-19
  -2.09999990        -1.81100403E-19
  -2.04999995        -2.31083037E-19
  -2.00000000        -2.29694950E-19
  -1.95000005        -1.57835056E-19
  -1.89999998        -1.26537074E-20
  -1.85000002         1.83855199E-19
  -1.79999995         3.81252326E-19
  -1.75000000         5.08434680E-19
  -1.70000005         4.99834070E-19
  -1.64999998         3.16979230E-19
  -1.60000002        -2.76938777E-20
  -1.54999995        -4.56932296E-19
  -1.50000000        -8.45896298E-19
  -1.45000005        -1.05280664E-18
  -1.39999998        -9.60028507E-19
  -1.35000002        -5.20577175E-19
  -1.29999995         2.11452219E-19
  -1.25000000         1.08572543E-18
  -1.20000005         1.87168535E-18
  -1.14999998         2.30419804E-18
  -1.10000002         2.15061355E-18
  -1.04999995         1.27703658E-18
  -1.00000000        -2.78255467E-19
 -0.949999988        -2.28287973E-18
 -0.899999976        -4.30024524E-18
 -0.850000024        -5.74196604E-18
 -0.800000012        -5.95537037E-18
 -0.750000000        -4.46575498E-18
 -0.699999988        -1.09546051E-18
 -0.649999976         3.76020011E-18
 -0.600000024         9.23684714E-18
 -0.550000012         1.39780173E-17
 -0.500000000         1.63594769E-17
 -0.449999988         1.49290781E-17
 -0.400000006         8.95062941E-18
 -0.349999994        -1.45964632E-18
 -0.300000012        -1.49058525E-17
 -0.250000000        -2.87003416E-17
 -0.200000003        -3.93332951E-17
 -0.150000006        -4.29108810E-17
 -0.100000001        -3.63339349E-17
  -5.00000007E-02    -1.85093822E-17
   0.00000000         9.55195498E-18
   5.00000007E-02     4.33590409E-17
  0.100000001         7.62145688E-17
  0.150000006         9.93635094E-17
  0.200000003         1.04440162E-16
  0.250000000         8.52933061E-17
  0.300000012         4.06808352E-17
  0.349999994        -2.59215789E-17
  0.400000006        -1.03204618E-16
  0.449999988        -1.76878955E-16
  0.500000000        -2.26835979E-16
  0.550000012        -2.35982876E-16
  0.600000024        -1.92553221E-16
  0.649999976        -9.40523349E-17
  0.699999988         4.77099910E-17
  0.750000000         2.11620554E-16
  0.800000012         3.61968333E-16
  0.850000024         4.65109815E-16
  0.899999976         4.84562932E-16
  0.949999988         3.98007918E-16
   1.00000000         2.03072060E-16
   1.04999995        -7.40827787E-17
   1.10000002        -3.86450338E-16
   1.14999998        -6.65852494E-16
   1.20000005        -8.44106184E-16
   1.25000000        -8.57247265E-16
   1.29999995        -6.86383143E-16
   1.35000002        -3.26135240E-16
   1.39999998         1.60502685E-16
   1.45000005         6.86249736E-16
   1.50000000         1.12909577E-15
   1.54999995         1.35140909E-15
   1.60000002         1.28545741E-15
   1.64999998         8.78520974E-16
   1.70000005         1.78715720E-16
   1.75000000        -6.90949286E-16
   1.79999995        -1.56042686E-15
   1.85000002        -2.14671628E-15
   1.89999998        -2.24761844E-15
   1.95000005        -1.72341008E-15
   2.00000000        -5.88234683E-16
   2.04999995         1.08189750E-15
   2.09999990         2.85077345E-15
   2.15000010         4.44115341E-15
   2.20000005         5.37155346E-15
   2.25000000         5.01607363E-15
   2.29999995         3.15675712E-15
   2.34999990        -2.33432275E-16
   2.40000010        -4.47741489E-15
   2.45000005        -8.77637688E-15
   2.50000000        -1.22116325E-14
   2.54999995        -1.40006042E-14
   2.59999990        -1.31689237E-14
   2.65000010        -9.14681234E-15
   2.70000005        -2.33053344E-15
   2.75000000         6.68779607E-15
   2.79999995         1.67003455E-14
   2.84999990         2.54705314E-14
   2.90000010         3.21113443E-14
   2.95000005         3.36018106E-14
   3.00000000         2.84419129E-14
   3.04999995         1.73927713E-14
   3.09999990         3.23966730E-16
   3.15000010        -2.17516011E-14
   3.20000005        -3.94542899E-14
   3.25000000        -5.26371312E-14
   3.29999995        -5.95852645E-14
   3.34999990        -5.69812074E-14
   3.40000010        -4.12128759E-14
   3.45000005        -1.45922432E-14
   3.50000000         1.91276862E-14
   3.54999995         5.54317571E-14
   3.59999990         8.59557312E-14
   3.65000010         9.28659615E-14
   3.70000005         9.30520513E-14
   3.75000000         7.15044885E-14
   3.79999995         3.44273933E-14
   3.84999990        -2.15986981E-14
   3.90000010        -8.00552658E-14
   3.95000005        -1.27331170E-13
   4.00000000        -1.60666321E-13
   4.05000019        -1.80758444E-13
   4.09999990        -1.36060149E-13
   4.15000010         1.67238253E-14
   4.19999981         6.92113332E-14
   4.25000000         1.66782522E-13
   4.30000019         2.45882389E-13
   4.34999990         3.06914948E-13
   4.40000010         2.87850283E-13
   4.44999981         1.14586698E-13
   4.50000000         1.26855340E-13
   4.55000019         1.56005823E-13
   4.59999990        -1.91795449E-14
   4.65000010        -3.28780406E-13
   4.69999981        -6.05087540E-13
   4.75000000        -7.42464900E-13
   4.80000019        -5.86161274E-13
   4.84999990        -2.21368049E-13
   4.90000010        -2.56501922E-14
   4.94999981         3.41874830E-13
   5.00000000         8.81304795E-13
   5.05000019         1.04906394E-12
   5.09999990         7.62746582E-13
   5.15000010         7.64825594E-13
   5.19999981         5.58747764E-13
   5.25000000         2.00457557E-13
   5.30000019        -1.92455738E-13
   5.34999990         7.69489724E-13
   5.40000010         6.46458798E-13
   5.44999981        -2.29356278E-14
   5.50000000        -1.92126458E-12
   5.55000019        -2.66666658E-12
   5.59999990        -3.09678346E-12
   5.65000010        -3.74136616E-12
   5.69999981         3.53298472E-13
   5.75000000         4.00370232E-12
   5.80000019         6.51672900E-12
   5.84999990         7.45114821E-12
   5.90000010         3.90364650E-12
   5.94999981        -2.62086685E-12
   6.00000000        -3.03944955E-12
   6.05000019         2.63571689E-13
   6.09999990        -4.41443670E-12
   6.15000010         1.99561982E-12
   6.19999981         3.22268340E-12
   6.25000000         8.15478761E-12
   6.30000019        -3.69656172E-12
   6.34999990        -6.53595407E-12
   6.40000010        -1.11331543E-11
   6.44999981        -2.61454682E-12
   6.50000000        -1.08890718E-11
   6.55000019         2.28348469E-11
   6.59999990         1.11827353E-11
   6.65000010         7.20109866E-12
   6.69999981        -7.84199181E-12
   6.75000000         1.36700486E-11
   6.80000019         2.55749900E-11
   6.84999990         1.06470700E-11
   6.90000010         1.65528528E-11
   6.94999981        -2.37178940E-12
   7.00000000        -2.80071088E-11
   7.05000019        -4.92254466E-11
   7.09999990        -3.37505197E-11
   7.15000010         2.13949847E-11
   7.19999981         6.73127942E-11
   7.25000000         1.88269018E-11
   7.30000019         1.52559257E-10
   7.34999990         2.87323225E-12
   7.40000010         3.61335753E-11
   7.44999981        -6.36040959E-12
   7.50000000        -1.48997637E-11
   7.55000019         8.07659079E-11
   7.59999990         2.13443221E-10
   7.65000010         5.56186416E-11
   7.69999981        -1.02789832E-10
   7.75000000        -4.23202029E-11
   7.80000019         1.39407957E-10
   7.84999990         5.47260459E-10
   7.90000010         2.49668897E-11
   7.94999981        -3.32926436E-10
   8.00000000         2.43145698E-10
   8.05000019         7.05716943E-11
   8.10000038        -8.05898126E-10
   8.14999962        -5.39595923E-10
   8.19999981        -3.62321617E-10
   8.25000000         4.58845101E-10
   8.30000019         1.74639747E-09
   8.35000038         1.80857673E-09
   8.39999962         3.08654380E-10
   8.44999981        -3.95155547E-10
   8.50000000        -3.03081982E-09
   8.55000019        -1.43246814E-09
   8.60000038        -2.95216018E-10
   8.64999962         3.06180192E-09
   8.69999981         2.73812595E-09
   8.75000000         4.13315548E-10
   8.80000019        -5.22513810E-10
   8.85000038        -1.65219227E-09
   8.89999962        -5.93178084E-09
   8.94999981         2.82158696E-09
   9.00000000         2.93157276E-09
   9.05000019         1.82871862E-09
   9.10000038        -1.79414827E-09
   9.14999962         6.16645957E-10
   9.19999981        -4.94014119E-09
   9.25000000        -3.41436601E-10
   9.30000019        -3.40144979E-09
   9.35000038        -2.84857404E-09
   9.39999962        -2.10414952E-09
   9.44999981         1.14309993E-08
   9.50000000         1.33362912E-08
   9.55000019         1.27307782E-08
   9.60000038         5.59970204E-09
   9.64999962        -1.73627743E-08
   9.69999981        -2.35770141E-08
   9.75000000        -1.61072773E-08
   9.80000019        -7.13963333E-09
   9.85000038         1.71459309E-08
   9.89999962         1.22952022E-08
   9.94999981         2.49205634E-08
   10.0000000         3.23409743E-08
   10.0500002         9.81146275E-09
   10.1000004        -7.03569203E-09
   10.1499996        -2.35283100E-08
   10.1999998        -4.08001455E-08
   10.2500000        -2.84583077E-08
   10.3000002         2.02627426E-09
   10.3500004         1.68694303E-08
   10.3999996         2.88989757E-08
   10.4499998         3.13577324E-08
   10.5000000         3.98537772E-08
   10.5500002        -1.46797117E-08
   10.6000004        -8.63627747E-08
   10.6499996        -1.02300575E-07
   10.6999998        -5.13523304E-08
   10.7500000        -5.26992956E-08
   10.8000002         7.39117851E-08
   10.8500004         2.16769877E-07
   10.8999996         1.71943014E-07
   10.9499998         9.96221843E-08
   11.0000000         9.96122154E-08
   11.0500002        -1.90393720E-07
   11.1000004        -4.36878850E-07
   11.1499996        -3.04664610E-07
   11.1999998        -2.49933350E-07
   11.2500000         5.47348691E-08
   11.3000002         3.70973765E-07
   11.3500004         5.88873945E-07
   11.3999996         7.42417285E-07
   11.4499998         3.29317146E-07
   11.5000000        -1.30534616E-07
   11.5500002        -5.55407212E-07
   11.6000004        -4.87779062E-07
   11.6499996        -4.91476214E-07
   11.6999998        -3.50141846E-07
   11.7500000         7.58246088E-08
   11.8000002         1.44507737E-07
   11.8500004        -1.24089938E-08
   11.8999996         1.26049429E-07
   11.9499998         3.43196064E-07
   12.0000000        -8.48127826E-08
   12.0500002         3.24401071E-07
   12.1000004        -1.07340355E-07
   12.1499996        -5.86324461E-07
   12.1999998        -4.04760499E-07
   12.2500000         3.85868276E-07
   12.3000002         4.57918617E-07
   12.3500004         3.17054827E-07
   12.3999996         7.24365975E-07
   12.4499998         8.27121710E-07
   12.5000000         4.92672939E-07
   12.5500002        -1.46066736E-06
   12.6000004        -2.19776211E-06
   12.6499996        -1.51767176E-06
   12.6999998         1.27554770E-07
   12.7500000         1.91914387E-06
   12.8000002         3.42147837E-06
   12.8500004         3.39341750E-06
   12.8999996         1.09207656E-06
   12.9499998        -1.84252167E-06
   13.0000000        -5.41939016E-06
   13.0500002        -3.00063471E-06
   13.1000004        -3.89174375E-06
   13.1499996        -2.16596277E-07
   13.1999998         3.16289697E-06
   13.2500000         5.27841166E-06
   13.3000002         3.37859706E-06
   13.3500004         4.91640719E-07
   13.3999996        -1.24349697E-07
   13.4499998        -4.34114281E-06
   13.5000000        -5.16584396E-06
   13.5500002        -7.01924876E-07
   13.6000004         8.93135677E-07
   13.6499996         6.32858291E-06
   13.6999998         2.31973104E-06
   13.7500000         3.25361816E-06
   13.8000002        -3.47149626E-06
   13.8500004        -9.77580294E-06
   13.8999996        -7.05504681E-06
   13.9499998        -9.39598885E-06
   14.0000000        -1.70951807E-06
   14.0500002         1.56348551E-06
   14.1000004         2.03505660E-05
   14.1499996         2.28300323E-05
   14.1999998         1.80968618E-05
   14.2500000         6.18437468E-07
   14.3000002        -1.49869556E-05
   14.3500004        -2.68524491E-05
   14.3999996        -2.93226640E-05
   14.4499998        -1.41417286E-05
   14.5000000         7.38952258E-06
   14.5500002         1.89947841E-05
   14.6000004         2.63662696E-05
   14.6499996         1.73270691E-05
   14.6999998         2.53440908E-06
   14.7500000        -1.18269663E-05
   14.8000002        -1.20929490E-05
   14.8500004        -1.14409213E-05
   14.8999996        -6.16727959E-07
   14.9499998         5.06777587E-06
   15.0000000         6.42966052E-06
   15.0500002         2.46538048E-06
   15.1000004        -4.96605480E-06
   15.1499996        -8.52199901E-06
   15.1999998        -5.40190649E-06
   15.2500000        -7.82271036E-06
   15.3000002         1.75449088E-06
   15.3500004         1.33773683E-05
   15.3999996         1.55233065E-05
   15.4499998         5.47007858E-06
   15.5000000         7.64877655E-07
   15.5500002        -1.21186922E-05
   15.6000004        -2.71788085E-05
   15.6499996        -1.07739888E-05
   15.6999998         1.28088404E-05
   15.7500000         1.90104656E-05
   15.8000002         2.99329186E-05
   15.8500004         3.08885938E-05
   15.8999996         1.31199104E-05
   15.9499998        -2.30960377E-05
   16.0000000        -4.68908438E-05
   16.0499992        -3.97140066E-05
   16.1000004        -4.16283947E-05
   16.1499996        -6.61537342E-07
   16.2000008         2.40582958E-05
   16.2500000         6.06900030E-05
   16.2999992         5.86812457E-05
   16.3500004         2.39880137E-05
   16.3999996        -1.41852843E-05
   16.4500008        -4.36912305E-05
   16.5000000        -6.72657770E-05
   16.5499992        -3.81633545E-05
   16.6000004         3.86368993E-05
   16.6499996         7.28658779E-05
   16.7000008         4.05295359E-05
   16.7500000         9.34999753E-06
   16.7999992        -3.00077354E-05
   16.8500004        -7.38543604E-05
   16.8999996        -6.86494168E-05
   16.9500008        -3.46517554E-05
   17.0000000         8.97233349E-06
   17.0499992         2.94944966E-05
   17.1000004         5.37103115E-05
   17.1499996         6.32382216E-05
   17.2000008         5.81781023E-05
   17.2500000         3.63118234E-05
   17.2999992         3.00939610E-06
   17.3500004        -1.64716348E-05
   17.3999996        -3.84375599E-05
   17.4500008        -5.56246450E-05
   17.5000000        -7.70599363E-05
   17.5499992        -8.53785314E-05
   17.6000004        -4.30024738E-05
   17.6499996         1.19389433E-05
   17.7000008         6.53801326E-05
   17.7500000         1.10113564E-04
   17.7999992         1.29032749E-04
   17.8500004         8.29972778E-05
   17.8999996         1.18570551E-05
   17.9500008        -7.68100726E-05
   18.0000000        -1.29765409E-04
   18.0499992        -1.21927522E-04
   18.1000004        -5.60624540E-05
   18.1499996         1.40199872E-05
   18.2000008         6.94954142E-05
   18.2500000         8.80252192E-05
   18.2999992         6.01619140E-05
   18.3500004        -2.42012243E-06
   18.3999996        -6.00474159E-05
   18.4500008        -7.22592304E-05
   18.5000000        -4.51941487E-05
   18.5499992         2.42714341E-05
   18.6000004         8.89430376E-05
   18.6499996         1.13296992E-04
   18.7000008         9.79493707E-05
   18.7500000         2.91280903E-05
   18.7999992        -5.99795967E-05
   18.8500004        -1.35212293E-04
   18.8999996        -1.67196806E-04
   18.9500008        -1.34127855E-04
   19.0000000        -6.50590955E-05
   19.0499992         3.12388256E-05
   19.1000004         1.14209768E-04
   19.1499996         1.52496461E-04
   19.2000008         1.42897276E-04
   19.2500000         9.08052243E-05
   19.2999992         1.72857253E-05
   19.3500004        -4.85724850E-05
   19.3999996        -8.86869166E-05
   19.4500008        -9.14377888E-05
   19.5000000        -6.66494088E-05
   19.5499992        -2.78919197E-05
   19.6000004         6.12519852E-06
   19.6499996         1.76229005E-05
   19.7000008         2.03816126E-05
   19.7500000         5.57065869E-06
   19.7999992        -6.33840364E-06
   19.8500004        -1.69653049E-06
   19.8999996         9.32705825E-06
   19.9500008         2.73387741E-05
   20.0000000         4.84682678E-05
   20.0499992         6.17520855E-05
   20.1000004         4.75672496E-05
   20.1499996         6.67502400E-06
   20.2000008        -4.78281909E-05
   20.2500000        -9.23306725E-05
   20.2999992        -1.11487723E-04
   20.3500004        -8.68530187E-05
   20.3999996        -3.40383449E-05
   20.4500008         3.65421693E-05
   20.5000000         1.04024009E-04
   20.5499992         1.50886801E-04
   20.6000004         1.25477294E-04
   20.6499996         5.08495577E-05
   20.7000008        -4.73600849E-05
   20.7500000        -1.23228732E-04
   20.7999992        -1.41185767E-04
   20.8500004        -1.10779401E-04
   20.8999996        -5.24046845E-05
   20.9500008         3.34600045E-05
   21.0000000         1.04209466E-04
   21.0499992         1.29874956E-04
   21.1000004         9.23543776E-05
   21.1499996         1.74934139E-05
   21.2000008        -4.27923696E-05
   21.2500000        -7.50602630E-05
   21.2999992        -5.44293944E-05
   21.3500004        -8.98049257E-06
   21.3999996         1.33626618E-05
   21.4500008         2.57895808E-05
   21.5000000         1.35920154E-05
   21.5499992        -1.86991037E-05
   21.6000004        -4.03205413E-05
   21.6499996        -3.39274084E-05
   21.7000008        -2.55509494E-05
   21.7500000        -1.22452084E-05
   21.7999992         3.21462358E-05
   21.8500004         4.37768904E-05
   21.8999996         5.70261545E-05
   21.9500008         5.33556122E-05
   22.0000000         3.19801911E-05
   22.0499992         1.15099538E-05
   22.1000004        -1.49439602E-05
   22.1499996        -2.67784471E-05
   22.2000008        -4.99610178E-05
   22.2500000        -7.64058423E-05
   22.2999992        -9.63374841E-05
   22.3500004        -9.19692320E-05
   22.3999996        -5.35560102E-05
   22.4500008         2.04767530E-05
   22.5000000         9.97040988E-05
   22.5499992         1.65239850E-04
   22.6000004         1.97964793E-04
   22.6499996         1.73393812E-04
   22.7000008         8.07805627E-05
   22.7500000        -5.66793206E-05
   22.7999992        -1.83688142E-04
   22.8500004        -2.65172246E-04
   22.8999996        -2.46506010E-04
   22.9500008        -1.45219208E-04
   23.0000000        -4.18913396E-06
   23.0499992         1.43607074E-04
   23.1000004         2.29236131E-04
   23.1499996         2.29069687E-04
   23.2000008         1.49438507E-04
   23.2500000         2.56618005E-05
   23.2999992        -8.55321268E-05
   23.3500004        -1.29522872E-04
   23.3999996        -1.19808523E-04
   23.4500008        -6.88887667E-05
   23.5000000        -1.81279793E-05
   23.5499992         9.71381905E-06
   23.6000004         3.52400480E-06
   23.6499996        -1.38272180E-05
   23.7000008        -1.37774086E-05
   23.7500000         1.32199348E-05
   23.7999992         5.74067017E-05
   23.8500004         9.85405568E-05
   23.8999996         9.60847101E-05
   23.9500008         4.70980049E-05
   24.0000000        -3.60524609E-05
   24.0499992        -1.18580989E-04
   24.1000004        -1.50444073E-04
   24.1499996        -1.17837393E-04
   24.2000008        -2.23382413E-05
   24.2500000         8.78019200E-05
   24.2999992         1.81209791E-04
   24.3500004         2.01307645E-04
   24.3999996         1.40506731E-04
   24.4500008         1.28382471E-05
   24.5000000        -1.32159941E-04
   24.5499992        -2.42691051E-04
   24.6000004        -2.73521757E-04
   24.6499996        -2.05258606E-04
   24.7000008        -6.43523672E-05
   24.7500000         1.04426064E-04
   24.7999992         2.39436020E-04
   24.8500004         2.93639052E-04
   24.8999996         2.51853693E-04
   24.9500008         1.29567590E-04
   25.0000000        -2.09457139E-05
   25.0499992        -1.44120437E-04
   25.1000004        -1.99171176E-04
   25.1499996        -1.76123154E-04
   25.2000008        -9.62437334E-05
   25.2500000        -6.33980062E-06
   25.2999992         5.43135211E-05
   25.3500004         5.87787799E-05
   25.3999996         1.31072029E-05
   25.4500008        -5.39359680E-05