  -15.0000000        -2.24901635E-38
  -14.9499998         1.67273614E-37
  -14.8999996         2.11173414E-37
  -14.8500004        -5.14113717E-37
  -14.8000002        -2.25073802E-37
  -14.7500000        -2.29888708E-37
  -14.6999998        -9.73990434E-38
  -14.6499996         1.48952489E-37
  -14.6000004         3.32827286E-37
  -14.5500002         3.32303223E-37
  -14.5000000         1.71353769E-37
  -14.4499998        -2.78201892E-37
  -14.3999996        -9.94103641E-37
  -14.3500004        -3.69791096E-37
  -14.3000002        -5.78318925E-37
  -14.2500000        -2.52499455E-37
  -14.1999998         1.93588742E-36
  -14.1499996         7.81724837E-36
  -14.1000004         7.51191328E-36
  -14.0500002        -2.62234308E-35
  -14.0000000        -1.11820863E-34
  -13.9499998        -1.48197385E-34
  -13.8999996         1.63580313E-34
  -13.8500004         1.01694266E-33
  -13.8000002         1.66878505E-33
  -13.7500000         7.37788985E-35
  -13.6999998        -5.09514537E-33
  -13.6499996        -1.04014712E-32
  -13.6000004        -7.79053959E-33
  -13.5500002         4.73422672E-33
  -13.5000000         1.38267979E-32
  -13.4499998         1.78424026E-32
  -13.3999996         9.18222131E-32
  -13.3500004         3.60013530E-31
  -13.3000002         6.56102501E-31
  -13.2500000        -2.50338273E-32
  -13.1999998        -3.28485031E-30
  -13.1499996        -8.73542014E-30
  -13.1000004        -9.41999193E-30
  -13.0500002         9.02853088E-30
  -13.0000000         5.52530042E-29
  -12.9499998         1.02067510E-28
  -12.8999996         6.32284967E-29
  -12.8500004        -1.67522912E-28
  -12.8000002        -5.71313877E-28
  -12.7500000        -8.13421808E-28
  -12.6999998        -2.37065172E-28
  -12.6499996         1.66370880E-27
  -12.6000004         4.28184070E-27
  -12.5500002         5.11942802E-27
  -12.5000000         4.98697026E-28
  -12.4499998        -1.12747036E-26
  -12.3999996        -2.53136929E-26
  -12.3500004        -2.80402797E-26
  -12.3000002        -2.72856587E-27
  -12.2500000         5.56285544E-26
  -12.1999998         1.23015105E-25
  -12.1499996         1.42101656E-25
  -12.1000004         4.60411611E-26
  -12.0500002        -1.89723414E-25
  -12.0000000        -4.92253445E-25
  -11.9499998        -6.73795583E-25
  -11.8999996        -4.85370683E-25
  -11.8500004         2.58355127E-25
  -11.8000002         1.51726144E-24
  -11.7500000         2.87637382E-24
  -11.6999998         3.46557166E-24
  -11.6499996         2.05037946E-24
  -11.6000004        -2.51064075E-24
  -11.5500002        -1.02279090E-23
  -11.5000000        -1.84592931E-23
  -11.4499998        -2.07995089E-23
  -11.3999996        -8.21950465E-24
  -11.3500004         2.56536998E-23
  -11.3000002         7.53323289E-23
  -11.2500000         1.15003172E-22
  -11.1999998         9.99840934E-23
  -11.1499996        -1.28524903E-23
  -11.1000004        -2.25845980E-22
  -11.0500002        -4.60244070E-22
  -11.0000000        -5.49101666E-22
  -10.9499998        -2.97115511E-22
  -10.8999996         3.88982390E-22
  -10.8500004         1.35078978E-21
  -10.8000002         2.11112547E-21
  -10.7500000         1.99367289E-21
  -10.6999998         4.58555176E-22
  -10.6499996        -2.45358208E-21
  -10.6000004        -5.80428193E-21
  -10.5500002        -7.82814570E-21
  -10.5000000        -6.52328727E-21
  -10.4499998        -6.43686618E-22
  -10.3999996         9.26980923E-21
  -10.3500004         2.02914190E-20
  -10.3000002         2.73374081E-20
  -10.2500000         2.44095377E-20
  -10.1999998         6.82701806E-21
  -10.1499996        -2.58185090E-20
  -10.1000004        -6.66572381E-20
  -10.0500002        -9.98591047E-20
  -10.0000000        -1.02409936E-19
  -9.94999981        -5.14924100E-20
  -9.89999962         6.21895193E-20
  -9.85000038         2.18821713E-19
  -9.80000019         3.60193264E-19
  -9.75000000         3.97694893E-19
  -9.69999981         2.44649885E-19
  -9.64999962        -1.31761626E-19
  -9.60000038        -6.59717639E-19
  -9.55000019        -1.14500015E-18
  -9.50000000        -1.31413832E-18
  -9.44999981        -9.22388998E-19
  -9.39999962         1.06265005E-19
  -9.35000038         1.57097408E-18
  -9.30000019         2.98553306E-18
  -9.25000000         3.70370409E-18
  -9.19999981         3.15220189E-18
  -9.14999962         1.08825381E-18
  -9.10000038        -2.22195230E-18
  -9.05000019        -5.97838129E-18
  -9.00000000        -8.98899405E-18
  -8.94999981        -9.93764365E-18
  -8.89999962        -7.72264753E-18
  -8.85000038        -1.83021155E-18
  -8.80000019         7.28273386E-18
  -8.75000000         1.78689905E-17
  -8.69999981         2.68115144E-17
  -8.64999962         3.00430708E-17
  -8.60000038         2.36608165E-17
  -8.55000019         5.64535010E-18
  -8.50000000        -2.23466052E-17
  -8.44999981        -5.40043160E-17
  -8.39999962        -7.90671838E-17
  -8.35000038        -8.60221581E-17
  -8.30000019        -6.61695455E-17
  -8.25000000        -1.75827827E-17
  -8.19999981         5.27374823E-17
  -8.14999962         1.29555569E-16
  -8.10000038         1.92716685E-16
  -8.05000019         2.21728820E-16
  -8.00000000         1.99999500E-16
  -7.94999981         1.17949682E-16
  -7.90000010        -2.44638980E-17
  -7.84999990        -2.14648472E-16
  -7.80000019        -4.23459828E-16
  -7.75000000        -6.02516823E-16
  -7.69999981        -6.86960820E-16
  -7.65000010        -6.07863560E-16
  -7.59999990        -3.15085907E-16
  -7.55000019         1.94565996E-16
  -7.50000000         8.54636868E-16
  -7.44999981         1.52413478E-15
  -7.40000010         2.00839897E-15
  -7.34999990         2.10432461E-15
  -7.30000019         1.65847346E-15
  -7.25000000         6.20882932E-16
  -7.19999981        -9.21175118E-16
  -7.15000010        -2.73777227E-15
  -7.09999990        -4.47882605E-15
  -7.05000019        -5.71901061E-15
  -7.00000000        -6.02024220E-15
  -6.94999981        -5.01023842E-15
  -6.90000010        -2.47617970E-15
  -6.84999990         1.53411452E-15
  -6.80000019         6.62383534E-15
  -6.75000000         1.20043398E-14
  -6.69999981         1.65332886E-14
  -6.65000010         1.88574081E-14
  -6.59999990         1.76585143E-14
  -6.55000019         1.19717977E-14
  -6.50000000         1.52112019E-15
  -6.44999981        -1.29973106E-14
  -6.40000010        -2.97541261E-14
  -6.34999990        -4.58135930E-14
  -6.30000019        -5.74007191E-14
  -6.25000000        -6.04347369E-14
  -6.19999981        -5.13105014E-14
  -6.15000010        -2.78420407E-14
  -6.09999990         9.79218876E-15
  -6.05000019         5.83209899E-14
  -6.00000000         1.11102818E-13
  -5.94999981         1.58486830E-13
  -5.90000010         1.88900382E-13
  -5.84999990         1.90620035E-13
  -5.80000019         1.54055290E-13
  -5.75000000         7.42549942E-14
  -5.69999981        -4.67512517E-14
  -5.65000010        -1.98242545E-13
  -5.59999990        -3.60242597E-13
  -5.55000019        -5.04579397E-13
  -5.50000000        -5.97878951E-13
  -5.44999981        -6.06482421E-13
  -5.40000010        -5.02823315E-13
  -5.34999990        -2.72353673E-13
  -5.30000019         8.02191430E-14
  -5.25000000         5.26707042E-13
  -5.19999981         1.01435440E-12
  -5.15000010         1.46865668E-12
  -5.09999990         1.80036465E-12
  -5.05000019         1.91652120E-12
  -5.00000000         1.73484371E-12
  -4.94999981         1.20023880E-12
  -4.90000010         3.01506053E-13
  -4.84999990        -9.14488645E-13
  -4.80000019        -2.33440697E-12
  -4.75000000        -3.77910724E-12
  -4.69999981        -5.01593862E-12
  -4.65000010        -5.78356200E-12
  -4.59999990        -5.82802383E-12
  -4.55000019        -4.94651065E-12
  -4.50000000        -3.03303064E-12
  -4.44999981        -1.18990917E-13
  -4.40000010         3.59861490E-12
  -4.34999990         7.74884584E-12
  -4.30000019         1.18035425E-11
  -4.25000000         1.51225508E-11
  -4.19999981         1.70264323E-11
  -4.15000010         1.68920121E-11
  -4.09999990         1.42600333E-11
  -4.05000019         8.94073357E-12
  -4.00000000         1.10052180E-12
  -3.95000005        -8.68717858E-12
  -3.90000010        -1.94411501E-11
  -3.84999990        -2.98301037E-11
  -3.79999995        -3.82906450E-11
  -3.75000000        -4.32000997E-11
  -3.70000005        -4.30894279E-11
  -3.65000010        -3.68753847E-11
  -3.59999990        -2.40847845E-11
  -3.54999995        -5.03757105E-12
  -3.50000000         1.90429495E-11
  -3.45000005         4.60197505E-11
  -3.40000010         7.29539554E-11
  -3.34999990         9.63366401E-11
  -3.29999995         1.12437372E-10
  -3.25000000         1.17726648E-10
  -3.20000005         1.09339787E-10
  -3.15000010         8.55137905E-11
  -3.09999990         4.59550765E-11
  -3.04999995        -7.93212804E-12
  -3.00000000        -7.29877617E-11
  -2.95000005        -1.44428844E-10
  -2.90000010        -2.16206580E-10
  -2.84999990        -2.81500045E-10
  -2.79999995        -3.33417016E-10
  -2.75000000        -3.65716513E-10
  -2.70000005        -3.73582554E-10
  -2.65000010        -3.54262647E-10
  -2.59999990        -3.07600112E-10
  -2.54999995        -2.36274028E-10
  -2.50000000        -1.45823076E-10
  -2.45000005        -4.42605258E-11
  -2.40000010         5.84842452E-11
  -2.34999990         1.51407401E-10
  -2.29999995         2.23403074E-10
  -2.25000000         2.64256172E-10
  -2.20000005         2.65692912E-10
  -2.15000010         2.22047949E-10
  -2.09999990         1.30911892E-10
  -2.04999995        -6.55921237E-12
  -2.00000000        -1.85620116E-10
  -1.95000005        -3.98668015E-10
  -1.89999998        -6.35584918E-10
  -1.85000002        -8.84753104E-10
  -1.79999995        -1.13467791E-09
  -1.75000000        -1.37493550E-09
  -1.70000005        -1.59753166E-09
  -1.64999998        -1.79792381E-09
  -1.60000002        -1.97607286E-09
  -1.54999995        -2.13628804E-09
  -1.50000000        -2.28804642E-09
  -1.45000005        -2.44495713E-09
  -1.39999998        -2.62414845E-09
  -1.35000002        -2.84557511E-09
  -1.29999995        -3.12956172E-09
  -1.25000000        -3.49630147E-09
  -1.20000005        -3.96518551E-09
  -1.14999998        -4.55355442E-09
  -1.10000002        -5.27607824E-09
  -1.04999995        -6.14343998E-09
  -1.00000000        -7.16534565E-09
 -0.949999988        -8.34837177E-09
 -0.899999976        -9.69817560E-09
 -0.850000024        -1.12226184E-08
 -0.800000012        -1.29300624E-08
 -0.750000000        -1.48330885E-08
 -0.699999988        -1.69515637E-08
 -0.649999976        -1.93076062E-08
 -0.600000024        -2.19331309E-08
 -0.550000012        -2.48720138E-08
 -0.500000000        -2.81687491E-08
 -0.449999988        -3.18861240E-08
 -0.400000006        -3.60816266E-08
 -0.349999994        -4.08311465E-08
 -0.300000012        -4.62187941E-08
 -0.250000000        -5.23246761E-08
 -0.200000003        -5.92399907E-08
 -0.150000006        -6.70647893E-08
 -0.100000001        -7.59062004E-08
  -5.00000007E-02    -8.58816023E-08
   0.00000000        -9.71235394E-08
   5.00000007E-02    -1.09780991E-07
  0.100000001        -1.24004103E-07
  0.150000006        -1.39969103E-07
  0.200000003        -1.57867419E-07
  0.250000000        -1.77901484E-07
  0.300000012        -2.00292561E-07
  0.349999994        -2.25327881E-07
  0.400000006        -2.53292995E-07
  0.449999988        -2.84544171E-07
  0.500000000        -3.19422213E-07
  0.550000012        -3.58318886E-07
  0.600000024        -4.01692660E-07
  0.649999976        -4.50026818E-07
  0.699999988        -5.03887463E-07
  0.750000000        -5.63884953E-07
  0.800000012        -6.30721672E-07
  0.850000024        -7.05001753E-07
  0.899999976        -7.87613544E-07
  0.949999988        -8.79461652E-07
   1.00000000        -9.81279186E-07
   1.04999995        -1.09437258E-06
   1.10000002        -1.21949165E-06
   1.14999998        -1.35824541E-06
   1.20000005        -1.51181553E-06
   1.25000000        -1.68148063E-06
   1.29999995        -1.86900786E-06
   1.35000002        -2.07594189E-06
   1.39999998        -2.30425394E-06
   1.45000005        -2.55588748E-06
   1.50000000        -2.83310987E-06
   1.54999995        -3.13876126E-06
   1.60000002        -3.47469904E-06
   1.64999998        -3.84448913E-06
   1.70000005        -4.25111830E-06
   1.75000000        -4.69744919E-06
   1.79999995        -5.18656589E-06
   1.85000002        -5.72297495E-06
   1.89999998        -6.31177500E-06
   1.95000005        -6.95695371E-06
   2.00000000        -7.66261473E-06
   2.04999995        -8.43419457E-06
   2.09999990        -9.27660403E-06
   2.15000010        -1.01970982E-05
   2.20000005        -1.12003399E-05
   2.25000000        -1.22935799E-05
   2.29999995        -1.34863567E-05
   2.34999990        -1.47846940E-05
   2.40000010        -1.61986445E-05
   2.45000005        -1.77352777E-05
   2.50000000        -1.94067470E-05
   2.54999995        -2.12193117E-05
   2.59999990        -2.31795693E-05
   2.65000010        -2.53044818E-05
   2.70000005        -2.76037572E-05
   2.75000000        -3.00976972E-05
   2.79999995        -3.27953749E-05
   2.84999990        -3.57164317E-05
   2.90000010        -3.88705448E-05
   2.95000005        -4.22691301E-05
   3.00000000        -4.59254516E-05
   3.04999995        -4.98647205E-05
   3.09999990        -5.40988003E-05
   3.15000010        -5.86593160E-05
   3.20000005        -6.35599354E-05
   3.25000000        -6.88265573E-05
   3.29999995        -7.44838544E-05
   3.34999990        -8.05495001E-05
   3.40000010        -8.70354852E-05
   3.45000005        -9.39695237E-05
   3.50000000        -1.01365535E-04
   3.54999995        -1.09293665E-04
   3.59999990        -1.17751559E-04
   3.65000010        -1.26791114E-04
   3.70000005        -1.36413859E-04
   3.75000000        -1.46642589E-04
   3.79999995        -1.57517992E-04
   3.84999990        -1.69060790E-04
   3.90000010        -1.81323237E-04
   3.95000005        -1.94388384E-04
   4.00000000        -2.08215686E-04
   4.05000019        -2.22847812E-04
   4.09999990        -2.38323148E-04
   4.15000010        -2.54685292E-04
   4.19999981        -2.71898025E-04
   4.25000000        -2.90069351E-04
   4.30000019        -3.09196010E-04
   4.34999990        -3.29400616E-04
   4.40000010        -3.50575399E-04
   4.44999981        -3.72901733E-04
   4.50000000        -3.96437419E-04
   4.55000019        -4.20967146E-04
   4.59999990        -4.46622027E-04
   4.65000010        -4.73385211E-04
   4.69999981        -5.01405215E-04
   4.75000000        -5.30526508E-04
   4.80000019        -5.60986460E-04
   4.84999990        -5.92809694E-04
   4.90000010        -6.25915884E-04
   4.94999981        -6.60134014E-04
   5.00000000        -6.95612689E-04
   5.05000019        -7.32437067E-04
   5.09999990        -7.70427636E-04
   5.15000010        -8.09781370E-04
   5.19999981        -8.50377546E-04
   5.25000000        -8.92087060E-04
   5.30000019        -9.34922660E-04
   5.34999990        -9.78837255E-04
   5.40000010        -1.02403306E-03
   5.44999981        -1.07007928E-03
   5.50000000        -1.11708452E-03
   5.55000019        -1.16479699E-03
   5.59999990        -1.21360656E-03
   5.65000010        -1.26350333E-03
   5.69999981        -1.31421175E-03
   5.75000000        -1.36546523E-03
   5.80000019        -1.41638040E-03
   5.84999990        -1.46748114E-03
   5.90000010        -1.51812553E-03
   5.94999981        -1.56917493E-03
   6.00000000        -1.62068452E-03
   6.05000019        -1.67243171E-03
   6.09999990        -1.72443944E-03
   6.15000010        -1.77523470E-03
   6.19999981        -1.82427187E-03
   6.25000000        -1.87082216E-03
   6.30000019        -1.91582309E-03
   6.34999990        -1.96029572E-03
   6.40000010        -2.00392213E-03
   6.44999981        -2.04509986E-03
   6.50000000        -2.08374579E-03
   6.55000019        -2.11972720E-03
   6.59999990        -2.15123477E-03
   6.65000010        -2.18131510E-03
   6.69999981        -2.20782333E-03
   6.75000000        -2.22968403E-03
   6.80000019        -2.24647648E-03
   6.84999990        -2.25779437E-03
   6.90000010        -2.26607104E-03
   6.94999981        -2.26955838E-03
   7.00000000        -2.26831459E-03
   7.05000019        -2.26220535E-03
   7.09999990        -2.24777521E-03
   7.15000010        -2.22580228E-03
   7.19999981        -2.19294010E-03
   7.25000000        -2.15536077E-03
   7.30000019        -2.11003493E-03
   7.34999990        -2.05854047E-03
   7.40000010        -2.00172374E-03
   7.44999981        -1.93748018E-03
   7.50000000        -1.86249742E-03
   7.55000019        -1.77431095E-03
   7.59999990        -1.67381100E-03
   7.65000010        -1.56571972E-03
   7.69999981        -1.45234750E-03
   7.75000000        -1.32936472E-03
   7.80000019        -1.19869306E-03
   7.84999990        -1.05550420E-03
   7.90000010        -8.97586113E-04
   7.94999981        -7.27240636E-04
   8.00000000        -5.46112249E-04
   8.05000019        -3.53307405E-04
   8.10000038        -1.56268419E-04
   8.14999962         4.56275229E-05
   8.19999981         2.53657519E-04
   8.25000000         4.72979766E-04
   8.30000019         7.07108993E-04
   8.35000038         9.58956196E-04
   8.39999962         1.22306845E-03
   8.44999981         1.49121287E-03
   8.50000000         1.76285231E-03
   8.55000019         2.04446656E-03
   8.60000038         2.32884358E-03
   8.64999962         2.62726448E-03
   8.69999981         2.93555669E-03
   8.75000000         3.23818042E-03
   8.80000019         3.54496390E-03
   8.85000038         3.85433109E-03
   8.89999962         4.17043176E-03
   8.94999981         4.49085748E-03
   9.00000000         4.81237285E-03
   9.05000019         5.13187144E-03
   9.10000038         5.44726802E-03
   9.14999962         5.77067863E-03
   9.19999981         6.08070428E-03
   9.25000000         6.39912346E-03
   9.30000019         6.69820327E-03
   9.35000038         7.00051663E-03
   9.39999962         7.29491003E-03
   9.44999981         7.59982830E-03
   9.50000000         7.89273903E-03
   9.55000019         8.15703627E-03
   9.60000038         8.40366259E-03
   9.64999962         8.63675959E-03
   9.69999981         8.86087399E-03
   9.75000000         9.05337464E-03
   9.80000019         9.23812576E-03
   9.85000038         9.40143969E-03
   9.89999962         9.54528432E-03
   9.94999981         9.68315266E-03
   10.0000000         9.81239788E-03
   10.0500002         9.91226267E-03
   10.1000004         1.00010308E-02
   10.1499996         1.00609399E-02
   10.1999998         1.00809829E-02
   10.2500000         1.00681130E-02
   10.3000002         1.00358212E-02
   10.3500004         9.97739844E-03
   10.3999996         9.88101400E-03
   10.4499998         9.75552481E-03
   10.5000000         9.59532894E-03
   10.5500002         9.42263380E-03
   10.6000004         9.23725311E-03
   10.6499996         9.01812129E-03
   10.6999998         8.78260471E-03
   10.7500000         8.50271992E-03
   10.8000002         8.17960687E-03
   10.8500004         7.82364048E-03
   10.8999996         7.45537365E-03
   10.9499998         7.05823814E-03
   11.0000000         6.64058467E-03
   11.0500002         6.19180221E-03
   11.1000004         5.73647069E-03
   11.1499996         5.26584312E-03
   11.1999998         4.77435347E-03
   11.2500000         4.25630063E-03
   11.3000002         3.69769894E-03
   11.3500004         3.10164923E-03
   11.3999996         2.48055183E-03
   11.4499998         1.85167312E-03
   11.5000000         1.23667065E-03
   11.5500002         6.58324687E-04
   11.6000004         8.45915711E-05
   11.6499996        -5.07446995E-04
   11.6999998        -1.15051703E-03
   11.7500000        -1.83634693E-03
   11.8000002        -2.54306640E-03
   11.8500004        -3.25037981E-03
   11.8999996        -3.91942356E-03
   11.9499998        -4.53667110E-03
   12.0000000        -5.13649685E-03
   12.0500002        -5.69588598E-03
   12.1000004        -6.26675552E-03
   12.1499996        -6.86493423E-03
   12.1999998        -7.46903941E-03
   12.2500000        -8.07887223E-03
   12.3000002        -8.66632909E-03
   12.3500004        -9.22209397E-03
   12.3999996        -9.72212851E-03
   12.4499998        -1.01786545E-02
   12.5000000        -1.05946315E-02
   12.5500002        -1.09856762E-02
   12.6000004        -1.13772815E-02
   12.6499996        -1.17734214E-02
   12.6999998        -1.21693267E-02
   12.7500000        -1.25447810E-02
   12.8000002        -1.28788026E-02
   12.8500004        -1.31418305E-02
   12.8999996        -1.33203957E-02
   12.9499998        -1.34236282E-02
   13.0000000        -1.34691224E-02
   13.0500002        -1.34942615E-02
   13.1000004        -1.35229891E-02
   13.1499996        -1.35690197E-02
   13.1999998        -1.36191119E-02
   13.2500000        -1.36547331E-02
   13.3000002        -1.36421975E-02
   13.3500004        -1.35620832E-02
   13.3999996        -1.34011861E-02
   13.4499998        -1.31612821E-02
   13.5000000        -1.28668156E-02
   13.5500002        -1.25418976E-02
   13.6000004        -1.22199720E-02
   13.6499996        -1.19225308E-02
   13.6999998        -1.16585968E-02
   13.7500000        -1.14007983E-02
   13.8000002        -1.11059267E-02
   13.8500004        -1.07383318E-02
   13.8999996        -1.02640018E-02
   13.9499998        -9.68269166E-03
   14.0000000        -9.05034225E-03
   14.0500002        -8.43795296E-03
   14.1000004        -7.88668450E-03
   14.1499996        -7.42088165E-03
   14.1999998        -7.02117663E-03
   14.2500000        -6.62475917E-03
   14.3000002        -6.16266998E-03
   14.3500004        -5.58841834E-03
   14.3999996        -4.92325611E-03
   14.4499998        -4.22664965E-03
   14.5000000        -3.55952233E-03
   14.5500002        -2.96828197E-03
   14.6000004        -2.43669818E-03
   14.6499996        -1.95273524E-03
   14.6999998        -1.46867975E-03
   14.7500000        -9.70285852E-04
   14.8000002        -4.32127912E-04
   14.8500004         1.21684323E-04
   14.8999996         6.77255157E-04
   14.9499998         1.22835499E-03
   15.0000000         1.75977650E-03
   15.0500002         2.27198075E-03
   15.1000004         2.76920432E-03
   15.1499996         3.20614385E-03
   15.1999998         3.57040903E-03
   15.2500000         3.86115722E-03
   15.3000002         4.09343699E-03
   15.3500004         4.32307227E-03
   15.3999996         4.62222192E-03
   15.4499998         4.99730837E-03
   15.5000000         5.44477114E-03
   15.5500002         5.90453669E-03
   15.6000004         6.28562272E-03
   15.6499996         6.53348537E-03
   15.6999998         6.63098693E-03
   15.7500000         6.61217468E-03
   15.8000002         6.57434016E-03
   15.8500004         6.58572372E-03
   15.8999996         6.69410452E-03
   15.9499998         6.88271178E-03
   16.0000000         7.10285129E-03
   16.0499992         7.27653643E-03
   16.1000004         7.33198132E-03
   16.1499996         7.24652503E-03
   16.2000008         7.07025221E-03
   16.2500000         6.87026000E-03
   16.2999992         6.70963991E-03
   16.3500004         6.63997373E-03
   16.3999996         6.66299090E-03
   16.4500008         6.72843261E-03
   16.5000000         6.77544717E-03
   16.5499992         6.73973421E-03
   16.6000004         6.59390865E-03
   16.6499996         6.35926286E-03
   16.7000008         6.06414070E-03
   16.7500000         5.76638198E-03
   16.7999992         5.49688470E-03
   16.8500004         5.24555659E-03
   16.8999996         5.03083877E-03
   16.9500008         4.83510410E-03
   17.0000000         4.64385608E-03
   17.0499992         4.47621476E-03
   17.1000004         4.34726430E-03
   17.1499996         4.23769141E-03
   17.2000008         4.11819015E-03
   17.2500000         3.95566737E-03
   17.2999992         3.71403829E-03
   17.3500004         3.40037351E-03
   17.3999996         3.06160329E-03
   17.4500008         2.75360560E-03
   17.5000000         2.52773589E-03
   17.5499992         2.38747592E-03
   17.6000004         2.29630969E-03
   17.6499996         2.18680664E-03
   17.7000008         1.99580588E-03
   17.7500000         1.71350769E-03
   17.7999992         1.38057931E-03
   17.8500004         1.07252900E-03
   17.8999996         8.64478527E-04
   17.9500008         7.79372582E-04
   18.0000000         7.82624877E-04
   18.0499992         8.04472889E-04
   18.1000004         7.60136230E-04
   18.1499996         6.09043811E-04
   18.2000008         3.55312222E-04
   18.2500000         5.68451069E-05
   18.2999992        -2.07154357E-04
   18.3500004        -3.71947826E-04
   18.3999996        -4.20879456E-04
   18.4500008        -3.82642407E-04
   18.5000000        -3.13940778E-04
   18.5499992        -2.76892446E-04
   18.6000004        -3.20040592E-04
   18.6499996        -4.47435712E-04
   18.7000008        -6.36387500E-04
   18.7500000        -8.45069357E-04
   18.7999992        -1.02625240E-03
   18.8500004        -1.14643003E-03
   18.8999996        -1.19185809E-03
   18.9500008        -1.16603763E-03
   19.0000000        -1.08899211E-03
   19.0499992        -9.90630826E-04
   19.1000004        -8.96862533E-04
   19.1499996        -8.36088962E-04
   19.2000008        -8.29894678E-04
   19.2500000        -8.89286399E-04
   19.2999992        -1.00557681E-03
   19.3500004        -1.15125650E-03
   19.3999996        -1.27770705E-03
   19.4500008        -1.33743673E-03
   19.5000000        -1.29947183E-03
   19.5499992        -1.17078994E-03
   19.6000004        -9.99796903E-04
   19.6499996        -8.59895488E-04
   19.7000008        -8.15767155E-04
   19.7500000        -8.90706375E-04
   19.7999992        -1.04750530E-03
   19.8500004        -1.20536739E-03
   19.8999996        -1.27258629E-03
   19.9500008        -1.19576440E-03
   20.0000000        -9.90752131E-04
   20.0499992        -7.36907939E-04
   20.1000004        -5.42255351E-04
   20.1499996        -4.89429221E-04
   20.2000008        -5.93701378E-04
   20.2500000        -7.96128181E-04
   20.2999992        -9.92861576E-04
   20.3500004        -1.08622259E-03
   20.3999996        -1.03100145E-03
   20.4500008        -8.51292745E-04
   20.5000000        -6.23809290E-04
   20.5499992        -4.36612812E-04
   20.6000004        -3.48906382E-04
   20.6499996        -3.69696441E-04
   20.7000008        -4.63666307E-04
   20.7500000        -5.76101243E-04
   20.7999992        -6.60289079E-04
   20.8500004        -6.92905101E-04
   20.8999996        -6.73554547E-04
   20.9500008        -6.12266827E-04
   21.0000000        -5.19575144E-04
   21.0499992        -4.02897509E-04
   21.1000004        -2.73081620E-04
   21.1499996        -1.51223649E-04
   21.2000008        -6.86557396E-05
   21.2500000        -5.70825250E-05
   21.2999992        -1.31854467E-04
   21.3500004        -2.78449559E-04
   21.3999996        -4.50361113E-04
   21.4500008        -5.83147281E-04
   21.5000000        -6.18897844E-04
   21.5499992        -5.31982863E-04
   21.6000004        -3.42984276E-04
   21.6499996        -1.13921495E-04
   21.7000008         7.42969787E-05
   21.7500000         1.54286245E-04
   21.7999992         1.00677476E-04
   21.8500004        -5.80033920E-05
   21.8999996        -2.49776203E-04
   21.9500008        -3.89277906E-04
   22.0000000        -4.14331182E-04
   22.0499992        -3.13279394E-04
   22.1000004        -1.29979351E-04
   22.1499996         5.60867011E-05
   22.2000008         1.65897174E-04
   22.2500000         1.56074675E-04
   22.2999992         3.68068977E-05
   22.3500004        -1.35422408E-04
   22.3999996        -2.85623857E-04
   22.4500008        -3.53999872E-04
   22.5000000        -3.19055980E-04
   22.5499992        -2.00721421E-04
   22.6000004        -4.51683263E-05
   22.6499996         9.79475662E-05
   22.7000008         1.93148138E-04
   22.7500000         2.24765885E-04
   22.7999992         1.92316031E-04
   22.8500004         1.03386017E-04
   22.8999996        -2.87917137E-05
   22.9500008        -1.81922107E-04
   23.0000000        -3.20913125E-04
   23.0499992        -4.01548168E-04
   23.1000004        -3.84850689E-04
   23.1499996        -2.57238979E-04
   23.2000008        -4.52600470E-05
   23.2500000         1.86115300E-04
   23.2999992         3.54933814E-04
   23.3500004         3.95821233E-04
   23.3999996         2.90233031E-04
   23.4500008         7.79420443E-05
   23.5000000        -1.57212227E-04
   23.5499992        -3.22024425E-04
   23.6000004        -3.53703945E-04
   23.6499996        -2.46804935E-04
   23.7000008        -5.52612219E-05
   23.7500000         1.31241133E-04
   23.7999992         2.26229778E-04
   23.8500004         1.83966316E-04
   23.8999996         1.96264700E-05
   23.9500008        -1.96366600E-04
   24.0000000        -3.67620058E-04
   24.0499992        -4.12869820E-04
   24.1000004        -3.01736669E-04
   24.1499996        -6.97911310E-05
   24.2000008         1.94149179E-04
   24.2500000         3.84118699E-04
   24.2999992         4.21525270E-04
   24.3500004         2.88771029E-04
   24.3999996         3.66487366E-05
   24.4500008        -2.37552944E-04
   24.5000000        -4.32071072E-04
   24.5499992        -4.83085314E-04
   24.6000004        -3.88379645E-04
   24.6499996        -2.02780662E-04
   24.7000008        -9.18632213E-06
   24.7500000         1.19142518E-04
   24.7999992         1.47349623E-04
   24.8500004         8.61349181E-05
   24.8999996        -2.19843278E-05
   24.9500008        -1.27534702E-04
   25.0000000        -1.96153502E-04
   25.0499992        -2.17990499E-04
   25.1000004        -2.03608084E-04
   25.1499996        -1.71990367E-04
   25.2000008        -1.39558368E-04
   25.2500000        -1.15501221E-04
   25.2999992        -1.03315142E-04
   25.3500004        -1.04666375E-04
   25.3999996        -1.21004014E-04
   25.4500008        -1.51973189E-04