  -15.0000000         2.34149673E-29
  -14.9499998         2.15826285E-29
  -14.8999996         1.80824073E-29
  -14.8500004         1.32256152E-29
  -14.8000002         7.43766911E-30
  -14.7500000         1.21455537E-30
  -14.6999998        -4.92571178E-30
  -14.6499996        -1.04909820E-29
  -14.6000004        -1.50567322E-29
  -14.5500002        -1.92158953E-29
  -14.5000000        -2.65690522E-29
  -14.4499998        -3.39064119E-29
  -14.3999996         9.80860397E-30
  -14.3500004         2.07567124E-28
  -14.3000002         4.51428686E-28
  -14.2500000        -1.11721270E-28
  -14.1999998        -2.79727073E-27
  -14.1499996        -6.49658464E-27
  -14.1000004        -3.53959192E-27
  -14.0500002         1.71519500E-26
  -14.0000000         5.07105921E-26
  -13.9499998         5.35376724E-26
  -13.8999996        -3.78874085E-26
  -13.8500004        -2.16677929E-25
  -13.8000002        -3.21132505E-25
  -13.7500000        -1.37335963E-25
  -13.6999998         2.74497217E-25
  -13.6499996         4.55161008E-25
  -13.6000004         2.74222595E-25
  -13.5500002         1.19470627E-24
  -13.5000000         5.70231813E-24
  -13.4499998         1.20988686E-23
  -13.3999996         7.01272575E-24
  -13.3500004        -3.20995486E-23
  -13.3000002        -1.09038361E-22
  -13.2500000        -1.60997070E-22
  -13.1999998        -4.19109587E-23
  -13.1499996         3.81589337E-22
  -13.1000004         9.96719317E-22
  -13.0500002         1.22316152E-21
  -13.0000000         1.40939038E-22
  -12.9499998        -2.74416300E-21
  -12.8999996        -6.30512121E-21
  -12.8500004        -7.16522830E-21
  -12.8000002        -1.03071733E-21
  -12.7500000         1.34924039E-20
  -12.6999998         3.03844183E-20
  -12.6499996         3.51904540E-20
  -12.6000004         1.16035216E-20
  -12.5500002        -4.46663992E-20
  -12.5000000        -1.12447204E-19
  -12.4499998        -1.44703913E-19
  -12.3999996        -8.98194908E-20
  -12.3500004         7.10473377E-20
  -12.3000002         2.92601778E-19
  -12.2500000         4.66543462E-19
  -12.1999998         4.64803178E-19
  -12.1499996         2.04217426E-19
  -12.1000004        -3.07037734E-19
  -12.0500002        -9.65735537E-19
  -12.0000000        -1.59347225E-18
  -11.9499998        -1.93215681E-18
  -11.8999996        -1.60381356E-18
  -11.8500004        -1.25153771E-19
  -11.8000002         2.85468860E-18
  -11.7500000         7.00799988E-18
  -11.6999998         1.06917859E-17
  -11.6499996         1.08131804E-17
  -11.6000004         3.88467218E-18
  -11.5500002        -1.15620047E-17
  -11.5000000        -3.21315166E-17
  -11.4499998        -4.82874458E-17
  -11.3999996        -4.67114351E-17
  -11.3500004        -1.67938509E-17
  -11.3000002         4.10702189E-17
  -11.2500000         1.10135836E-16
  -11.1999998         1.59649948E-16
  -11.1499996         1.56193087E-16
  -11.1000004         7.98683248E-17
  -11.0500002        -6.28887685E-17
  -11.0000000        -2.37397368E-16
  -10.9499998        -3.91155103E-16
  -10.8999996        -4.70189895E-16
  -10.8500004        -4.31317753E-16
  -10.8000002        -2.44976143E-16
  -10.7500000         1.05853886E-16
  -10.6999998         6.16621510E-16
  -10.6499996         1.23164890E-15
  -10.6000004         1.80200860E-15
  -10.5500002         2.06268765E-15
  -10.5000000         1.67193991E-15
  -10.4499998         3.38081660E-16
  -10.3999996        -1.98740717E-15
  -10.3500004        -4.92631863E-15
  -10.3000002        -7.60582647E-15
  -10.2500000        -8.79296517E-15
  -10.1999998        -7.24810243E-15
  -10.1499996        -2.22040264E-15
  -10.1000004         6.06833419E-15
  -10.0500002         1.61323828E-14
  -10.0000000         2.52736471E-14
  -9.94999981         3.00496966E-14
  -9.89999962         2.71278649E-14
  -9.85000038         1.43782725E-14
  -9.80000019        -8.05538497E-15
  -9.75000000        -3.70466902E-14
  -9.69999981        -6.64713578E-14
  -9.64999962        -8.80797036E-14
  -9.60000038        -9.31944070E-14
  -9.55000019        -7.48857221E-14
  -9.50000000        -3.01067629E-14
  -9.44999981         3.86883756E-14
  -9.39999962         1.22713119E-13
  -9.35000038         2.06885819E-13
  -9.30000019         2.70849342E-13
  -9.25000000         2.91352391E-13
  -9.19999981         2.46568445E-13
  -9.14999962         1.22602612E-13
  -9.10000038        -7.87005078E-14
  -9.05000019        -3.33154213E-13
  -9.00000000        -5.92498544E-13
  -8.94999981        -7.90727835E-13
  -8.89999962        -8.59012948E-13
  -8.85000038        -7.45736535E-13
  -8.80000019        -4.34761629E-13
  -8.75000000         4.54342713E-14
  -8.69999981         6.25730479E-13
  -8.64999962         1.21146886E-12
  -8.60000038         1.70155285E-12
  -8.55000019         2.00334085E-12
  -8.50000000         2.03943177E-12
  -8.44999981         1.74951015E-12
  -8.39999962         1.09559182E-12
  -8.35000038         7.76201274E-14
  -8.30000019        -1.24182695E-12
  -8.25000000        -2.71568857E-12
  -8.19999981        -4.11095854E-12
  -8.14999962        -5.14034214E-12
  -8.10000038        -5.52475296E-12
  -8.05000019        -5.06707046E-12
  -8.00000000        -3.70811628E-12
  -7.94999981        -1.54155996E-12
  -7.90000010         1.21629649E-12
  -7.84999990         4.28332760E-12
  -7.80000019         7.36346487E-12
  -7.75000000         1.01672082E-11
  -7.69999981         1.23951283E-11
  -7.65000010         1.37037916E-11
  -7.59999990         1.36891427E-11
  -7.55000019         1.19191445E-11
  -7.50000000         8.02814152E-12
  -7.44999981         1.85726825E-12
  -7.40000010        -6.39770355E-12
  -7.34999990        -1.60815250E-11
  -7.30000019        -2.60655317E-11
  -7.25000000        -3.48536339E-11
  -7.19999981        -4.08070661E-11
  -7.15000010        -4.24476669E-11
  -7.09999990        -3.87618965E-11
  -7.05000019        -2.94125869E-11
  -7.00000000        -1.47869755E-11
  -6.94999981         4.12589104E-12
  -6.90000010         2.59537149E-11
  -6.84999990         4.91237849E-11
  -6.80000019         7.18934010E-11
  -6.75000000         9.22093166E-11
  -6.69999981         1.07516655E-10
  -6.65000010         1.14735714E-10
  -6.59999990         1.10599953E-10
  -6.55000019         9.23871188E-11
  -6.50000000         5.88386978E-11
  -6.44999981         1.08937425E-11
  -6.40000010        -4.81144811E-11
  -6.34999990        -1.12935335E-10
  -6.30000019        -1.77343890E-10
  -6.25000000        -2.35105185E-10
  -6.19999981        -2.80525020E-10
  -6.15000010        -3.08423398E-10
  -6.09999990        -3.13785636E-10
  -6.05000019        -2.91615954E-10
  -6.00000000        -2.37479869E-10
  -5.94999981        -1.48855026E-10
  -5.90000010        -2.68974391E-11
  -5.84999990         1.22122715E-10
  -5.80000019         2.86424939E-10
  -5.75000000         4.49642934E-10
  -5.69999981         5.92829175E-10
  -5.65000010         6.96861790E-10
  -5.59999990         7.44600603E-10
  -5.55000019         7.22436333E-10
  -5.50000000         6.21327434E-10
  -5.44999981         4.37616055E-10
  -5.40000010         1.73911580E-10
  -5.34999990        -1.60068014E-10
  -5.30000019        -5.46987233E-10
  -5.25000000        -9.62104729E-10
  -5.19999981        -1.37430134E-09
  -5.15000010        -1.74790937E-09
  -5.09999990        -2.04486539E-09
  -5.05000019        -2.22703123E-09
  -5.00000000        -2.25864771E-09
  -4.94999981        -2.10910112E-09
  -4.90000010        -1.75598514E-09
  -4.84999990        -1.18816601E-09
  -4.80000019        -4.08148543E-10
  -4.75000000         5.66612757E-10
  -4.69999981         1.70414893E-09
  -4.65000010         2.95997227E-09
  -4.59999990         4.27972324E-09
  -4.55000019         5.60278579E-09
  -4.50000000         6.86564405E-09
  -4.44999981         8.00622768E-09
  -4.40000010         8.96910279E-09
  -4.34999990         9.71070868E-09
  -4.30000019         1.02042774E-08
  -4.25000000         1.04440065E-08
  -4.19999981         1.04456497E-08
  -4.15000010         1.02486775E-08
  -4.09999990         9.91310944E-09
  -4.05000019         9.52217594E-09
  -4.00000000         9.18008070E-09
  -3.95000005         9.01301522E-09
  -3.90000010         9.16756537E-09
  -3.84999990         9.80221238E-09
  -3.79999995         1.10788694E-08
  -3.75000000         1.31486626E-08
  -3.70000005         1.61501639E-08
  -3.65000010         2.01951540E-08
  -3.59999990         2.53801868E-08
  -3.54999995         3.17840865E-08
  -3.50000000         3.94765927E-08
  -3.45000005         4.85207714E-08
  -3.40000010         5.89745852E-08
  -3.34999990         7.08958652E-08
  -3.29999995         8.43438741E-08
  -3.25000000         9.93970914E-08
  -3.20000005         1.16160628E-07
  -3.15000010         1.34794760E-07
  -3.09999990         1.55539965E-07
  -3.04999995         1.78710621E-07
  -3.00000000         2.04723136E-07
  -2.95000005         2.34096603E-07
  -2.90000010         2.67473382E-07
  -2.84999990         3.05573849E-07
  -2.79999995         3.49254975E-07
  -2.75000000         3.99471759E-07
  -2.70000005         4.57247239E-07
  -2.65000010         5.23776919E-07
  -2.59999990         6.00362455E-07
  -2.54999995         6.88384887E-07
  -2.50000000         7.89412240E-07
  -2.45000005         9.05224226E-07
  -2.40000010         1.03770526E-06
  -2.34999990         1.18892058E-06
  -2.29999995         1.36116603E-06
  -2.25000000         1.55703060E-06
  -2.20000005         1.77946765E-06
  -2.15000010         2.03188756E-06
  -2.09999990         2.31812351E-06
  -2.04999995         2.64231517E-06
  -2.00000000         3.00952115E-06
  -1.95000005         3.42499675E-06
  -1.89999998         3.89473689E-06
  -1.85000002         4.42581859E-06
  -1.79999995         5.02594139E-06
  -1.75000000         5.70422480E-06
  -1.70000005         6.47017305E-06
  -1.64999998         7.33487059E-06
  -1.60000002         8.31054513E-06
  -1.54999995         9.41050894E-06
  -1.50000000         1.06489806E-05
  -1.45000005         1.20432233E-05
  -1.39999998         1.36119306E-05
  -1.35000002         1.53752153E-05
  -1.29999995         1.73568096E-05
  -1.25000000         1.95816465E-05
  -1.20000005         2.20770780E-05
  -1.14999998         2.48753677E-05
  -1.10000002         2.80096592E-05
  -1.04999995         3.15177022E-05
  -1.00000000         3.54440199E-05
 -0.949999988         3.98338780E-05
 -0.899999976         4.47386337E-05
 -0.850000024         5.02161820E-05
 -0.800000012         5.63279973E-05
 -0.750000000         6.31440635E-05
 -0.699999988         7.07402796E-05
 -0.649999976         7.92009159E-05
 -0.600000024         8.86173366E-05
 -0.550000012         9.90895714E-05
 -0.500000000         1.10731395E-04
 -0.449999988         1.23667865E-04
 -0.400000006         1.38024072E-04
 -0.349999994         1.53953122E-04
 -0.300000012         1.71610358E-04
 -0.250000000         1.91169835E-04
 -0.200000003         2.12823972E-04
 -0.150000006         2.36781387E-04
 -0.100000001         2.63282360E-04
  -5.00000007E-02     2.92569544E-04
   0.00000000         3.24899796E-04
   5.00000007E-02     3.60579870E-04
  0.100000001         3.99929413E-04
  0.150000006         4.43275261E-04
  0.200000003         4.91016952E-04
  0.250000000         5.43549133E-04
  0.300000012         6.01356500E-04
  0.349999994         6.64868159E-04
  0.400000006         7.34601286E-04
  0.449999988         8.11139587E-04
  0.500000000         8.95096047E-04
  0.550000012         9.87092615E-04
  0.600000024         1.08786824E-03
  0.649999976         1.19820889E-03
  0.699999988         1.31892972E-03
  0.750000000         1.45085889E-03
  0.800000012         1.59493717E-03
  0.850000024         1.75214629E-03
  0.899999976         1.92358834E-03
  0.949999988         2.11052084E-03
   1.00000000         2.31423462E-03
   1.04999995         2.53591686E-03
   1.10000002         2.77706794E-03
   1.14999998         3.03931488E-03
   1.20000005         3.32419574E-03
   1.25000000         3.63320764E-03
   1.29999995         3.96838831E-03
   1.35000002         4.33154264E-03
   1.39999998         4.72483970E-03
   1.45000005         5.15066739E-03
   1.50000000         5.61148487E-03
   1.54999995         6.10955060E-03
   1.60000002         6.64730417E-03
   1.64999998         7.22762896E-03
   1.70000005         7.85348658E-03
   1.75000000         8.52776598E-03
   1.79999995         9.25399270E-03
   1.85000002         1.00352839E-02
   1.89999998         1.08756684E-02
   1.95000005         1.17782792E-02
   2.00000000         1.27469730E-02
   2.04999995         1.37860160E-02
   2.09999990         1.49003342E-02
   2.15000010         1.60945561E-02
   2.20000005         1.73728988E-02
   2.25000000         1.87397748E-02
   2.29999995         2.02001408E-02
   2.34999990         2.17591133E-02
   2.40000010         2.34222449E-02
   2.45000005         2.51963809E-02
   2.50000000         2.70856414E-02
   2.54999995         2.90962644E-02
   2.59999990         3.12358439E-02
   2.65000010         3.35091501E-02
   2.70000005         3.59227881E-02
   2.75000000         3.84828821E-02
   2.79999995         4.11978625E-02
   2.84999990         4.40734960E-02
   2.90000010         4.71146666E-02
   2.95000005         5.03304936E-02
   3.00000000         5.37270829E-02
   3.04999995         5.73129132E-02
   3.09999990         6.10945262E-02
   3.15000010         6.50797114E-02
   3.20000005         6.92759231E-02
   3.25000000         7.36864582E-02
   3.29999995         7.83195123E-02
   3.34999990         8.31811577E-02
   3.40000010         8.82792324E-02
   3.45000005         9.36231911E-02
   3.50000000         9.92163494E-02
   3.54999995        0.105066836    
   3.59999990        0.111179583    
   3.65000010        0.117555529    
   3.70000005        0.124200918    
   3.75000000        0.131116614    
   3.79999995        0.138310939    
   3.84999990        0.145788938    
   3.90000010        0.153546691    
   3.95000005        0.161598578    
   4.00000000        0.169933543    
   4.05000019        0.178534687    
   4.09999990        0.187440991    
   4.15000010        0.196614459    
   4.19999981        0.206082478    
   4.25000000        0.215821192    
   4.30000019        0.225845486    
   4.34999990        0.236114815    
   4.40000010        0.246639326    
   4.44999981        0.257384568    
   4.50000000        0.268373400    
   4.55000019        0.279593647    
   4.59999990        0.291043162    
   4.65000010        0.302685261    
   4.69999981        0.314498246    
   4.75000000        0.326442301    
   4.80000019        0.338532150    
   4.84999990        0.350704670    
   4.90000010        0.362975389    
   4.94999981        0.375328064    
   5.00000000        0.387703329    
   5.05000019        0.400056511    
   5.09999990        0.412388235    
   5.15000010        0.424625516    
   5.19999981        0.436790675    
   5.25000000        0.448777318    
   5.30000019        0.460598052    
   5.34999990        0.472192585    
   5.40000010        0.483493954    
   5.44999981        0.494479567    
   5.50000000        0.505123258    
   5.55000019        0.515309036    
   5.59999990        0.525092125    
   5.65000010        0.534299195    
   5.69999981        0.542827487    
   5.75000000        0.550753772    
   5.80000019        0.557956338    
   5.84999990        0.564386725    
   5.90000010        0.570059776    
   5.94999981        0.574833453    
   6.00000000        0.578707218    
   6.05000019        0.581583023    
   6.09999990        0.583373845    
   6.15000010        0.584003508    
   6.19999981        0.583447933    
   6.25000000        0.581663966    
   6.30000019        0.578593493    
   6.34999990        0.574075222    
   6.40000010        0.568045795    
   6.44999981        0.560464442    
   6.50000000        0.551531196    
   6.55000019        0.541030884    
   6.59999990        0.528925002    
   6.65000010        0.515053630    
   6.69999981        0.499535650    
   6.75000000        0.482043207    
   6.80000019        0.462609857    
   6.84999990        0.441455096    
   6.90000010        0.418300718    
   6.94999981        0.393573344    
   7.00000000        0.366827011    
   7.05000019        0.338184476    
   7.09999990        0.307709932    
   7.15000010        0.275123596    
   7.19999981        0.240656823    
   7.25000000        0.204302594    
   7.30000019        0.165970385    
   7.34999990        0.125649080    
   7.40000010         8.35843161E-02
   7.44999981         3.99624705E-02
   7.50000000        -5.70331933E-03
   7.55000019        -5.29580787E-02
   7.59999990       -0.102030031    
   7.65000010       -0.153029010    
   7.69999981       -0.205144078    
   7.75000000       -0.258431017    
   7.80000019       -0.312878549    
   7.84999990       -0.368760765    
   7.90000010       -0.425899565    
   7.94999981       -0.483980030    
   8.00000000       -0.543303311    
   8.05000019       -0.603135645    
   8.10000038       -0.663546085    
   8.14999962       -0.724678695    
   8.19999981       -0.785560966    
   8.25000000       -0.846643984    
   8.30000019       -0.908241391    
   8.35000038       -0.969515026    
   8.39999962        -1.03064334    
   8.44999981        -1.09135389    
   8.50000000        -1.15117526    
   8.55000019        -1.21024621    
   8.60000038        -1.26823449    
   8.64999962        -1.32538331    
   8.69999981        -1.38110554    
   8.75000000        -1.43527269    
   8.80000019        -1.48750567    
   8.85000038        -1.53752613    
   8.89999962        -1.58560491    
   8.94999981        -1.63118088    
   9.00000000        -1.67448211    
   9.05000019        -1.71594059    
   9.10000038        -1.75462329    
   9.14999962        -1.79014862    
   9.19999981        -1.82285762    
   9.25000000        -1.85222888    
   9.30000019        -1.87801826    
   9.35000038        -1.89993727    
   9.39999962        -1.91823721    
   9.44999981        -1.93294370    
   9.50000000        -1.94385445    
   9.55000019        -1.95109844    
   9.60000038        -1.95420456    
   9.64999962        -1.95300174    
   9.69999981        -1.94775021    
   9.75000000        -1.93818855    
   9.80000019        -1.92476189    
   9.85000038        -1.90740645    
   9.89999962        -1.88578022    
   9.94999981        -1.86007655    
   10.0000000        -1.83016849    
   10.0500002        -1.79607618    
   10.1000004        -1.75770140    
   10.1499996        -1.71485233    
   10.1999998        -1.66830158    
   10.2500000        -1.61782968    
   10.3000002        -1.56369805    
   10.3500004        -1.50587285    
   10.3999996        -1.44425869    
   10.4499998        -1.37890446    
   10.5000000        -1.30993557    
   10.5500002        -1.23778296    
   10.6000004        -1.16294694    
   10.6499996        -1.08576095    
   10.6999998        -1.00656760    
   10.7500000       -0.925346553    
   10.8000002       -0.841954350    
   10.8500004       -0.756466210    
   10.8999996       -0.668786407    
   10.9499998       -0.579233289    
   11.0000000       -0.488300055    
   11.0500002       -0.396356791    
   11.1000004       -0.303829014    
   11.1499996       -0.211065039    
   11.1999998       -0.118170567    
   11.2500000        -2.52620392E-02
   11.3000002         6.74851239E-02
   11.3500004        0.159940645    
   11.3999996        0.251852542    
   11.4499998        0.342911750    
   11.5000000        0.432730615    
   11.5500002        0.521005094    
   11.6000004        0.607532203    
   11.6499996        0.692162931    
   11.6999998        0.774785638    
   11.7500000        0.855248630    
   11.8000002        0.933225751    
   11.8500004         1.00844491    
   11.8999996         1.08065176    
   11.9499998         1.14966226    
   12.0000000         1.21578288    
   12.0500002         1.27900743    
   12.1000004         1.33943975    
   12.1499996         1.39653862    
   12.1999998         1.44993377    
   12.2500000         1.49897695    
   12.3000002         1.54318261    
   12.3500004         1.58273482    
   12.3999996         1.61815631    
   12.4499998         1.65021408    
   12.5000000         1.67928159    
   12.5500002         1.70536005    
   12.6000004         1.72819591    
   12.6499996         1.74708986    
   12.6999998         1.76122248    
   12.7500000         1.77010107    
   12.8000002         1.77424419    
   12.8500004         1.77402318    
   12.8999996         1.77002990    
   12.9499998         1.76322114    
   13.0000000         1.75361156    
   13.0500002         1.74102521    
   13.1000004         1.72540927    
   13.1499996         1.70651174    
   13.1999998         1.68391240    
   13.2500000         1.65787208    
   13.3000002         1.62861156    
   13.3500004         1.59649348    
   13.3999996         1.56134784    
   13.4499998         1.52393341    
   13.5000000         1.48423135    
   13.5500002         1.44257593    
   13.6000004         1.39947891    
   13.6499996         1.35515273    
   13.6999998         1.30960286    
   13.7500000         1.26235747    
   13.8000002         1.21367776    
   13.8500004         1.16328967    
   13.8999996         1.11121714    
   13.9499998         1.05784035    
   14.0000000         1.00379550    
   14.0500002        0.949688077    
   14.1000004        0.896147847    
   14.1499996        0.843333006    
   14.1999998        0.790971339    
   14.2500000        0.738648236    
   14.3000002        0.686273277    
   14.3500004        0.633459091    
   14.3999996        0.580733240    
   14.4499998        0.527758002    
   14.5000000        0.475722104    
   14.5500002        0.424668461    
   14.6000004        0.375327259    
   14.6499996        0.327237993    
   14.6999998        0.280617028    
   14.7500000        0.234990448    
   14.8000002        0.190522477    
   14.8500004        0.147106439    
   14.8999996        0.104975216    
   14.9499998         6.45124167E-02
   15.0000000         2.61789579E-02
   15.0500002        -1.05053447E-02
   15.1000004        -4.54647467E-02
   15.1499996        -7.89465159E-02
   15.1999998       -0.111010246    
   15.2500000       -0.141594097    
   15.3000002       -0.170558915    
   15.3500004       -0.197879419    
   15.3999996       -0.223526686    
   15.4499998       -0.247564569    
   15.5000000       -0.270339012    
   15.5500002       -0.291817755    
   15.6000004       -0.311713994    
   15.6499996       -0.329827696    
   15.6999998       -0.345894068    
   15.7500000       -0.359884262    
   15.8000002       -0.371916860    
   15.8500004       -0.382538348    
   15.8999996       -0.391980648    
   15.9499998       -0.400643677    
   16.0000000       -0.408502340    
   16.0499992       -0.415424049    
   16.1000004       -0.421192855    
   16.1499996       -0.425531358    
   16.2000008       -0.428670466    
   16.2500000       -0.430475533    
   16.2999992       -0.430958748    
   16.3500004       -0.430096447    
   16.3999996       -0.428054452    
   16.4500008       -0.425062776    
   16.5000000       -0.421378344    
   16.5499992       -0.417542189    
   16.6000004       -0.413767338    
   16.6499996       -0.409964830    
   16.7000008       -0.405682951    
   16.7500000       -0.400395423    
   16.7999992       -0.393751144    
   16.8500004       -0.385797203    
   16.8999996       -0.376990616    
   16.9500008       -0.368025869    
   17.0000000       -0.359599441    
   17.0499992       -0.351891518    
   17.1000004       -0.344744503    
   17.1499996       -0.337583601    
   17.2000008       -0.329783052    
   17.2500000       -0.320875436    
   17.2999992       -0.310843110    
   17.3500004       -0.300029397    
   17.3999996       -0.289056331    
   17.4500008       -0.278548151    
   17.5000000       -0.268977106    
   17.5499992       -0.260457367    
   17.6000004       -0.252618253    
   17.6499996       -0.244840816    
   17.7000008       -0.236438245    
   17.7500000       -0.227091417    
   17.7999992       -0.217019096    
   17.8500004       -0.206908256    
   17.8999996       -0.197666690    
   17.9500008       -0.189853504    
   18.0000000       -0.183386013    
   18.0499992       -0.177468956    
   18.1000004       -0.171031058    
   18.1499996       -0.163278967    
   18.2000008       -0.154217139    
   18.2500000       -0.144734383    
   18.2999992       -0.136156604    
   18.3500004       -0.129528344    
   18.3999996       -0.124990508    
   18.4500008       -0.121623054    
   18.5000000       -0.117918953    
   18.5499992       -0.112527765    
   18.6000004       -0.105004087    
   18.6499996        -9.60570797E-02
   18.7000008        -8.72075856E-02
   18.7500000        -8.00400227E-02
   18.7999992        -7.54694268E-02
   18.8500004        -7.33502060E-02
   18.8999996        -7.26404488E-02
   18.9500008        -7.19153434E-02
   19.0000000        -6.99986145E-02
   19.0499992        -6.63438514E-02
   19.1000004        -6.11401200E-02
   19.1499996        -5.51057272E-02
   19.2000008        -4.91595455E-02
   19.2500000        -4.41383608E-02
   19.2999992        -4.05775122E-02
   19.3500004        -3.86127643E-02
   19.3999996        -3.79541144E-02
   19.4500008        -3.79440524E-02
   19.5000000        -3.77345197E-02
   19.5499992        -3.65317464E-02
   19.6000004        -3.38710025E-02
   19.6499996        -2.98014823E-02
   19.7000008        -2.48902868E-02
   19.7500000        -2.00556107E-02
   19.7999992        -1.62861049E-02
   19.8500004        -1.43496459E-02
   19.8999996        -1.45657156E-02
   19.9500008        -1.66837554E-02
   20.0000000        -1.98645927E-02
   20.0499992        -2.28075013E-02
   20.1000004        -2.40511633E-02
   20.1499996        -2.24493034E-02
   20.2000008        -1.77035201E-02
   20.2500000        -1.07140159E-02
   20.2999992        -3.48868757E-03
   20.3500004         1.50200306E-03
   20.3999996         2.35240045E-03
   20.4500008        -1.31363061E-03
   20.5000000        -7.96205271E-03
   20.5499992        -1.46500338E-02
   20.6000004        -1.82730090E-02
   20.6499996        -1.69972945E-02
   20.7000008        -1.11576132E-02
   20.7500000        -3.13999038E-03
   20.7999992         3.72622302E-03
   20.8500004         6.71506068E-03
   20.8999996         4.92014783E-03
   20.9500008        -4.42465767E-04
   21.0000000        -6.73695002E-03
   21.0499992        -1.11927018E-02
   21.1000004        -1.21027371E-02
   21.1499996        -9.39038768E-03
   21.2000008        -4.38581081E-03
   21.2500000         9.38040554E-04
   21.2999992         4.81936382E-03
   21.3500004         6.27043936E-03
   21.3999996         5.21092862E-03
   21.4500008         2.27299286E-03
   21.5000000        -1.52230496E-03
   21.5499992        -5.06453728E-03
   21.6000004        -7.38613913E-03
   21.6499996        -7.85131380E-03
   21.7000008        -6.30878517E-03
   21.7500000        -3.16163036E-03
   21.7999992         7.13167829E-04
   21.8500004         4.21209121E-03
   21.8999996         6.34639431E-03
   21.9500008         6.54560002E-03
   22.0000000         4.81038401E-03
   22.0499992         1.68334786E-03
   22.1000004        -1.91393471E-03
   22.1499996        -4.90565551E-03
   22.2000008        -6.30871812E-03
   22.2500000        -5.49647585E-03
   22.2999992        -2.45559704E-03
   22.3500004         2.05680355E-03
   22.3999996         6.59849308E-03
   22.4500008         9.46321897E-03
   22.5000000         9.36013553E-03
   22.5499992         6.07329560E-03
   22.6000004         7.34812522E-04
   22.6499996        -4.52518556E-03
   22.7000008        -7.47347996E-03
   22.7500000        -6.80694543E-03
   22.7999992        -2.78712553E-03
   22.8500004         2.88352626E-03
   22.8999996         7.89765548E-03
   22.9500008         1.04479920E-02
   23.0000000         1.00114737E-02
   23.0499992         7.42065627E-03
   23.1000004         4.25361656E-03
   23.1499996         1.95285236E-03
   23.2000008         1.19196530E-03
   23.2500000         1.79506489E-03
   23.2999992         3.13860062E-03
   23.3500004         4.67695901E-03
   23.3999996         6.21849764E-03
   23.4500008         7.81876873E-03
   23.5000000         9.45341308E-03
   23.5499992         1.07987951E-02
   23.6000004         1.13321450E-02
   23.6499996         1.07079837E-02
   23.7000008         9.13167838E-03
   23.7500000         7.42742419E-03
   23.7999992         6.70045847E-03
   23.8500004         7.76357576E-03
   23.8999996         1.06758391E-02
   23.9500008         1.46670723E-02
   24.0000000         1.84993334E-02
   24.0499992         2.10469086E-02
   24.1000004         2.17804387E-02
   24.1499996         2.09332742E-02
   24.2000008         1.93172880E-02
   24.2500000         1.79531649E-02
   24.2999992         1.77078303E-02
   24.3500004         1.90562606E-02
   24.3999996         2.19971146E-02
   24.4500008         2.60738079E-02
   24.5000000         3.04733999E-02
   24.5499992         3.42397839E-02
   24.6000004         3.65761146E-02
   24.6499996         3.71794626E-02
   24.7000008         3.64285111E-02
   24.7500000         3.53034623E-02
   24.7999992         3.49962749E-02
   24.8500004         3.63895148E-02
   24.8999996         3.96828167E-02
   24.9500008         4.43682298E-02
   25.0000000         4.95426729E-02
   25.0499992         5.43871410E-02
   25.1000004         5.84751703E-02
   25.1499996         6.17918558E-02
   25.2000008         6.44668713E-02
   25.2500000         6.65454715E-02
   25.2999992         6.79603145E-02
   25.3500004         6.87590912E-02
   25.3999996         6.94054216E-02
   25.4500008         7.08015487E-02