  -15.0000000         1.91963294E-37
  -14.9499998        -3.14362275E-37
  -14.8999996        -6.25559141E-37
  -14.8500004        -4.93591690E-38
  -14.8000002         7.76347420E-37
  -14.7500000         6.43512756E-37
  -14.6999998         9.42051748E-37
  -14.6499996        -6.03240290E-37
  -14.6000004        -1.82259829E-36
  -14.5500002        -1.38831262E-36
  -14.5000000        -5.82940879E-37
  -14.4499998         9.91722196E-37
  -14.3999996         1.61747671E-36
  -14.3500004         2.44295872E-36
  -14.3000002         7.45767680E-37
  -14.2500000        -7.53998032E-37
  -14.1999998        -2.00915797E-36
  -14.1499996        -1.60856078E-36
  -14.1000004        -2.77444877E-37
  -14.0500002         1.25346789E-36
  -14.0000000         2.20018495E-36
  -13.9499998         2.00234582E-36
  -13.8999996         8.85990841E-37
  -13.8500004        -7.28657220E-37
  -13.8000002        -2.29311853E-36
  -13.7500000        -3.15011680E-36
  -13.6999998        -1.88438923E-36
  -13.6499996        -5.00219103E-38
  -13.6000004         1.91698455E-36
  -13.5500002         2.64216875E-36
  -13.5000000         1.98791240E-36
  -13.4499998         5.05829958E-37
  -13.3999996        -1.24089360E-36
  -13.3500004        -1.79219446E-36
  -13.3000002        -1.36864772E-36
  -13.2500000         7.36415806E-38
  -13.1999998         1.30067618E-36
  -13.1499996         1.28082088E-36
  -13.1000004         1.34015768E-37
  -13.0500002        -1.31272035E-36
  -13.0000000        -2.51832230E-36
  -12.9499998        -2.04191419E-36
  -12.8999996         6.75578007E-37
  -12.8500004         4.47899902E-36
  -12.8000002         7.06267771E-36
  -12.7500000         1.77594245E-36
  -12.6999998        -1.56994675E-35
  -12.6499996        -3.98754345E-35
  -12.6000004        -4.14114377E-35
  -12.5500002         2.83467277E-35
  -12.5000000         1.90433414E-34
  -12.4499998         3.49919184E-34
  -12.3999996         2.42002213E-34
  -12.3500004        -4.45291862E-34
  -12.3000002        -1.67025956E-33
  -12.2500000        -2.53076201E-33
  -12.1999998        -1.22100306E-33
  -12.1499996         3.82931942E-33
  -12.1000004         1.15489624E-32
  -12.0500002         1.59807032E-32
  -12.0000000         7.13638727E-33
  -11.9499998        -2.24161395E-32
  -11.8999996        -6.61626408E-32
  -11.8500004        -9.43336744E-32
  -11.8000002        -5.79666063E-32
  -11.7500000         8.46327133E-32
  -11.6999998         3.21158363E-31
  -11.6499996         5.37431597E-31
  -11.6000004         5.03772351E-31
  -11.5500002        -5.93166498E-32
  -11.5000000        -1.29548496E-30
  -11.4499998        -2.90523354E-30
  -11.3999996        -3.82625555E-30
  -11.3500004        -2.20938056E-30
  -11.3000002         3.81465747E-30
  -11.2500000         1.41978863E-29
  -11.1999998         2.42871954E-29
  -11.1499996         2.33474348E-29
  -11.1000004        -2.30622512E-30
  -11.0500002        -5.87669717E-29
  -11.0000000        -1.28427689E-28
  -10.9499998        -1.58585224E-28
  -10.8999996        -7.23694899E-29
  -10.8500004         1.83399135E-28
  -10.8000002         5.60237421E-28
  -10.7500000         8.43687220E-28
  -10.6999998         6.77578506E-28
  -10.6499996        -2.58371639E-28
  -10.6000004        -1.93193365E-27
  -10.5500002        -3.65219449E-27
  -10.5000000        -4.04189833E-27
  -10.4499998        -1.54529560E-27
  -10.3999996         4.49755718E-27
  -10.3500004         1.25915235E-26
  -10.3000002         1.84350492E-26
  -10.2500000         1.57887352E-26
  -10.1999998        -6.45359335E-28
  -10.1499996        -3.08295254E-26
  -10.1000004        -6.52478873E-26
  -10.0500002        -8.37961272E-26
  -10.0000000        -6.05963011E-26
  -9.94999981         2.37503139E-26
  -9.89999962         1.64188973E-25
  -9.85000038         3.14129589E-25
  -9.80000019         3.81070403E-25
  -9.75000000         2.49061507E-25
  -9.69999981        -1.63204548E-25
  -9.64999962        -8.16982663E-25
  -9.60000038        -1.47665177E-24
  -9.55000019        -1.70389262E-24
  -9.50000000        -9.88674245E-25
  -9.44999981         9.60772629E-25
  -9.39999962         3.84402374E-24
  -9.35000038         6.50608180E-24
  -9.30000019         7.05339231E-24
  -9.25000000         3.54852630E-24
  -9.19999981        -4.76964670E-24
  -9.14999962        -1.61803939E-23
  -9.10000038        -2.58706587E-23
  -9.05000019        -2.68405947E-23
  -9.00000000        -1.26934575E-23
  -8.94999981         1.82460971E-23
  -8.89999962         5.91145415E-23
  -8.85000038         9.32978093E-23
  -8.80000019         9.78642348E-23
  -8.75000000         5.22327493E-23
  -8.69999981        -4.97008624E-23
  -8.64999962        -1.88281597E-22
  -8.60000038        -3.13598539E-22
  -8.55000019        -3.53459011E-22
  -8.50000000        -2.36677280E-22
  -8.44999981         7.10023030E-23
  -8.39999962         5.28442345E-22
  -8.35000038         9.95389285E-22
  -8.30000019         1.24410125E-21
  -8.25000000         1.02192338E-21
  -8.19999981         1.63742874E-22
  -8.14999962        -1.27385875E-21
  -8.10000038        -2.91389174E-21
  -8.05000019        -4.06790623E-21
  -8.00000000        -3.90844495E-21
  -7.94999981        -1.80419764E-21
  -7.90000010         2.26952793E-21
  -7.84999990         7.41516367E-21
  -7.80000019         1.17936059E-20
  -7.75000000         1.30433151E-20
  -7.69999981         9.12422948E-21
  -7.65000010        -6.33830426E-22
  -7.59999990        -1.46711629E-20
  -7.55000019        -2.89660911E-20
  -7.50000000        -3.77381057E-20
  -7.44999981        -3.51022332E-20
  -7.40000010        -1.73294839E-20
  -7.34999990         1.49391743E-20
  -7.30000019         5.53242498E-20
  -7.25000000         9.19143645E-20
  -7.19999981         1.09487875E-19
  -7.15000010         9.37051524E-20
  -7.09999990         3.65910356E-20
  -7.05000019        -5.80702180E-20
  -7.00000000        -1.71379131E-19
  -6.94999981        -2.70094710E-19
  -6.90000010        -3.12993848E-19
  -6.84999990        -2.62701809E-19
  -6.80000019        -1.00610540E-19
  -6.75000000         1.59679488E-19
  -6.69999981         4.65986460E-19
  -6.65000010         7.32784881E-19
  -6.59999990         8.59353596E-19
  -6.55000019         7.57648793E-19
  -6.50000000         3.82769040E-19
  -6.44999981        -2.42801627E-19
  -6.40000010        -1.01861554E-18
  -6.34999990        -1.77322997E-18
  -6.30000019        -2.28868199E-18
  -6.25000000        -2.33993927E-18
  -6.19999981        -1.74595018E-18
  -6.15000010        -4.28183065E-19
  -6.09999990         1.53055245E-18
  -6.05000019         3.84060207E-18
  -6.00000000         5.99438186E-18
  -5.94999981         7.31404595E-18
  -5.90000010         7.07498745E-18
  -5.84999990         4.70185756E-18
  -5.80000019         4.08821739E-21
  -5.75000000        -6.61097428E-18
  -5.69999981        -1.40241061E-17
  -5.65000010        -2.04582329E-17
  -5.59999990        -2.37372100E-17
  -5.55000019        -2.17385149E-17
  -5.50000000        -1.29784043E-17
  -5.44999981         2.77532951E-18
  -5.40000010         2.39970158E-17
  -5.34999990         4.71539139E-17
  -5.30000019         6.68621802E-17
  -5.25000000         7.65662264E-17
  -5.19999981         6.97843975E-17
  -5.15000010         4.18332930E-17
  -5.09999990        -8.23389809E-18
  -5.05000019        -7.59217137E-17
  -5.00000000        -1.50387206E-16
  -4.94999981        -2.14890737E-16
  -4.90000010        -2.48972894E-16
  -4.84999990        -2.32373007E-16
  -4.80000019        -1.50246731E-16
  -4.75000000         1.21178227E-18
  -4.69999981         2.09986257E-16
  -4.65000010         4.45679250E-16
  -4.59999990         6.60455359E-16
  -4.55000019         7.94379262E-16
  -4.50000000         7.85365931E-16
  -4.44999981         5.83040094E-16
  -4.40000010         1.64686551E-16
  -4.34999990        -4.49637540E-16
  -4.30000019        -1.18661290E-15
  -4.25000000        -1.91785263E-15
  -4.19999981        -2.47023268E-15
  -4.15000010        -2.65013888E-15
  -4.09999990        -2.28076581E-15
  -4.05000019        -1.24836256E-15
  -4.00000000         4.50088321E-16
  -3.95000005         2.66794266E-15
  -3.90000010         5.09017546E-15
  -3.84999990         7.24564096E-15
  -3.79999995         8.55784661E-15
  -3.75000000         8.43586709E-15
  -3.70000005         6.39900950E-15
  -3.65000010         2.21931632E-15
  -3.59999990        -3.94301884E-15
  -3.54999995        -1.14429535E-14
  -3.50000000        -1.91261547E-14
  -3.45000005        -2.54055284E-14
  -3.40000010        -2.84549639E-14
  -3.34999990        -2.65164850E-14
  -3.29999995        -1.82924490E-14
  -3.25000000        -3.36722469E-15
  -3.20000005         1.74193511E-14
  -3.15000010         4.17389647E-14
  -3.09999990         6.57722507E-14
  -3.04999995         8.45094190E-14
  -3.00000000         9.23843928E-14
  -2.95000005         8.42184124E-14
  -2.90000010         5.63777371E-14
  -2.84999990         7.98057079E-15
  -2.79999995        -5.80707493E-14
  -2.75000000        -1.34485074E-13
  -2.70000005        -2.09652716E-13
  -2.65000010        -2.68570539E-13
  -2.59999990        -2.94697779E-13
  -2.54999995        -2.72654620E-13
  -2.50000000        -1.91493035E-13
  -2.45000005        -4.80899161E-14
  -2.40000010         1.49939197E-13
  -2.34999990         3.82489504E-13
  -2.29999995         6.17011704E-13
  -2.25000000         8.10865047E-13
  -2.20000005         9.16174038E-13
  -2.15000010         8.87001356E-13
  -2.09999990         6.88185078E-13
  -2.04999995         3.04713232E-13
  -2.00000000        -2.49883989E-13
  -1.95000005        -9.27866508E-13
  -1.89999998        -1.64606078E-12
  -1.85000002        -2.29047900E-12
  -1.79999995        -2.72751765E-12
  -1.75000000        -2.82155657E-12
  -1.70000005        -2.45760357E-12
  -1.64999998        -1.56643416E-12
  -1.60000002        -1.48713317E-13
  -1.54999995         1.70629429E-12
  -1.50000000         3.81185014E-12
  -1.45000005         5.88857565E-12
  -1.39999998         7.58570637E-12
  -1.35000002         8.51941868E-12
  -1.29999995         8.32616441E-12
  -1.25000000         6.72635168E-12
  -1.20000005         3.59070586E-12
  -1.14999998        -1.00011167E-12
  -1.10000002        -6.71405553E-12
  -1.04999995        -1.29543772E-11
  -1.00000000        -1.88836221E-11
 -0.949999988        -2.34897449E-11
 -0.899999976        -2.56943061E-11
 -0.850000024        -2.44964049E-11
 -0.800000012        -1.91392839E-11
 -0.750000000        -9.28060840E-12
 -0.699999988         4.85736451E-12
 -0.649999976         2.23826548E-11
 -0.600000024         4.16978778E-11
 -0.550000012         6.05536732E-11
 -0.500000000         7.62009900E-11
 -0.449999988         8.56422294E-11
 -0.400000006         8.59646521E-11
 -0.349999994         7.47278350E-11
 -0.300000012         5.03661730E-11
 -0.250000000         1.25488855E-11
 -0.200000003        -3.75491756E-11
 -0.150000006        -9.71232955E-11
 -0.100000001        -1.61793107E-10
  -5.00000007E-02    -2.25866464E-10
   0.00000000        -2.82810442E-10
   5.00000007E-02    -3.25899918E-10
  0.100000001        -3.48987589E-10
  0.150000006        -3.47309403E-10
  0.200000003        -3.18260890E-10
  0.250000000        -2.61993399E-10
  0.300000012        -1.81791512E-10
  0.349999994        -8.41149372E-11
  0.400000006         2.17250194E-11
  0.449999988         1.24271371E-10
  0.500000000         2.10909526E-10
  0.550000012         2.69115952E-10
  0.600000024         2.87815299E-10
  0.649999976         2.58651350E-10
  0.699999988         1.77139955E-10
  0.750000000         4.32461324E-11
  0.800000012        -1.38254574E-10
  0.850000024        -3.58205049E-10
  0.899999976        -6.03854688E-10
  0.949999988        -8.60352678E-10
   1.00000000        -1.11235166E-09
   1.04999995        -1.34596545E-09
   1.10000002        -1.55063795E-09
   1.14999998        -1.72068015E-09
   1.20000005        -1.85647431E-09
   1.25000000        -1.96481387E-09
   1.29999995        -2.05880024E-09
   1.35000002        -2.15693574E-09
   1.39999998        -2.28117014E-09
   1.45000005        -2.45548026E-09
   1.50000000        -2.70327249E-09
   1.54999995        -3.04608894E-09
   1.60000002        -3.50115381E-09
   1.64999998        -4.08000878E-09
   1.70000005        -4.78984408E-09
   1.75000000        -5.63212321E-09
   1.79999995        -6.60442190E-09
   1.85000002        -7.70281350E-09
   1.89999998        -8.92448604E-09
   1.95000005        -1.02707212E-08
   2.00000000        -1.17480630E-08
   2.04999995        -1.33707987E-08
   2.09999990        -1.51609534E-08
   2.15000010        -1.71503256E-08
   2.20000005        -1.93804244E-08
   2.25000000        -2.19032472E-08
   2.29999995        -2.47736498E-08
   2.34999990        -2.80531331E-08
   2.40000010        -3.18033635E-08
   2.45000005        -3.60863162E-08
   2.50000000        -4.09692795E-08
   2.54999995        -4.65149910E-08
   2.59999990        -5.27861275E-08
   2.65000010        -5.98533560E-08
   2.70000005        -6.77868002E-08
   2.75000000        -7.66728050E-08
   2.79999995        -8.66058159E-08
   2.84999990        -9.76986456E-08
   2.90000010        -1.10097439E-07
   2.95000005        -1.23943892E-07
   3.00000000        -1.39425879E-07
   3.04999995        -1.56749309E-07
   3.09999990        -1.76160171E-07
   3.15000010        -1.97908648E-07
   3.20000005        -2.22284740E-07
   3.25000000        -2.49595388E-07
   3.29999995        -2.80187493E-07
   3.34999990        -3.14404076E-07
   3.40000010        -3.52588472E-07
   3.45000005        -3.95191165E-07
   3.50000000        -4.42643909E-07
   3.54999995        -4.95453207E-07
   3.59999990        -5.54140115E-07
   3.65000010        -6.19319167E-07
   3.70000005        -6.91540038E-07
   3.75000000        -7.71604107E-07
   3.79999995        -8.60270006E-07
   3.84999990        -9.58476221E-07
   3.90000010        -1.06716914E-06
   3.95000005        -1.18757578E-06
   4.00000000        -1.32076525E-06
   4.05000019        -1.46809964E-06
   4.09999990        -1.63093864E-06
   4.15000010        -1.81089422E-06
   4.19999981        -2.00947761E-06
   4.25000000        -2.22842436E-06
   4.30000019        -2.46979494E-06
   4.34999990        -2.73547516E-06
   4.40000010        -3.02774060E-06
   4.44999981        -3.34911397E-06
   4.50000000        -3.70170324E-06
   4.55000019        -4.08904725E-06
   4.59999990        -4.51435471E-06
   4.65000010        -4.98036115E-06
   4.69999981        -5.49058177E-06
   4.75000000        -6.04894603E-06
   4.80000019        -6.65886500E-06
   4.84999990        -7.32570015E-06
   4.90000010        -8.05463424E-06
   4.94999981        -8.85067857E-06
   5.00000000        -9.71902045E-06
   5.05000019        -1.06664820E-05
   5.09999990        -1.16979290E-05
   5.15000010        -1.28207012E-05
   5.19999981        -1.40412249E-05
   5.25000000        -1.53686597E-05
   5.30000019        -1.68104380E-05
   5.34999990        -1.83755801E-05
   5.40000010        -2.00710765E-05
   5.44999981        -2.19066915E-05
   5.50000000        -2.38944704E-05
   5.55000019        -2.60457255E-05
   5.59999990        -2.83707686E-05
   5.65000010        -3.08856397E-05
   5.69999981        -3.35977929E-05
   5.75000000        -3.65261403E-05
   5.80000019        -3.96802898E-05
   5.84999990        -4.30771361E-05
   5.90000010        -4.67306854E-05
   5.94999981        -5.06522883E-05
   6.00000000        -5.48647986E-05
   6.05000019        -5.93921286E-05
   6.09999990        -6.42587329E-05
   6.15000010        -6.94759801E-05
   6.19999981        -7.50604595E-05
   6.25000000        -8.10152706E-05
   6.30000019        -8.73782919E-05
   6.34999990        -9.41775506E-05
   6.40000010        -1.01439247E-04
   6.44999981        -1.09194545E-04
   6.50000000        -1.17448901E-04
   6.55000019        -1.26224171E-04
   6.59999990        -1.35565206E-04
   6.65000010        -1.45500351E-04
   6.69999981        -1.56028022E-04
   6.75000000        -1.67198057E-04
   6.80000019        -1.79003458E-04
   6.84999990        -1.91503437E-04
   6.90000010        -2.04745054E-04
   6.94999981        -2.18746965E-04
   7.00000000        -2.33551822E-04
   7.05000019        -2.49139965E-04
   7.09999990        -2.65507842E-04
   7.15000010        -2.82692781E-04
   7.19999981        -3.00810614E-04
   7.25000000        -3.19852435E-04
   7.30000019        -3.39877733E-04
   7.34999990        -3.60835576E-04
   7.40000010        -3.82703933E-04
   7.44999981        -4.05547849E-04
   7.50000000        -4.29394975E-04
   7.55000019        -4.54330031E-04
   7.59999990        -4.80352464E-04
   7.65000010        -5.07417892E-04
   7.69999981        -5.35464264E-04
   7.75000000        -5.64639573E-04
   7.80000019        -5.94674435E-04
   7.84999990        -6.25685672E-04
   7.90000010        -6.57982135E-04
   7.94999981        -6.91329711E-04
   8.00000000        -7.25841848E-04
   8.05000019        -7.61332631E-04
   8.10000038        -7.97720742E-04
   8.14999962        -8.34699022E-04
   8.19999981        -8.72690929E-04
   8.25000000        -9.11850133E-04
   8.30000019        -9.51660739E-04
   8.35000038        -9.92090441E-04
   8.39999962        -1.03310379E-03
   8.44999981        -1.07455184E-03
   8.50000000        -1.11647125E-03
   8.55000019        -1.15885842E-03
   8.60000038        -1.20203395E-03
   8.64999962        -1.24549877E-03
   8.69999981        -1.28881622E-03
   8.75000000        -1.33155112E-03
   8.80000019        -1.37407193E-03
   8.85000038        -1.41634536E-03
   8.89999962        -1.45801273E-03
   8.94999981        -1.49910862E-03
   9.00000000        -1.53999636E-03
   9.05000019        -1.57968164E-03
   9.10000038        -1.61705562E-03
   9.14999962        -1.65355159E-03
   9.19999981        -1.68737280E-03
   9.25000000        -1.72037107E-03
   9.30000019        -1.75106130E-03
   9.35000038        -1.77964044E-03
   9.39999962        -1.80626754E-03
   9.44999981        -1.82842021E-03
   9.50000000        -1.84664759E-03
   9.55000019        -1.86367286E-03
   9.60000038        -1.87526864E-03
   9.64999962        -1.88299082E-03
   9.69999981        -1.88734592E-03
   9.75000000        -1.88513857E-03
   9.80000019        -1.87823328E-03
   9.85000038        -1.86645321E-03
   9.89999962        -1.85080152E-03
   9.94999981        -1.82867749E-03
   10.0000000        -1.80155481E-03
   10.0500002        -1.76563230E-03
   10.1000004        -1.72547577E-03
   10.1499996        -1.67879672E-03
   10.1999998        -1.62434729E-03
   10.2500000        -1.55919325E-03
   10.3000002        -1.48664194E-03
   10.3500004        -1.40720955E-03
   10.3999996        -1.32047781E-03
   10.4499998        -1.22770795E-03
   10.5000000        -1.12601672E-03
   10.5500002        -1.01376011E-03
   10.6000004        -8.88257171E-04
   10.6499996        -7.54775479E-04
   10.6999998        -6.17490616E-04
   10.7500000        -4.69879189E-04
   10.8000002        -3.20215215E-04
   10.8500004        -1.56986338E-04
   10.8999996         1.62042579E-05
   10.9499998         1.95404413E-04
   11.0000000         3.85995692E-04
   11.0500002         5.90082142E-04
   11.1000004         7.98045658E-04
   11.1499996         1.02064933E-03
   11.1999998         1.23969419E-03
   11.2500000         1.46622676E-03
   11.3000002         1.69487402E-03
   11.3500004         1.93270773E-03
   11.3999996         2.18522176E-03
   11.4499998         2.44739326E-03
   11.5000000         2.71308934E-03
   11.5500002         2.98582972E-03
   11.6000004         3.25302710E-03
   11.6499996         3.51625914E-03
   11.6999998         3.78406607E-03
   11.7500000         4.05547582E-03
   11.8000002         4.33656201E-03
   11.8500004         4.61672107E-03
   11.8999996         4.88337036E-03
   11.9499998         5.15418919E-03
   12.0000000         5.40543487E-03
   12.0500002         5.67285856E-03
   12.1000004         5.93432505E-03
   12.1499996         6.19141851E-03
   12.1999998         6.43852772E-03
   12.2500000         6.68409141E-03
   12.3000002         6.91936677E-03
   12.3500004         7.13213114E-03
   12.3999996         7.33165070E-03
   12.4499998         7.52524566E-03
   12.5000000         7.70735182E-03
   12.5500002         7.89118558E-03
   12.6000004         8.05557799E-03
   12.6499996         8.19849595E-03
   12.6999998         8.32481589E-03
   12.7500000         8.42096005E-03
   12.8000002         8.49464256E-03
   12.8500004         8.54359008E-03
   12.8999996         8.58497713E-03
   12.9499998         8.59874859E-03
   13.0000000         8.60272907E-03
   13.0500002         8.59785918E-03
   13.1000004         8.56389944E-03
   13.1499996         8.49038363E-03
   13.1999998         8.38536303E-03
   13.2500000         8.25987756E-03
   13.3000002         8.11944623E-03
   13.3500004         7.95751065E-03
   13.3999996         7.77870044E-03
   13.4499998         7.58712087E-03
   13.5000000         7.36015616E-03
   13.5500002         7.09511712E-03
   13.6000004         6.79102493E-03
   13.6499996         6.44953270E-03
   13.6999998         6.09048828E-03
   13.7500000         5.73214609E-03
   13.8000002         5.37065743E-03
   13.8500004         4.98917187E-03
   13.8999996         4.60385066E-03
   13.9499998         4.16432088E-03
   14.0000000         3.70002142E-03
   14.0500002         3.19780991E-03
   14.1000004         2.68086209E-03
   14.1499996         2.14674510E-03
   14.1999998         1.63236097E-03
   14.2500000         1.10815524E-03
   14.3000002         5.97381266E-04
   14.3500004         6.41095758E-05
   14.3999996        -4.80258517E-04
   14.4499998        -1.01565872E-03
   14.5000000        -1.56909775E-03
   14.5500002        -2.13608192E-03
   14.6000004        -2.70527066E-03
   14.6499996        -3.29954573E-03
   14.6999998        -3.90845211E-03
   14.7500000        -4.49840399E-03
   14.8000002        -5.05049666E-03
   14.8500004        -5.56313386E-03
   14.8999996        -6.03111461E-03
   14.9499998        -6.50190189E-03
   15.0000000        -6.99240528E-03
   15.0500002        -7.52378441E-03
   15.1000004        -8.06765538E-03
   15.1499996        -8.58398899E-03
   15.1999998        -9.03831981E-03
   15.2500000        -9.40850470E-03
   15.3000002        -9.71550588E-03
   15.3500004        -9.98415612E-03
   15.3999996        -1.02566574E-02
   15.4499998        -1.05480533E-02
   15.5000000        -1.08651686E-02
   15.5500002        -1.11923898E-02
   15.6000004        -1.14946254E-02
   15.6499996        -1.17450664E-02
   15.6999998        -1.19201802E-02
   15.7500000        -1.20148323E-02
   15.8000002        -1.20432852E-02
   15.8500004        -1.20298285E-02
   15.8999996        -1.20088570E-02
   15.9499998        -1.20011512E-02
   16.0000000        -1.20117683E-02
   16.0499992        -1.20222988E-02
   16.1000004        -1.20001389E-02
   16.1499996        -1.19087286E-02
   16.2000008        -1.17357476E-02
   16.2500000        -1.14840083E-02
   16.2999992        -1.11761997E-02
   16.3500004        -1.08543187E-02
   16.3999996        -1.05470363E-02
   16.4500008        -1.02719301E-02
   16.5000000        -1.00211324E-02
   16.5499992        -9.77408886E-03
   16.6000004        -9.49903019E-03
   16.6499996        -9.16668680E-03
   16.7000008        -8.75806157E-03
   16.7500000        -8.26823805E-03
   16.7999992        -7.71318423E-03
   16.8500004        -7.14056985E-03
   16.8999996        -6.58332836E-03
   16.9500008        -6.08364353E-03
   17.0000000        -5.66485198E-03
   17.0499992        -5.30965999E-03
   17.1000004        -4.96210996E-03
   17.1499996        -4.56624711E-03
   17.2000008        -4.05810820E-03
   17.2500000        -3.43272602E-03
   17.2999992        -2.74516921E-03
   17.3500004        -2.07600300E-03
   17.3999996        -1.51035481E-03
   17.4500008        -1.07415696E-03
   17.5000000        -7.44580931E-04
   17.5499992        -4.43298835E-04
   17.6000004        -7.76650340E-05
   17.6499996         3.93259106E-04
   17.7000008         9.62789694E-04
   17.7500000         1.58180692E-03
   17.7999992         2.16555526E-03
   17.8500004         2.63241702E-03
   17.8999996         2.97093880E-03
   17.9500008         3.20747239E-03
   18.0000000         3.41286487E-03
   18.0499992         3.63994390E-03
   18.1000004         3.91756324E-03
   18.1499996         4.26572328E-03
   18.2000008         4.65662684E-03
   18.2500000         5.03429770E-03
   18.2999992         5.36278356E-03
   18.3500004         5.61582623E-03
   18.3999996         5.76674938E-03
   18.4500008         5.85046271E-03
   18.5000000         5.89703070E-03
   18.5499992         5.95725095E-03
   18.6000004         6.05693879E-03
   18.6499996         6.21083006E-03
   18.7000008         6.39325986E-03
   18.7500000         6.55555166E-03
   18.7999992         6.66261744E-03
   18.8500004         6.69802632E-03
   18.8999996         6.63761329E-03
   18.9500008         6.50877273E-03
   19.0000000         6.33349223E-03
   19.0499992         6.17091637E-03
   19.1000004         6.05763867E-03
   19.1499996         6.00814540E-03
   19.2000008         6.01665489E-03
   19.2500000         6.05206797E-03
   19.2999992         6.06331974E-03
   19.3500004         6.00038143E-03
   19.3999996         5.83479879E-03
   19.4500008         5.56923216E-03
   19.5000000         5.26312832E-03
   19.5499992         4.98126028E-03
   19.6000004         4.77914605E-03
   19.6499996         4.67872107E-03
   19.7000008         4.65745013E-03
   19.7500000         4.64204792E-03
   19.7999992         4.53552138E-03
   19.8500004         4.29011695E-03
   19.8999996         3.91657045E-03
   19.9500008         3.50119686E-03
   20.0000000         3.14607262E-03
   20.0499992         2.92717689E-03
   20.1000004         2.85080192E-03
   20.1499996         2.85116932E-03
   20.2000008         2.82937870E-03
   20.2500000         2.71221134E-03
   20.2999992         2.46623415E-03
   20.3500004         2.12949701E-03
   20.3999996         1.77618687E-03
   20.4500008         1.49336841E-03
   20.5000000         1.31897512E-03
   20.5499992         1.24501658E-03
   20.6000004         1.22815196E-03
   20.6499996         1.20975822E-03
   20.7000008         1.13433518E-03
   20.7500000         9.91769717E-04
   20.7999992         7.84781703E-04
   20.8500004         5.37570973E-04
   20.8999996         2.85794522E-04
   20.9500008         5.64759903E-05
   21.0000000        -1.25307968E-04
   21.0499992        -2.42452355E-04
   21.1000004        -2.94502301E-04
   21.1499996        -2.95525533E-04
   21.2000008        -2.76194245E-04
   21.2500000        -2.65974813E-04
   21.2999992        -3.01795488E-04
   21.3500004        -3.87682550E-04
   21.3999996        -5.17722045E-04
   21.4500008        -6.67273649E-04
   21.5000000        -8.04129755E-04
   21.5499992        -9.03979701E-04
   21.6000004        -9.47603141E-04
   21.6499996        -9.37787874E-04
   21.7000008        -8.95814621E-04
   21.7500000        -8.52600380E-04
   21.7999992        -8.42110196E-04
   21.8500004        -8.87627713E-04
   21.8999996        -9.86503204E-04
   21.9500008        -1.10749598E-03
   22.0000000        -1.19995722E-03
   22.0499992        -1.21601333E-03
   22.1000004        -1.13820017E-03
   22.1499996        -9.91331646E-04
   22.2000008        -8.37599917E-04
   22.2500000        -7.47495622E-04
   22.2999992        -7.67607882E-04
   22.3500004        -8.92376469E-04
   22.3999996        -1.06929836E-03
   22.4500008        -1.22260419E-03
   22.5000000        -1.29159738E-03
   22.5499992        -1.25512609E-03
   22.6000004        -1.13691867E-03
   22.6499996        -9.82209807E-04
   22.7000008        -8.36356368E-04
   22.7500000        -7.21067074E-04
   22.7999992        -6.38925470E-04
   22.8500004        -5.86636597E-04
   22.8999996        -5.67833020E-04
   22.9500008        -5.96099126E-04
   23.0000000        -6.79850520E-04
   23.0499992        -8.04279407E-04
   23.1000004        -9.26084933E-04
   23.1499996        -9.87931271E-04
   23.2000008        -9.48080036E-04
   23.2500000        -8.06822791E-04
   23.2999992        -6.12490869E-04
   23.3500004        -4.40824282E-04
   23.3999996        -3.57964600E-04
   23.4500008        -3.85971100E-04
   23.5000000        -4.91903862E-04
   23.5499992        -6.06260961E-04
   23.6000004        -6.58038247E-04
   23.6499996        -6.09738461E-04
   23.7000008        -4.72226588E-04
   23.7500000        -2.97052931E-04
   23.7999992        -1.50287102E-04
   23.8500004        -8.43870221E-05
   23.8999996        -1.20334123E-04
   23.9500008        -2.43596587E-04
   24.0000000        -4.11537680E-04
   24.0499992        -5.67774405E-04
   24.1000004        -6.56944001E-04
   24.1499996        -6.40366517E-04
   24.2000008        -5.09616802E-04
   24.2500000        -2.94201367E-04
   24.2999992        -5.78628351E-05
   24.3500004         1.19855074E-04
   24.3999996         1.73117485E-04
   24.4500008         7.92339706E-05
   24.5000000        -1.26431638E-04
   24.5499992        -3.60468170E-04
   24.6000004        -5.23732801E-04
   24.6499996        -5.43229165E-04
   24.7000008        -4.04351187E-04
   24.7500000        -1.58302035E-04
   24.7999992         9.84509243E-05
   24.8500004         2.63537833E-04
   24.8999996         2.69776618E-04
   24.9500008         1.11467227E-04
   25.0000000        -1.53349014E-04
   25.0499992        -4.24424099E-04
   25.1000004        -5.96032594E-04
   25.1499996        -5.96303027E-04
   25.2000008        -4.15707444E-04
   25.2500000        -1.14343893E-04
   25.2999992         1.96689682E-04
   25.3500004         3.95591924E-04
   25.3999996         3.98667646E-04
   25.4500008         1.97953763E-04