  -15.0000000         2.34149673E-29
  -14.9499998         2.15826300E-29
  -14.8999996         1.80824088E-29
  -14.8500004         1.32256017E-29
  -14.8000002         7.43766760E-30
  -14.7500000         1.21455396E-30
  -14.6999998        -4.92570990E-30
  -14.6499996        -1.04909783E-29
  -14.6000004        -1.50567307E-29
  -14.5500002        -1.82981656E-29
  -14.5000000        -2.00104317E-29
  -14.4499998        -2.01168062E-29
  -14.3999996        -1.86661552E-29
  -14.3500004        -1.58216589E-29
  -14.3000002        -1.18434106E-29
  -14.2500000        -7.06666654E-30
  -14.1999998        -1.87756578E-30
  -14.1499996         3.31306895E-30
  -14.1000004         8.09713761E-30
  -14.0500002         1.20975679E-29
  -14.0000000         1.49964100E-29
  -13.9499998         1.65612281E-29
  -13.8999996         1.66672987E-29
  -13.8500004         1.53128313E-29
  -13.8000002         1.26243038E-29
  -13.7500000         8.84973235E-30
  -13.6999998         4.33905659E-30
  -13.6499996        -4.87509575E-31
  -13.6000004        -5.18030731E-30
  -13.5500002        -9.30576022E-30
  -13.5000000        -1.24910610E-29
  -13.4499998        -1.44622909E-29
  -13.3999996        -1.50710563E-29
  -13.3500004        -1.43062545E-29
  -13.3000002        -1.22899473E-29
  -13.2500000        -9.25837331E-30
  -13.1999998        -5.53154953E-30
  -13.1499996        -1.47594572E-30
  -13.1000004         2.53442412E-30
  -13.0500002         6.15372873E-30
  -13.0000000         9.09312326E-30
  -12.9499998         1.11405011E-29
  -12.8999996         1.21707473E-29
  -12.8500004         1.21474367E-29
  -12.8000002         1.11178384E-29
  -12.7500000         9.20323228E-30
  -12.6999998         6.58631027E-30
  -12.6499996         3.49655892E-30
  -12.6000004         1.94175186E-31
  -12.5500002        -3.04716366E-30
  -12.5000000        -5.95810465E-30
  -12.4499998        -8.29142633E-30
  -12.3999996        -9.84031787E-30
  -12.3500004        -1.04590951E-29
  -12.3000002        -1.00879360E-29
  -12.2500000        -8.77768377E-30
  -12.1999998        -6.70043065E-30
  -12.1499996        -4.12367669E-30
  -12.1000004        -1.33497019E-30
  -12.0500002         1.46134825E-30
  -12.0000000         4.20583001E-30
  -11.9499998         6.91439996E-30
  -11.8999996         9.44272317E-30
  -11.8500004         1.11864361E-29
  -11.8000002         1.09699969E-29
  -11.7500000         7.41926745E-30
  -11.6999998        -4.62683598E-32
  -11.6499996        -9.81621215E-30
  -11.6000004        -1.69458167E-29
  -11.5500002        -1.33739058E-29
  -11.5000000         9.05225818E-30
  -11.4499998         5.15216473E-29
  -11.3999996         9.78446379E-29
  -11.3500004         1.06160220E-28
  -11.3000002         1.51610770E-29
  -11.2500000        -2.19544241E-28
  -11.1999998        -5.54629402E-28
  -11.1499996        -7.83781265E-28
  -11.1000004        -5.35999063E-28
  -11.0500002         5.52096756E-28
  -11.0000000         2.45269817E-27
  -10.9499998         4.29752624E-27
  -10.8999996         4.24923701E-27
  -10.8500004         1.85759663E-28
  -10.8000002        -8.59276448E-27
  -10.7500000        -1.92038188E-26
  -10.6999998        -2.41299994E-26
  -10.6499996        -1.32940904E-26
  -10.6000004         1.96811798E-26
  -10.5500002         6.86783105E-26
  -10.5000000         1.08901163E-25
  -10.4499998         1.00420151E-25
  -10.3999996         6.36215049E-27
  -10.3500004        -1.76799531E-25
  -10.3000002        -3.89933970E-25
  -10.2500000        -5.04124914E-25
  -10.1999998        -3.56013937E-25
  -10.1499996         1.68087363E-25
  -10.1000004         1.01869987E-24
  -10.0500002         1.88946584E-24
  -10.0000000         2.21415941E-24
  -9.94999981         1.32422570E-24
  -9.89999962        -1.20315340E-24
  -9.85000038        -5.06699362E-24
  -9.80000019        -8.83062809E-24
  -9.75000000        -9.90763464E-24
  -9.69999981        -5.31157718E-24
  -9.64999962         6.66594012E-24
  -9.60000038         2.42056052E-23
  -9.55000019         4.02359735E-23
  -9.50000000         4.29094200E-23
  -9.44999981         1.97694049E-23
  -9.39999962        -3.43485437E-23
  -9.35000038        -1.08267802E-22
  -9.30000019        -1.69608111E-22
  -9.25000000        -1.70398260E-22
  -9.19999981        -6.67118400E-23
  -9.14999962         1.51046656E-22
  -9.10000038         4.29553468E-22
  -9.05000019         6.44355219E-22
  -9.00000000         6.28967862E-22
  -8.94999981         2.45384310E-22
  -8.89999962        -5.21473611E-22
  -8.85000038        -1.48477143E-21
  -8.80000019        -2.24231418E-21
  -8.75000000        -2.26836330E-21
  -8.69999981        -1.11655256E-21
  -8.64999962         1.31055570E-21
  -8.60000038         4.52101016E-21
  -8.55000019         7.35018071E-21
  -8.50000000         8.15620440E-21
  -8.44999981         5.35412685E-21
  -8.39999962        -1.77393285E-21
  -8.35000038        -1.22238683E-20
  -8.30000019        -2.27653805E-20
  -8.25000000        -2.82539209E-20
  -8.19999981        -2.30917323E-20
  -8.14999962        -3.76827863E-21
  -8.10000038         2.82108397E-20
  -8.05000019         6.43123233E-20
  -8.00000000         8.94308904E-20
  -7.94999981         8.58791837E-20
  -7.90000010         4.06605186E-20
  -7.84999990        -4.60513710E-20
  -7.80000019        -1.54854906E-19
  -7.75000000        -2.47443248E-19
  -7.69999981        -2.75731610E-19
  -7.65000010        -1.98956764E-19
  -7.59999990        -4.02370134E-21
  -7.55000019         2.78499460E-19
  -7.50000000         5.70646055E-19
  -7.44999981         7.60659471E-19
  -7.40000010         7.33743635E-19
  -7.34999990         4.13680495E-19
  -7.30000019        -1.95937916E-19
  -7.25000000        -9.84614383E-19
  -7.19999981        -1.73514162E-18
  -7.15000010        -2.16018858E-18
  -7.09999990        -1.97658199E-18
  -7.05000019        -1.00693606E-18
  -7.00000000         7.15875086E-19
  -6.94999981         2.87833976E-18
  -6.90000010         4.89068428E-18
  -6.84999990         5.99457997E-18
  -6.80000019         5.47214882E-18
  -6.75000000         2.91204654E-18
  -6.69999981        -1.54970944E-18
  -6.65000010        -7.10997719E-18
  -6.59999990        -1.23716681E-17
  -6.55000019        -1.56233837E-17
  -6.50000000        -1.52682801E-17
  -6.44999981        -1.02926828E-17
  -6.40000010        -6.55250192E-19
  -6.34999990         1.24909575E-17
  -6.30000019         2.67821015E-17
  -6.25000000         3.88411160E-17
  -6.19999981         4.47022432E-17
  -6.15000010         4.04984187E-17
  -6.09999990         2.34384935E-17
  -6.05000019        -6.98842796E-18
  -6.00000000        -4.78189241E-17
  -5.94999981        -9.18649848E-17
  -5.90000010        -1.27938781E-16
  -5.84999990        -1.42471564E-16
  -5.80000019        -1.22589424E-16
  -5.75000000        -6.01942243E-17
  -5.69999981         4.38942929E-17
  -5.65000010         1.76947711E-16
  -5.59999990         3.13642033E-16
  -5.55000019         4.18449999E-16
  -5.50000000         4.51331289E-16
  -5.44999981         3.76318951E-16
  -5.40000010         1.71983727E-16
  -5.34999990        -1.57883487E-16
  -5.30000019        -5.75728665E-16
  -5.25000000        -1.00677637E-15
  -5.19999981        -1.34374990E-15
  -5.15000010        -1.46208199E-15
  -5.09999990        -1.24591146E-15
  -5.05000019        -6.21999428E-16
  -5.00000000         4.04861579E-16
  -4.94999981         1.72417972E-15
  -4.90000010         3.10999687E-15
  -4.84999990         4.23737592E-15
  -4.80000019         4.72909972E-15
  -4.75000000         4.23026804E-15
  -4.69999981         2.50152419E-15
  -4.65000010        -4.84785014E-16
  -4.59999990        -4.46598630E-15
  -4.55000019        -8.85089629E-15
  -4.50000000        -1.27435988E-14
  -4.44999981        -1.50448755E-14
  -4.40000010        -1.46352860E-14
  -4.34999990        -1.06266602E-14
  -4.30000019        -2.64833618E-15
  -4.25000000         8.88616505E-15
  -4.19999981         2.26000537E-14
  -4.15000010         3.61324435E-14
  -4.09999990         4.63330038E-14
  -4.05000019         4.96990212E-14
  -4.00000000         4.30367174E-14
  -3.95000005         2.42746971E-14
  -3.90000010        -6.69755728E-15
  -3.84999990        -4.73380558E-14
  -3.79999995        -9.21046483E-14
  -3.75000000        -1.32639193E-13
  -3.70000005        -1.58619970E-13
  -3.65000010        -1.59322032E-13
  -3.59999990        -1.25782766E-13
  -3.54999995        -5.33109357E-14
  -3.50000000         5.60877943E-14
  -3.45000005         1.91908514E-13
  -3.40000010         3.34547629E-13
  -3.34999990         4.56411655E-13
  -3.29999995         5.25040894E-13
  -3.25000000         5.08226436E-13
  -3.20000005         3.80697779E-13
  -3.15000010         1.31497664E-13
  -3.09999990        -2.29216711E-13
  -3.04999995        -6.65504869E-13
  -3.00000000        -1.11465741E-12
  -2.95000005        -1.49122945E-12
  -2.90000010        -1.69679353E-12
  -2.84999990        -1.63521703E-12
  -2.79999995        -1.23212714E-12
  -2.75000000        -4.56055658E-13
  -2.70000005         6.62345775E-13
  -2.65000010         2.01720845E-12
  -2.59999990         3.42475766E-12
  -2.54999995         4.63453711E-12
  -2.50000000         5.35639935E-12
  -2.45000005         5.30276864E-12
  -2.40000010         4.24270384E-12
  -2.34999990         2.06110779E-12
  -2.29999995        -1.18615881E-12
  -2.25000000        -5.23249022E-12
  -2.20000005        -9.58736562E-12
  -2.15000010        -1.35594678E-11
  -2.09999990        -1.63219646E-11
  -2.04999995        -1.70200017E-11
  -2.00000000        -1.49129650E-11
  -1.95000005        -9.53616439E-12
  -1.89999998        -8.59442942E-13
  -1.85000002         1.05855472E-11
  -1.79999995         2.36392069E-11
  -1.75000000         3.65365793E-11
  -1.70000005         4.70377279E-11
  -1.64999998         5.26724220E-11
  -1.60000002         5.10879082E-11
  -1.54999995         4.04695964E-11
  -1.50000000         1.99833865E-11
  -1.45000005        -9.82413109E-12
  -1.39999998        -4.67443861E-11
  -1.35000002        -8.68173589E-11
  -1.29999995        -1.24495678E-10
  -1.25000000        -1.53099297E-10
  -1.20000005        -1.65560871E-10
  -1.14999998        -1.55420718E-10
  -1.10000002        -1.17973908E-10
  -1.04999995        -5.14431379E-11
  -1.00000000         4.20005801E-11
 -0.949999988         1.55549240E-10
 -0.899999976         2.77581985E-10
 -0.850000024         3.92147398E-10
 -0.800000012         4.80174123E-10
 -0.750000000         5.21418242E-10
 -0.699999988         4.97016484E-10
 -0.649999976         3.92444494E-10
 -0.600000024         2.00560957E-10
 -0.550000012        -7.56835983E-11
 -0.500000000        -4.21248841E-10
 -0.449999988        -8.08178469E-10
 -0.400000006        -1.19622878E-09
 -0.349999994        -1.53519286E-09
 -0.300000012        -1.76889126E-09
 -0.250000000        -1.84063687E-09
 -0.200000003        -1.69972281E-09
 -0.150000006        -1.30830358E-09
 -0.100000001        -6.47878973E-10
  -5.00000007E-02     2.75427042E-10
   0.00000000         1.42786949E-09
   5.00000007E-02     2.74777512E-09
  0.100000001         4.14852552E-09
  0.150000006         5.52479129E-09
  0.200000003         6.76215706E-09
  0.250000000         7.74868436E-09
  0.300000012         8.38792769E-09
  0.349999994         8.61198668E-09
  0.400000006         8.39260306E-09
  0.449999988         7.74922970E-09
  0.500000000         6.75294354E-09
  0.550000012         5.52494184E-09
  0.600000024         4.22912949E-09
  0.649999976         3.06082293E-09
  0.699999988         2.22878116E-09
  0.750000000         1.93851690E-09
  0.800000012         2.37117193E-09
  0.850000024         3.66698338E-09
  0.899999976         5.91060489E-09
  0.949999988         9.12538489E-09
   1.00000000         1.32713787E-08
   1.04999995         1.82535942E-08
   1.10000002         2.39352076E-08
   1.14999998         3.01602832E-08
   1.20000005         3.67782818E-08
   1.25000000         4.36686491E-08
   1.29999995         5.07657063E-08
   1.35000002         5.80821826E-08
   1.39999998         6.57149783E-08
   1.45000005         7.38598729E-08
   1.50000000         8.27992039E-08
   1.54999995         9.29004713E-08
   1.60000002         1.04588707E-07
   1.64999998         1.18328316E-07
   1.70000005         1.34603496E-07
   1.75000000         1.53890014E-07
   1.79999995         1.76642800E-07
   1.85000002         2.03289005E-07
   1.89999998         2.34240517E-07
   1.95000005         2.69895992E-07
   2.00000000         3.10664348E-07
   2.04999995         3.57010322E-07
   2.09999990         4.09464832E-07
   2.15000010         4.68668333E-07
   2.20000005         5.35414472E-07
   2.25000000         6.10715290E-07
   2.29999995         6.95736560E-07
   2.34999990         7.91895218E-07
   2.40000010         9.00817383E-07
   2.45000005         1.02437843E-06
   2.50000000         1.16470528E-06
   2.54999995         1.32410639E-06
   2.59999990         1.50507401E-06
   2.65000010         1.71041347E-06
   2.70000005         1.94309064E-06
   2.75000000         2.20640595E-06
   2.79999995         2.50393623E-06
   2.84999990         2.83973077E-06
   2.90000010         3.21833681E-06
   2.95000005         3.64445691E-06
   3.00000000         4.12365534E-06
   3.04999995         4.66217671E-06
   3.09999990         5.26727808E-06
   3.15000010         5.94695211E-06
   3.20000005         6.71019279E-06
   3.25000000         7.56722693E-06
   3.29999995         8.52923040E-06
   3.34999990         9.60850048E-06
   3.40000010         1.08184668E-05
   3.45000005         1.21746989E-05
   3.50000000         1.36941153E-05
   3.54999995         1.53950550E-05
   3.59999990         1.72975269E-05
   3.65000010         1.94239201E-05
   3.70000005         2.17977376E-05
   3.75000000         2.44463317E-05
   3.79999995         2.73993082E-05
   3.84999990         3.06892507E-05
   3.90000010         3.43520260E-05
   3.95000005         3.84285086E-05
   4.00000000         4.29608990E-05
   4.05000019         4.79979790E-05
   4.09999990         5.35945510E-05
   4.15000010         5.98085644E-05
   4.19999981         6.67039712E-05
   4.25000000         7.43485434E-05
   4.30000019         8.28236443E-05
   4.34999990         9.22086692E-05
   4.40000010         1.02593003E-04
   4.44999981         1.14078328E-04
   4.50000000         1.26774321E-04
   4.55000019         1.40801640E-04
   4.59999990         1.56292066E-04
   4.65000010         1.73375127E-04
   4.69999981         1.92207517E-04
   4.75000000         2.12950457E-04
   4.80000019         2.35770218E-04
   4.84999990         2.60878005E-04
   4.90000010         2.88491137E-04
   4.94999981         3.18834296E-04
   5.00000000         3.52149684E-04
   5.05000019         3.88707878E-04
   5.09999990         4.28794185E-04
   5.15000010         4.72728454E-04
   5.19999981         5.20827773E-04
   5.25000000         5.73482306E-04
   5.30000019         6.31074305E-04
   5.34999990         6.94026821E-04
   5.40000010         7.62781419E-04
   5.44999981         8.37798871E-04
   5.50000000         9.19598911E-04
   5.55000019         1.00874680E-03
   5.59999990         1.10584532E-03
   5.65000010         1.21153065E-03
   5.69999981         1.32649124E-03
   5.75000000         1.45150197E-03
   5.80000019         1.58727029E-03
   5.84999990         1.73464511E-03
   5.90000010         1.89442385E-03
   5.94999981         2.06757849E-03
   6.00000000         2.25514662E-03
   6.05000019         2.45815492E-03
   6.09999990         2.67777685E-03
   6.15000010         2.91516609E-03
   6.19999981         3.17162345E-03
   6.25000000         3.44820460E-03
   6.30000019         3.74650303E-03
   6.34999990         4.06794949E-03
   6.40000010         4.41418914E-03
   6.44999981         4.78678755E-03
   6.50000000         5.18736383E-03
   6.55000019         5.61778480E-03
   6.59999990         6.07995316E-03
   6.65000010         6.57602539E-03
   6.69999981         7.10756984E-03
   6.75000000         7.67703727E-03
   6.80000019         8.28650501E-03
   6.84999990         8.93857982E-03
   6.90000010         9.63528361E-03
   6.94999981         1.03795780E-02
   7.00000000         1.11735240E-02
   7.05000019         1.20202582E-02
   7.09999990         1.29222646E-02
   7.15000010         1.38821462E-02
   7.19999981         1.49038052E-02
   7.25000000         1.59894638E-02
   7.30000019         1.71420053E-02
   7.34999990         1.83652341E-02
   7.40000010         1.96618456E-02
   7.44999981         2.10356396E-02
   7.50000000         2.24893969E-02
   7.55000019         2.40273643E-02
   7.59999990         2.56517250E-02
   7.65000010         2.73664556E-02
   7.69999981         2.91761477E-02
   7.75000000         3.10821198E-02
   7.80000019         3.30852941E-02
   7.84999990         3.51936594E-02
   7.90000010         3.74099687E-02
   7.94999981         3.97370532E-02
   8.00000000         4.21797968E-02
   8.05000019         4.47408259E-02
   8.10000038         4.74218838E-02
   8.14999962         5.02211824E-02
   8.19999981         5.31467833E-02
   8.25000000         5.62009588E-02
   8.30000019         5.93828633E-02
   8.35000038         6.26966655E-02
   8.39999962         6.61436096E-02
   8.44999981         6.97287843E-02
   8.50000000         7.34515861E-02
   8.55000019         7.73110613E-02
   8.60000038         8.13058764E-02
   8.64999962         8.54378715E-02
   8.69999981         8.97105336E-02
   8.75000000         9.41155031E-02
   8.80000019         9.86564085E-02
   8.85000038        0.103326641    
   8.89999962        0.108126596    
   8.94999981        0.113058478    
   9.00000000        0.118110456    
   9.05000019        0.123287529    
   9.10000038        0.128568798    
   9.14999962        0.133970365    
   9.19999981        0.139456451    
   9.25000000        0.145040199    
   9.30000019        0.150707573    
   9.35000038        0.156448498    
   9.39999962        0.162255779    
   9.44999981        0.168107688    
   9.50000000        0.173998564    
   9.55000019        0.179940164    
   9.60000038        0.185904190    
   9.64999962        0.191855401    
   9.69999981        0.197805122    
   9.75000000        0.203699067    
   9.80000019        0.209505305    
   9.85000038        0.215238854    
   9.89999962        0.220895663    
   9.94999981        0.226461306    
   10.0000000        0.231904358    
   10.0500002        0.237221017    
   10.1000004        0.242342979    
   10.1499996        0.247235194    
   10.1999998        0.251891047    
   10.2500000        0.256250054    
   10.3000002        0.260339528    
   10.3500004        0.264090121    
   10.3999996        0.267567128    
   10.4499998        0.270716310    
   10.5000000        0.273487031    
   10.5500002        0.275776386    
   10.6000004        0.277575403    
   10.6499996        0.278813034    
   10.6999998        0.279538006    
   10.7500000        0.279704690    
   10.8000002        0.279347360    
   10.8500004        0.278414667    
   10.8999996        0.276879489    
   10.9499998        0.274666965    
   11.0000000        0.271705627    
   11.0500002        0.267956585    
   11.1000004        0.263530463    
   11.1499996        0.258304179    
   11.1999998        0.252314329    
   11.2500000        0.245482340    
   11.3000002        0.237883955    
   11.3500004        0.229298234    
   11.3999996        0.219780579    
   11.4499998        0.209393397    
   11.5000000        0.198123351    
   11.5500002        0.185872138    
   11.6000004        0.172798917    
   11.6499996        0.158752635    
   11.6999998        0.143641323    
   11.7500000        0.127624065    
   11.8000002        0.110642560    
   11.8500004         9.27544758E-02
   11.8999996         7.40422085E-02
   11.9499998         5.44524454E-02
   12.0000000         3.38696651E-02
   12.0500002         1.23750428E-02
   12.1000004        -1.00385146E-02
   12.1499996        -3.32233086E-02
   12.1999998        -5.72132394E-02
   12.2500000        -8.18577334E-02
   12.3000002       -0.107359916    
   12.3500004       -0.133558944    
   12.3999996       -0.160384446    
   12.4499998       -0.187878653    
   12.5000000       -0.215805501    
   12.5500002       -0.244291767    
   12.6000004       -0.273252249    
   12.6499996       -0.302607834    
   12.6999998       -0.332405210    
   12.7500000       -0.362267256    
   12.8000002       -0.392244995    
   12.8500004       -0.422205716    
   12.8999996       -0.452185929    
   12.9499998       -0.481920749    
   13.0000000       -0.511825204    
   13.0500002       -0.541667342    
   13.1000004       -0.571334422    
   13.1499996       -0.600454152    
   13.1999998       -0.628852785    
   13.2500000       -0.656474769    
   13.3000002       -0.683290720    
   13.3500004       -0.709360003    
   13.3999996       -0.734703898    
   13.4499998       -0.759251595    
   13.5000000       -0.783132970    
   13.5500002       -0.805880129    
   13.6000004       -0.827317536    
   13.6499996       -0.847288251    
   13.6999998       -0.865753353    
   13.7500000       -0.882900357    
   13.8000002       -0.898652434    
   13.8500004       -0.912945509    
   13.8999996       -0.925623119    
   13.9499998       -0.936287582    
   14.0000000       -0.944835961    
   14.0500002       -0.951151252    
   14.1000004       -0.955845475    
   14.1499996       -0.958935022    
   14.1999998       -0.960469544    
   14.2500000       -0.960152745    
   14.3000002       -0.957623065    
   14.3500004       -0.952897251    
   14.3999996       -0.945650935    
   14.4499998       -0.936161697    
   14.5000000       -0.924552619    
   14.5500002       -0.911123514    
   14.6000004       -0.896065950    
   14.6499996       -0.879255295    
   14.6999998       -0.860440493    
   14.7500000       -0.839384735    
   14.8000002       -0.815827608    
   14.8500004       -0.789870620    
   14.8999996       -0.761917114    
   14.9499998       -0.732279599    
   15.0000000       -0.701200664    
   15.0500002       -0.668740213    
   15.1000004       -0.634762168    
   15.1499996       -0.599303186    
   15.1999998       -0.562231064    
   15.2500000       -0.523608565    
   15.3000002       -0.483789444    
   15.3500004       -0.442921281    
   15.3999996       -0.401077777    
   15.4499998       -0.358290702    
   15.5000000       -0.314509869    
   15.5500002       -0.269859463    
   15.6000004       -0.224439725    
   15.6499996       -0.178536028    
   15.6999998       -0.132378563    
   15.7500000        -8.61585364E-02
   15.8000002        -4.00196202E-02
   15.8500004         6.08578837E-03
   15.8999996         5.21863252E-02
   15.9499998         9.83127207E-02
   16.0000000        0.144387379    
   16.0499992        0.190220788    
   16.1000004        0.235476926    
   16.1499996        0.279751629    
   16.2000008        0.322804451    
   16.2500000        0.364506066    
   16.2999992        0.404908150    
   16.3500004        0.444236219    
   16.3999996        0.482642680    
   16.4500008        0.520231068    
   16.5000000        0.556737840    
   16.5499992        0.591841519    
   16.6000004        0.625164092    
   16.6499996        0.656479716    
   16.7000008        0.685748875    
   16.7500000        0.713132024    
   16.7999992        0.738794982    
   16.8500004        0.762697518    
   16.8999996        0.784809053    
   16.9500008        0.804895997    
   17.0000000        0.822955072    
   17.0499992        0.839086056    
   17.1000004        0.853399038    
   17.1499996        0.866148412    
   17.2000008        0.876999795    
   17.2500000        0.885679066    
   17.2999992        0.891768456    
   17.3500004        0.895058274    
   17.3999996        0.895939887    
   17.4500008        0.895049691    
   17.5000000        0.892970264    
   17.5499992        0.889983356    
   17.6000004        0.885900140    
   17.6499996        0.880216837    
   17.7000008        0.872279286    
   17.7500000        0.861778080    
   17.7999992        0.848800659    
   17.8500004        0.834046841    
   17.8999996        0.818301678    
   17.9500008        0.801814735    
   18.0000000        0.784499168    
   18.0499992        0.766084313    
   18.1000004        0.746099830    
   18.1499996        0.724575102    
   18.2000008        0.701752067    
   18.2500000        0.678162813    
   18.2999992        0.654562891    
   18.3500004        0.630981922    
   18.3999996        0.607194424    
   18.4500008        0.582662523    
   18.5000000        0.556877196    
   18.5499992        0.529754102    
   18.6000004        0.501590490    
   18.6499996        0.473068625    
   18.7000008        0.444835782    
   18.7500000        0.417324424    
   18.7999992        0.390717953    
   18.8500004        0.364619672    
   18.8999996        0.338397056    
   18.9500008        0.311741918    
   19.0000000        0.284480274    
   19.0499992        0.256904513    
   19.1000004        0.229617521    
   19.1499996        0.203244194    
   19.2000008        0.178428322    
   19.2500000        0.155148819    
   19.2999992        0.132960156    
   19.3500004        0.111419871    
   19.3999996         8.99015442E-02
   19.4500008         6.81387857E-02
   19.5000000         4.63420264E-02
   19.5499992         2.48938669E-02
   19.6000004         4.29395586E-03
   19.6499996        -1.53118297E-02
   19.7000008        -3.38662602E-02
   19.7500000        -5.14362790E-02
   19.7999992        -6.81696385E-02
   19.8500004        -8.38260502E-02
   19.8999996        -9.82239172E-02
   19.9500008       -0.111158423    
   20.0000000       -0.122697696    
   20.0499992       -0.133435443    
   20.1000004       -0.144124761    
   20.1499996       -0.155217811    
   20.2000008       -0.166562349    
   20.2500000       -0.177370980    
   20.2999992       -0.186572611    
   20.3500004       -0.193323031    
   20.3999996       -0.197582364    
   20.4500008       -0.200220153    
   20.5000000       -0.202591136    
   20.5499992       -0.206119746    
   20.6000004       -0.211287409    
   20.6499996       -0.217571378    
   20.7000008       -0.223788679    
   20.7500000       -0.228403315    
   20.7999992       -0.230506793    
   20.8500004       -0.229955882    
   20.8999996       -0.227378979    
   20.9500008       -0.223943233    
   21.0000000       -0.220768183    
   21.0499992       -0.218519390    
   21.1000004       -0.217306167    
   21.1499996       -0.216825753    
   21.2000008       -0.216466933    
   21.2500000       -0.215620831    
   21.2999992       -0.213830441    
   21.3500004       -0.210824534    
   21.3999996       -0.206614107    
   21.4500008       -0.201550946    
   21.5000000       -0.196100548    
   21.5499992       -0.190843731    
   21.6000004       -0.186163440    
   21.6499996       -0.182223022    
   21.7000008       -0.178861380    
   21.7500000       -0.175664574    
   21.7999992       -0.172115698    
   21.8500004       -0.167844370    
   21.8999996       -0.162673891    
   21.9500008       -0.156733558    
   22.0000000       -0.150376797    
   22.0499992       -0.144107729    
   22.1000004       -0.138457701    
   22.1499996       -0.133811697    
   22.2000008       -0.130280748    
   22.2500000       -0.127577499    
   22.2999992       -0.125077084    
   22.3500004       -0.121965364    
   22.3999996       -0.117588043    
   22.4500008       -0.111752801    
   22.5000000       -0.104873694    
   22.5499992        -9.78263989E-02
   22.6000004        -9.15908515E-02
   22.6499996        -8.68318900E-02
   22.7000008        -8.36302266E-02
   22.7500000        -8.14866945E-02
   22.7999992        -7.96105787E-02
   22.8500004        -7.73169100E-02
   22.8999996        -7.42994621E-02
   22.9500008        -7.06760585E-02
   23.0000000        -6.68069273E-02
   23.0499992        -6.30488992E-02
   23.1000004        -5.95802031E-02
   23.1499996        -5.63903600E-02
   23.2000008        -5.33966944E-02
   23.2500000        -5.05526513E-02
   23.2999992        -4.78711054E-02
   23.3500004        -4.53540832E-02
   23.3999996        -4.29067016E-02
   23.4500008        -4.03572395E-02
   23.5000000        -3.75536010E-02
   23.5499992        -3.45260538E-02
   23.6000004        -3.15466002E-02
   23.6499996        -2.90252101E-02
   23.7000008        -2.72887293E-02
   23.7500000        -2.63679530E-02
   23.7999992        -2.59410944E-02
   23.8500004        -2.54816636E-02
   23.8999996        -2.45468803E-02
   23.9500008        -2.30051894E-02
   24.0000000        -2.10817438E-02
   24.0499992        -1.91872306E-02
   24.1000004        -1.76435076E-02
   24.1499996        -1.64890848E-02
   24.2000008        -1.54810688E-02
   24.2500000        -1.42861735E-02
   24.2999992        -1.27253952E-02
   24.3500004        -1.09050786E-02
   24.3999996        -9.15393047E-03
   24.4500008        -7.81167112E-03
   24.5000000        -7.01614097E-03
   24.5499992        -6.63436996E-03
   24.6000004        -6.36718003E-03
   24.6499996        -5.95521834E-03
   24.7000008        -5.33693051E-03
   24.7500000        -4.65461146E-03
   24.7999992        -4.11310419E-03
   24.8500004        -3.79243097E-03
   24.8999996        -3.55206663E-03
   24.9500008        -3.09645035E-03
   25.0000000        -2.16378272E-03
   25.0499992        -7.18618801E-04
   25.1000004         9.78161464E-04
   25.1499996         2.47315806E-03
   25.2000008         3.34556238E-03
   25.2500000         3.43278795E-03
   25.2999992         2.93444237E-03
   25.3500004         2.34209886E-03
   25.3999996         2.22735596E-03
   25.4500008         2.99020624E-03