  -15.0000000         1.71589082E-36
  -14.9499998         4.07342845E-37
  -14.8999996         9.36220284E-37
  -14.8500004         3.44746435E-36
  -14.8000002        -2.81446990E-36
  -14.7500000        -3.82244805E-36
  -14.6999998        -4.57128796E-36
  -14.6499996         1.99787662E-38
  -14.6000004         1.91820298E-36
  -14.5500002         2.84578347E-36
  -14.5000000         3.14725913E-36
  -14.4499998         1.32832566E-36
  -14.3999996         2.47536123E-36
  -14.3500004        -3.10022241E-37
  -14.3000002         7.63803265E-37
  -14.2500000        -1.22203387E-36
  -14.1999998        -1.52960646E-36
  -14.1499996        -2.34409225E-36
  -14.1000004        -2.64769915E-36
  -14.0500002        -2.07669024E-36
  -14.0000000        -3.93344524E-37
  -13.9499998         1.46962551E-36
  -13.8999996         3.20779630E-36
  -13.8500004         3.21968756E-36
  -13.8000002         3.11726049E-36
  -13.7500000         1.59677678E-36
  -13.6999998        -8.63786269E-38
  -13.6499996        -2.11951841E-36
  -13.6000004        -3.82185004E-36
  -13.5500002        -3.51790397E-36
  -13.5000000        -1.49656434E-36
  -13.4499998         1.33796166E-36
  -13.3999996         4.47189110E-36
  -13.3500004         4.17190292E-36
  -13.3000002         2.95562930E-36
  -13.2500000        -6.50076797E-37
  -13.1999998        -4.24431054E-36
  -13.1499996        -5.08125621E-36
  -13.1000004        -3.47839246E-36
  -13.0500002         1.74549464E-38
  -13.0000000         2.81731159E-36
  -12.9499998         2.74615523E-36
  -12.8999996        -7.50041393E-37
  -12.8500004        -2.03128279E-37
  -12.8000002         8.65981680E-36
  -12.7500000         2.21204217E-35
  -12.6999998         1.73891746E-35
  -12.6499996        -3.40096718E-35
  -12.6000004        -1.14385117E-34
  -12.5500002        -1.27237747E-34
  -12.5000000         6.19879956E-35
  -12.4499998         4.43559890E-34
  -12.3999996         6.60880924E-34
  -12.3500004         1.00751552E-34
  -12.3000002        -1.43301679E-33
  -12.2500000        -2.79974543E-33
  -12.1999998        -1.52614771E-33
  -12.1499996         3.95460912E-33
  -12.1000004         1.04765089E-32
  -12.0500002         8.86490983E-33
  -12.0000000        -9.28295897E-33
  -11.9499998        -3.69728885E-32
  -11.8999996        -4.23732153E-32
  -11.8500004         1.36340124E-32
  -11.8000002         1.25289313E-31
  -11.7500000         1.91437213E-31
  -11.6999998         4.61869921E-32
  -11.6499996        -3.72818942E-31
  -11.6000004        -7.97131683E-31
  -11.5500002        -6.01677207E-31
  -11.5000000         7.37869888E-31
  -11.4499998         2.77617197E-30
  -11.3999996         3.54601168E-30
  -11.3500004         4.41925220E-31
  -11.3000002        -7.03293493E-30
  -11.2500000        -1.42329623E-29
  -11.1999998        -1.16754071E-29
  -11.1499996         8.19765235E-30
  -11.1000004         3.96638020E-29
  -11.0500002         5.71743239E-29
  -11.0000000         2.62457728E-29
  -10.9499998        -6.46999493E-29
  -10.8999996        -1.69704557E-28
  -10.8500004        -1.85565288E-28
  -10.8000002        -1.72428237E-29
  -10.7500000         3.10424831E-28
  -10.6999998         5.81710769E-28
  -10.6499996         4.71598662E-28
  -10.6000004        -1.90355666E-28
  -10.5500002        -1.12407219E-27
  -10.5000000        -1.57126812E-27
  -10.4499998        -7.64033165E-28
  -10.3999996         1.26403751E-27
  -10.3500004         3.17193382E-27
  -10.3000002         2.89035419E-27
  -10.2500000        -5.80685693E-28
  -10.1999998        -5.30100161E-27
  -10.1499996        -6.52402760E-27
  -10.1000004        -1.91279137E-28
  -10.0500002         1.16663183E-26
  -10.0000000         1.83817194E-26
  -9.94999981         6.19507453E-27
  -9.89999962        -2.79389727E-26
  -9.85000038        -6.32618436E-26
  -9.80000019        -5.81469681E-26
  -9.75000000         2.11430561E-26
  -9.69999981         1.56416166E-25
  -9.64999962         2.53122366E-25
  -9.60000038         1.76372116E-25
  -9.55000019        -1.43677307E-25
  -9.50000000        -5.91915371E-25
  -9.44999981        -8.42085844E-25
  -9.39999962        -5.15173256E-25
  -9.35000038         5.03597659E-25
  -9.30000019         1.78367998E-24
  -9.25000000         2.38745992E-24
  -9.19999981         1.38885589E-24
  -9.14999962        -1.31215090E-24
  -9.10000038        -4.43990323E-24
  -9.05000019        -5.69319653E-24
  -9.00000000        -3.16682925E-24
  -8.94999981         2.85295077E-24
  -8.89999962         9.10931608E-24
  -8.85000038         1.07948941E-23
  -8.80000019         4.96335623E-24
  -8.75000000        -6.16853690E-24
  -8.69999981        -1.50495539E-23
  -8.64999962        -1.33796568E-23
  -8.60000038         5.27033829E-25
  -8.55000019         1.71514469E-23
  -8.50000000         1.97166759E-23
  -8.44999981        -2.65477392E-24
  -8.39999962        -4.03085866E-23
  -8.35000038        -6.03146640E-23
  -8.30000019        -2.51087342E-23
  -8.25000000         7.28098862E-23
  -8.19999981         1.83455599E-22
  -8.14999962         2.08991266E-22
  -8.10000038         6.32078650E-23
  -8.05000019        -2.43921977E-22
  -8.00000000        -5.56900862E-22
  -7.94999981        -6.22291903E-22
  -7.90000010        -2.44109814E-22
  -7.84999990         5.27204401E-22
  -7.80000019         1.31043928E-21
  -7.75000000         1.53163285E-21
  -7.69999981         7.75944185E-22
  -7.65000010        -8.30007436E-22
  -7.59999990        -2.49037607E-21
  -7.55000019        -3.06927547E-21
  -7.50000000        -1.80057630E-21
  -7.44999981         1.02230375E-21
  -7.40000010         3.91160545E-21
  -7.34999990         4.90128464E-21
  -7.30000019         2.85287222E-21
  -7.25000000        -1.45936127E-21
  -7.19999981        -5.39595965E-21
  -7.15000010        -5.95828010E-21
  -7.09999990        -2.03646354E-21
  -7.05000019         4.15387405E-21
  -7.00000000         7.86599649E-21
  -6.94999981         4.96214017E-21
  -6.90000010        -4.35517822E-21
  -6.84999990        -1.40729272E-20
  -6.80000019        -1.52039044E-20
  -6.75000000        -2.22465359E-21
  -6.69999981         2.07637617E-20
  -6.65000010         3.92594136E-20
  -6.59999990         3.56726777E-20
  -6.55000019         2.05366005E-21
  -6.50000000        -4.96689323E-20
  -6.44999981        -8.87742900E-20
  -6.40000010        -8.14544718E-20
  -6.34999990        -1.45319122E-20
  -6.30000019         8.76356694E-20
  -6.25000000         1.67673672E-19
  -6.19999981         1.64692500E-19
  -6.15000010         5.52881188E-20
  -6.09999990        -1.19683806E-19
  -6.05000019        -2.65307971E-19
  -6.00000000        -2.82563760E-19
  -5.94999981        -1.33337017E-19
  -5.90000010         1.20873706E-19
  -5.84999990         3.39488417E-19
  -5.80000019         3.81519041E-19
  -5.75000000         2.00262068E-19
  -5.69999981        -1.08625604E-19
  -5.65000010        -3.49401685E-19
  -5.59999990        -3.47330218E-19
  -5.55000019        -7.90518869E-20
  -5.50000000         2.79830290E-19
  -5.44999981         4.41546012E-19
  -5.40000010         1.96442923E-19
  -5.34999990        -4.06789460E-19
  -5.30000019        -1.02126376E-18
  -5.25000000        -1.16449401E-18
  -5.19999981        -5.18273270E-19
  -5.15000010         8.07249179E-19
  -5.09999990         2.22893722E-18
  -5.05000019         2.93919709E-18
  -5.00000000         2.34122057E-18
  -4.94999981         4.31778922E-19
  -4.90000010        -2.10952997E-18
  -4.84999990        -4.21459730E-18
  -4.80000019        -4.95252968E-18
  -4.75000000        -3.99337695E-18
  -4.69999981        -1.73666073E-18
  -4.65000010         9.74124699E-19
  -4.59999990         3.34886304E-18
  -4.55000019         5.03251184E-18
  -4.50000000         6.10615671E-18
  -4.44999981         6.72183882E-18
  -4.40000010         6.65286271E-18
  -4.34999990         5.15103276E-18
  -4.30000019         1.32237601E-18
  -4.25000000        -5.12973493E-18
  -4.19999981        -1.32176861E-17
  -4.15000010        -2.05536284E-17
  -4.09999990        -2.39948569E-17
  -4.05000019        -2.08609524E-17
  -4.00000000        -1.01432013E-17
  -3.95000005         6.80987399E-18
  -3.90000010         2.64871239E-17
  -3.84999990         4.40053138E-17
  -3.79999995         5.41920132E-17
  -3.75000000         5.27045936E-17
  -3.70000005         3.69542972E-17
  -3.65000010         7.12387051E-18
  -3.59999990        -3.30853088E-17
  -3.54999995        -7.58633413E-17
  -3.50000000        -1.10077821E-16
  -3.45000005        -1.23276421E-16
  -3.40000010        -1.05645549E-16
  -3.34999990        -5.41307655E-17
  -3.29999995         2.47253368E-17
  -3.25000000         1.14385420E-16
  -3.20000005         1.91920633E-16
  -3.15000010         2.33678020E-16
  -3.09999990         2.22262319E-16
  -3.04999995         1.52330418E-16
  -3.00000000         3.20338133E-17
  -2.95000005        -1.16803038E-16
  -2.90000010        -2.63653219E-16
  -2.84999990        -3.73343350E-16
  -2.79999995        -4.13175101E-16
  -2.75000000        -3.59771845E-16
  -2.70000005        -2.04844555E-16
  -2.65000010         3.71092844E-17
  -2.59999990         3.28000724E-16
  -2.54999995         6.05035370E-16
  -2.50000000         7.89337933E-16
  -2.45000005         8.01830028E-16
  -2.40000010         5.85748376E-16
  -2.34999990         1.34824206E-16
  -2.29999995        -4.97432486E-16
  -2.25000000        -1.17433865E-15
  -2.20000005        -1.70426057E-15
  -2.15000010        -1.87276676E-15
  -2.09999990        -1.51035218E-15
  -2.04999995        -5.63695027E-16
  -2.00000000         8.66690570E-16
  -1.95000005         2.48289307E-15
  -1.89999998         3.86722464E-15
  -1.85000002         4.53953205E-15
  -1.79999995         4.12307687E-15
  -1.75000000         2.43193302E-15
  -1.70000005        -4.20526738E-16
  -1.64999998        -3.98496476E-15
  -1.60000002        -7.54585230E-15
  -1.54999995        -1.02520133E-14
  -1.50000000        -1.11803368E-14
  -1.45000005        -9.64689381E-15
  -1.39999998        -5.38268982E-15
  -1.35000002         1.41271384E-15
  -1.29999995         9.89262315E-15
  -1.25000000         1.85539704E-14
  -1.20000005         2.53803140E-14
  -1.14999998         2.83323187E-14
  -1.10000002         2.56174832E-14
  -1.04999995         1.61933269E-14
  -1.00000000         4.54794753E-16
 -0.949999988        -1.97735877E-14
 -0.899999976        -4.08071539E-14
 -0.850000024        -5.81681377E-14
 -0.800000012        -6.67192403E-14
 -0.750000000        -6.31959356E-14
 -0.699999988        -4.52593353E-14
 -0.649999976        -1.30885547E-14
 -0.600000024         2.86022088E-14
 -0.550000012         7.42224614E-14
 -0.500000000         1.13119583E-13
 -0.449999988         1.36356462E-13
 -0.400000006         1.35771575E-13
 -0.349999994         1.05664623E-13
 -0.300000012         4.86567641E-14
 -0.250000000        -2.60576828E-14
 -0.200000003        -1.07053587E-13
 -0.150000006        -1.79239910E-13
 -0.100000001        -2.29485132E-13
  -5.00000007E-02    -2.34753867E-13
   0.00000000        -1.87244643E-13
   5.00000007E-02    -9.18789174E-14
  0.100000001         3.05716485E-14
  0.150000006         1.78184046E-13
  0.200000003         3.04359917E-13
  0.250000000         3.81807758E-13
  0.300000012         3.94894837E-13
  0.349999994         3.19147134E-13
  0.400000006         1.38777404E-13
  0.449999988        -9.01083272E-14
  0.500000000        -3.36241966E-13
  0.550000012        -5.76815776E-13
  0.600000024        -7.03772869E-13
  0.649999976        -7.52642306E-13
  0.699999988        -5.68461565E-13
  0.750000000        -2.77801626E-13
  0.800000012         1.62756134E-13
  0.850000024         6.29176236E-13
  0.899999976         1.16496960E-12
  0.949999988         1.50581728E-12
   1.00000000         1.62925500E-12
   1.04999995         1.31838171E-12
   1.10000002         7.94157275E-13
   1.14999998         1.21431755E-13
   1.20000005        -7.97930027E-13
   1.25000000        -1.71767830E-12
   1.29999995        -2.43198127E-12
   1.35000002        -3.06012073E-12
   1.39999998        -2.91022783E-12
   1.45000005        -2.30001391E-12
   1.50000000        -3.88917495E-13
   1.54999995         1.35556291E-12
   1.60000002         3.34171926E-12
   1.64999998         5.23323399E-12
   1.70000005         5.69957016E-12
   1.75000000         4.71363530E-12
   1.79999995         3.15903662E-12
   1.85000002         2.19060252E-12
   1.89999998        -2.42063737E-14
   1.95000005        -2.56390026E-12
   2.00000000        -4.27631498E-12
   2.04999995        -7.49979853E-12
   2.09999990        -9.53743421E-12
   2.15000010        -8.36301427E-12
   2.20000005        -4.67899070E-12
   2.25000000        -1.81832500E-12
   2.29999995         1.50624901E-12
   2.34999990         7.41179514E-12
   2.40000010         1.31435123E-11
   2.45000005         2.16391245E-11
   2.50000000         2.05780185E-11
   2.54999995         1.50028844E-11
   2.59999990         4.87478677E-12
   2.65000010        -5.43220850E-12
   2.70000005        -1.13768656E-11
   2.75000000        -1.32911572E-11
   2.79999995        -8.84036074E-12
   2.84999990         9.26669440E-13
   2.90000010        -2.48018793E-11
   2.95000005        -3.41944875E-11
   3.00000000        -4.31812225E-11
   3.04999995        -5.83815982E-12
   3.09999990         3.27845424E-11
   3.15000010         4.09894133E-11
   3.20000005         7.95528088E-11
   3.25000000         7.25049257E-11
   3.29999995         1.64855126E-11
   3.34999990        -2.60616268E-11
   3.40000010         1.23795757E-11
   3.45000005         2.41572300E-11
   3.50000000         2.91847796E-11
   3.54999995         1.23111790E-11
   3.59999990        -1.89522741E-13
   3.65000010        -7.21910517E-11
   3.70000005         3.51567278E-12
   3.75000000         6.86655524E-11
   3.79999995         2.26242879E-11
   3.84999990         4.46771092E-11
   3.90000010         5.96129118E-11
   3.95000005        -1.72071621E-10
   4.00000000        -1.84672291E-10
   4.05000019         1.62740835E-10
   4.09999990         3.87209931E-10
   4.15000010         3.82127552E-10
   4.19999981         1.80629373E-10
   4.25000000         3.91768645E-10
   4.30000019        -2.48982640E-10
   4.34999990        -7.55898122E-10
   4.40000010        -6.11468098E-10
   4.44999981        -3.62937902E-10
   4.50000000         7.48257456E-10
   4.55000019         9.69116565E-10
   4.59999990         3.91833482E-10
   4.65000010         4.14869278E-10
   4.69999981        -2.58742194E-10
   4.75000000        -1.79313486E-09
   4.80000019        -1.86039489E-10
   4.84999990         1.02523101E-09
   4.90000010         7.03123171E-10
   4.94999981         1.50097643E-10
   5.00000000         1.44426482E-09
   5.05000019         1.82427698E-10
   5.09999990         4.95506858E-10
   5.15000010         2.17892343E-10
   5.19999981         1.65816594E-09
   5.25000000         2.20081481E-10
   5.30000019         7.27085836E-10
   5.34999990        -3.41558848E-09
   5.40000010        -4.75364770E-09
   5.44999981        -5.17764454E-09
   5.50000000        -1.18047472E-09
   5.55000019         4.99810460E-09
   5.59999990         1.00687352E-08
   5.65000010         9.23565668E-09
   5.69999981         8.91785223E-09
   5.75000000        -6.19688389E-09
   5.80000019        -1.20288197E-08
   5.84999990        -1.49683341E-08
   5.90000010        -6.94777569E-09
   5.94999981         1.54313522E-08
   6.00000000         2.06366213E-08
   6.05000019         2.43019791E-08
   6.09999990         1.71119812E-08
   6.15000010        -8.14902812E-09
   6.19999981        -4.27758842E-08
   6.25000000        -4.07865741E-08
   6.30000019        -2.23898020E-08
   6.34999990         5.50835555E-09
   6.40000010         1.05922870E-08
   6.44999981         1.72457195E-08
   6.50000000         2.69609206E-08
   6.55000019         4.98001675E-08
   6.59999990         2.52738737E-08
   6.65000010        -1.18684351E-08
   6.69999981        -2.13417479E-08
   6.75000000         7.08777315E-10
   6.80000019         2.90129449E-08
   6.84999990         6.53743060E-09
   6.90000010         1.10702869E-08
   6.94999981        -4.69711701E-08
   7.00000000        -6.02495689E-08
   7.05000019        -4.96756734E-08
   7.09999990        -7.79780862E-09
   7.15000010         2.66790785E-08
   7.19999981        -2.04429842E-08
   7.25000000        -1.21049144E-08
   7.30000019         4.92375669E-08
   7.34999990         3.64009125E-08
   7.40000010         1.06052937E-07
   7.44999981         3.98843838E-08
   7.50000000         1.11645313E-07
   7.55000019        -1.30578979E-08
   7.59999990        -8.79434694E-08
   7.65000010         8.80126549E-08
   7.69999981        -2.51174299E-07
   7.75000000        -3.99148917E-07
   7.80000019         3.60017332E-08
   7.84999990         2.53046068E-07
   7.90000010         3.79133951E-07
   7.94999981         5.88153910E-07
   8.00000000         3.80767091E-07
   8.05000019        -3.53550540E-08
   8.10000038        -6.76208344E-07
   8.14999962        -4.19689485E-07
   8.19999981        -4.01475631E-07
   8.25000000        -6.26934366E-07
   8.30000019        -2.04713487E-07
   8.35000038         4.29374268E-07
   8.39999962         8.90588581E-07
   8.44999981         1.05777963E-06
   8.50000000         8.73136344E-07
   8.55000019         1.88778145E-07
   8.60000038         4.37072813E-08
   8.64999962        -2.41940199E-07
   8.69999981        -1.24341841E-06
   8.75000000        -1.52705832E-06
   8.80000019        -1.58503781E-06
   8.85000038        -8.64851813E-07
   8.89999962         8.36524180E-07
   8.94999981         1.04308560E-06
   9.00000000         1.76972446E-06
   9.05000019         9.02669058E-07
   9.10000038         1.20771801E-06
   9.14999962        -7.57767168E-07
   9.19999981         5.13881218E-07
   9.25000000        -6.62348100E-07
   9.30000019        -1.48045774E-06
   9.35000038        -1.94110135E-06
   9.39999962        -1.47016033E-06
   9.44999981         1.82817053E-06
   9.50000000         4.79789833E-06
   9.55000019         3.06318270E-06
   9.60000038         9.13434093E-08
   9.64999962         1.92501783E-08
   9.69999981        -6.05050491E-06
   9.75000000        -6.47332536E-06
   9.80000019        -1.66697987E-06
   9.85000038         4.45592605E-06
   9.89999962         6.99918746E-06
   9.94999981         6.74494459E-06
   10.0000000         1.81647806E-06
   10.0500002        -4.95433324E-06
   10.1000004        -9.51634411E-06
   10.1499996        -7.03939713E-06
   10.1999998        -7.78386584E-06
   10.2500000         6.98378017E-07
   10.3000002         6.35369361E-06
   10.3500004         1.64262256E-05
   10.3999996         1.60105810E-05
   10.4499998         1.78007883E-06
   10.5000000        -1.57609975E-05
   10.5500002        -1.76254107E-05
   10.6000004        -1.53013607E-05
   10.6499996        -1.99673286E-06
   10.6999998         7.90268132E-06
   10.7500000         2.10658818E-05
   10.8000002         1.63730147E-05
   10.8500004         6.58776844E-06
   10.8999996        -7.04658760E-06
   10.9499998        -2.01631719E-05
   11.0000000        -1.91788658E-05
   11.0500002        -1.22055656E-06
   11.1000004         1.36920301E-06
   11.1499996         8.67156814E-06
   11.1999998         6.93551692E-06
   11.2500000         4.28351314E-06
   11.3000002        -1.53479559E-05
   11.3500004        -3.91629510E-06
   11.3999996         1.04488454E-05
   11.4499998         1.68212064E-05
   11.5000000         1.28649426E-05
   11.5500002         1.16187857E-05
   11.6000004        -1.28174415E-05
   11.6499996        -2.63008478E-05
   11.6999998        -1.36650497E-05
   11.7500000        -7.45552643E-06
   11.8000002         1.07334727E-05
   11.8500004         2.35866009E-05
   11.8999996         5.57618660E-06
   11.9499998        -2.17053002E-05
   12.0000000        -1.70952135E-05
   12.0500002        -8.12107919E-06
   12.1000004         1.47997298E-05
   12.1499996         2.56315016E-05
   12.1999998         2.68087188E-05
   12.2500000         1.44155647E-05
   12.3000002         1.74165871E-05
   12.3500004         7.79249876E-06
   12.3999996        -2.14037664E-05
   12.4499998        -3.53092692E-05
   12.5000000        -6.61815357E-05
   12.5500002        -5.81526292E-05
   12.6000004        -3.85591702E-05
   12.6499996         4.02801243E-06
   12.6999998         6.93020920E-05
   12.7500000         8.73124009E-05
   12.8000002         9.85033257E-05
   12.8500004         4.99741509E-05
   12.8999996        -5.67529742E-06
   12.9499998        -9.22019244E-05
   13.0000000        -1.11166730E-04
   13.0500002        -7.09476953E-05
   13.1000004         1.73086537E-05
   13.1499996         7.22847399E-05
   13.1999998         7.85261291E-05
   13.2500000         4.82379473E-05
   13.3000002        -3.05323883E-05
   13.3500004        -6.51056616E-05
   13.3999996        -9.38318335E-05
   13.4499998        -8.03794464E-05
   13.5000000         2.83864520E-05
   13.5500002         1.11886555E-04
   13.6000004         1.42974372E-04
   13.6499996         9.22320251E-05
   13.6999998        -6.23470760E-06
   13.7500000        -7.39769457E-05
   13.8000002        -9.06589339E-05
   13.8500004        -4.97989349E-05
   13.8999996         1.34078646E-05
   13.9499998         4.14052993E-05
   14.0000000         1.75244986E-05
   14.0500002        -9.06496425E-05
   14.1000004        -1.38766423E-04
   14.1499996        -1.11786954E-04
   14.1999998        -1.38747391E-05
   14.2500000         1.10002256E-04
   14.3000002         1.93643646E-04
   14.3500004         2.24824791E-04
   14.3999996         1.36763731E-04
   14.4499998        -3.26820464E-06
   14.5000000        -1.38039468E-04
   14.5500002        -2.13311636E-04
   14.6000004        -1.80159754E-04
   14.6499996        -6.65635307E-05
   14.6999998         6.25856192E-05
   14.7500000         1.56118302E-04
   14.8000002         1.43660058E-04
   14.8500004         4.81275383E-05
   14.8999996        -7.20761454E-05
   14.9499998        -1.33623515E-04
   15.0000000        -1.30646717E-04
   15.0500002        -6.13830271E-05
   15.1000004         2.89601739E-05
   15.1499996         1.08697212E-04
   15.1999998         1.27121340E-04
   15.2500000         8.65555703E-05
   15.3000002         3.80876590E-05
   15.3500004        -5.40965630E-06
   15.3999996        -3.00525044E-05
   15.4499998        -2.76228911E-05
   15.5000000        -2.12558898E-05
   15.5500002        -2.59284407E-05
   15.6000004        -5.24557690E-05
   15.6499996        -7.67877427E-05
   15.6999998        -8.58753847E-05
   15.7500000        -5.97021790E-05
   15.8000002         4.14630040E-06
   15.8500004         8.45318573E-05
   15.8999996         1.51292043E-04
   15.9499998         1.64007361E-04
   16.0000000         1.11105903E-04
   16.0499992         1.66621081E-08
   16.1000004        -1.23912410E-04
   16.1499996        -1.99595146E-04
   16.2000008        -1.94863751E-04
   16.2500000        -1.03040104E-04
   16.2999992         4.52169843E-05
   16.3500004         1.73247812E-04
   16.3999996         2.33362938E-04
   16.4500008         1.82161748E-04
   16.5000000         5.20036265E-05
   16.5499992        -1.00300582E-04
   16.6000004        -1.99725531E-04
   16.6499996        -2.09959748E-04
   16.7000008        -1.38504314E-04
   16.7500000        -3.06796537E-05
   16.7999992         4.99009584E-05
   16.8500004         1.04762592E-04
   16.8999996         1.26536470E-04
   16.9500008         1.34072121E-04
   17.0000000         1.49389874E-04
   17.0499992         1.27988955E-04
   17.1000004         5.58207139E-05
   17.1499996        -9.54024945E-05
   17.2000008        -2.47179531E-04
   17.2500000        -3.53658455E-04
   17.2999992        -3.28293361E-04
   17.3500004        -1.20829856E-04
   17.3999996         1.72136890E-04
   17.4500008         4.00093442E-04
   17.5000000         4.74715984E-04
   17.5499992         3.25796194E-04
   17.6000004         3.30840994E-05
   17.6499996        -2.76696024E-04
   17.7000008        -4.40229749E-04
   17.7500000        -3.89304041E-04
   17.7999992        -1.48197752E-04
   17.8500004         1.40359363E-04
   17.8999996         2.98217084E-04
   17.9500008         2.74733728E-04
   18.0000000         1.22075449E-04
   18.0499992        -8.97249629E-05
   18.1000004        -2.09039368E-04
   18.1499996        -1.95389657E-04
   18.2000008        -3.13583223E-05
   18.2500000         1.74476852E-04
   18.2999992         2.82567606E-04
   18.3500004         2.43508359E-04
   18.3999996         5.34970131E-05
   18.4500008        -1.72670610E-04
   18.5000000        -3.27553367E-04
   18.5499992        -3.49475449E-04
   18.6000004        -2.18954578E-04
   18.6499996        -1.25152937E-05
   18.7000008         1.81112569E-04
   18.7500000         3.08166025E-04
   18.7999992         2.85610091E-04
   18.8500004         1.59687610E-04
   18.8999996        -3.31711863E-06
   18.9500008        -1.46336650E-04
   19.0000000        -2.00473922E-04
   19.0499992        -1.47193045E-04
   19.1000004        -2.64584251E-05
   19.1499996         1.06714753E-04
   19.2000008         1.57496921E-04
   19.2500000         1.23122052E-04
   19.2999992         3.31805786E-05
   19.3500004        -7.82439747E-05
   19.3999996        -1.54586873E-04
   19.4500008        -1.51198255E-04
   19.5000000        -1.26322295E-04
   19.5499992        -8.31281213E-05
   19.6000004        -7.25337741E-05
   19.6499996        -3.98426564E-05
   19.7000008         3.45814769E-05
   19.7500000         1.62914395E-04
   19.7999992         3.39397957E-04
   19.8500004         4.66966594E-04
   19.8999996         4.50942811E-04
   19.9500008         2.21332288E-04
   20.0000000        -1.85647834E-04
   20.0499992        -6.27260597E-04
   20.1000004        -8.73403333E-04
   20.1499996        -7.80456641E-04
   20.2000008        -3.53485229E-04
   20.2500000         2.48754135E-04
   20.2999992         7.67104095E-04
   20.3500004         9.51760041E-04
   20.3999996         7.22379249E-04
   20.4500008         1.79267037E-04
   20.5000000        -4.20640892E-04
   20.5499992        -7.82547926E-04
   20.6000004        -7.46765640E-04
   20.6499996        -3.60115926E-04
   20.7000008         2.06485551E-04
   20.7500000         6.59042329E-04
   20.7999992         8.09776073E-04
   20.8500004         5.97033533E-04
   20.8999996         1.12204681E-04
   20.9500008        -4.33284673E-04
   21.0000000        -8.28541873E-04
   21.0499992        -9.33156698E-04
   21.1000004        -7.13738089E-04
   21.1499996        -2.45794596E-04
   21.2000008         3.14669538E-04
   21.2500000         7.82982563E-04
   21.2999992         1.01816794E-03
   21.3500004         9.41830047E-04
   21.3999996         5.71229670E-04
   21.4500008         2.75942857E-05
   21.5000000        -5.21326321E-04
   21.5499992        -8.99460225E-04
   21.6000004        -9.91298235E-04
   21.6499996        -7.77596841E-04
   21.7000008        -3.32546828E-04
   21.7500000         1.94110486E-04
   21.7999992         6.31156436E-04
   21.8500004         8.49458447E-04
   21.8999996         7.87980098E-04
   21.9500008         4.78453672E-04
   22.0000000         2.52170194E-05
   22.0499992        -4.20880649E-04
   22.1000004        -7.13441055E-04
   22.1499996        -7.48305465E-04
   22.2000008        -5.06258104E-04
   22.2500000        -7.14918351E-05
   22.2999992         3.96872696E-04
   22.3500004         7.07371801E-04
   22.3999996         7.28185812E-04
   22.4500008         4.41413664E-04
   22.5000000        -3.33655116E-05
   22.5499992        -4.92620631E-04
   22.6000004        -7.36535992E-04
   22.6499996        -6.63227984E-04
   22.7000008        -3.13002995E-04
   22.7500000         1.52505876E-04
   22.7999992         5.29142097E-04
   22.8500004         6.68955385E-04
   22.8999996         5.41034038E-04
   22.9500008         2.27418466E-04
   23.0000000        -1.28467975E-04
   23.0499992        -3.94502888E-04
   23.1000004        -4.99538728E-04
   23.1499996        -4.43811266E-04
   23.2000008        -2.75022001E-04
   23.2500000        -5.34604405E-05
   23.2999992         1.67175342E-04
   23.3500004         3.40758474E-04
   23.3999996         4.25317849E-04
   23.4500008         3.89955647E-04
   23.5000000         2.28884252E-04
   23.5499992        -1.82053773E-05
   23.6000004        -2.67552998E-04
   23.6499996        -4.20446187E-04
   23.7000008        -4.09810076E-04
   23.7500000        -2.39152199E-04
   23.7999992         1.40631773E-05
   23.8500004         2.33841434E-04
   23.8999996         3.26365785E-04
   23.9500008         2.65476032E-04
   24.0000000         1.02316655E-04
   24.0499992        -6.87881038E-05
   24.1000004        -1.64790108E-04
   24.1499996        -1.56298527E-04
   24.2000008        -7.36659422E-05
   24.2500000         2.13450585E-05
   24.2999992         7.69174003E-05
   24.3500004         7.84419099E-05
   24.3999996         4.63485121E-05
   24.4500008         1.13308852E-05
   24.5000000        -1.16391620E-05
   24.5499992        -3.02229728E-05
   24.6000004        -6.04746383E-05
   24.6499996        -1.03406506E-04
   24.7000008        -1.33774680E-04
   24.7500000        -1.12400041E-04
   24.7999992        -1.54465106E-05
   24.8500004         1.38607065E-04
   24.8999996         2.85932329E-04
   24.9500008         3.44215136E-04
   25.0000000         2.57399166E-04
   25.0499992         3.30907715E-05
   25.1000004        -2.50023179E-04
   25.1499996        -4.71584877E-04
   25.2000008        -5.23260678E-04
   25.2500000        -3.61262471E-04
   25.2999992        -3.21830339E-05
   25.3500004         3.40468046E-04
   25.3999996         6.04534231E-04
   25.4500008         6.42196741E-04