  -15.0000000        -1.18021238E-38
  -14.9499998         0.00000000    
  -14.8999996         0.00000000    
  -14.8500004        -2.14859832E-38
  -14.8000002        -0.00000000    
  -14.7500000         0.00000000    
  -14.6999998         0.00000000    
  -14.6499996         0.00000000    
  -14.6000004        -0.00000000    
  -14.5500002        -0.00000000    
  -14.5000000         0.00000000    
  -14.4499998        -0.00000000    
  -14.3999996        -2.45754624E-38
  -14.3500004        -2.60811772E-38
  -14.3000002        -2.49368769E-38
  -14.2500000        -1.80425361E-38
  -14.1999998        -0.00000000    
  -14.1499996         1.48755553E-38
  -14.1000004         3.48586642E-38
  -14.0500002         4.42817966E-38
  -14.0000000         3.57367963E-38
  -13.9499998         1.32978908E-38
  -13.8999996        -0.00000000    
  -13.8500004        -1.68491062E-38
  -13.8000002        -2.25299240E-38
  -13.7500000        -1.52978114E-38
  -13.6999998         0.00000000    
  -13.6499996         0.00000000    
  -13.6000004         1.67735426E-38
  -13.5500002         0.00000000    
  -13.5000000         0.00000000    
  -13.4499998        -1.38030813E-38
  -13.3999996        -2.88005174E-38
  -13.3500004        -3.39943853E-38
  -13.3000002        -3.82337560E-38
  -13.2500000        -1.63329183E-38
  -13.1999998         0.00000000    
  -13.1499996         2.72382826E-38
  -13.1000004         4.10874611E-38
  -13.0500002         4.96437278E-38
  -13.0000000         4.48475540E-38
  -12.9499998         2.83253651E-38
  -12.8999996         0.00000000    
  -12.8500004        -2.18425408E-38
  -12.8000002        -4.59307689E-38
  -12.7500000        -6.58594303E-38
  -12.6999998        -6.21281761E-38
  -12.6499996        -3.65433865E-38
  -12.6000004         0.00000000    
  -12.5500002         4.28101053E-38
  -12.5000000         6.92960644E-38
  -12.4499998         7.46574547E-38
  -12.3999996         5.18165308E-38
  -12.3500004         0.00000000    
  -12.3000002        -3.02931329E-38
  -12.2500000        -6.52088411E-38
  -12.1999998        -6.88920028E-38
  -12.1499996        -4.93838710E-38
  -12.1000004        -1.23132797E-38
  -12.0500002         2.56132584E-38
  -12.0000000         4.70372734E-38
  -11.9499998         4.85811793E-38
  -11.8999996         2.57235070E-38
  -11.8500004        -0.00000000    
  -11.8000002        -2.87633297E-38
  -11.7500000        -3.59338973E-38
  -11.6999998        -2.18563492E-38
  -11.6499996         0.00000000    
  -11.6000004         3.23143798E-38
  -11.5500002         4.80131994E-38
  -11.5000000         4.18940036E-38
  -11.4499998         1.46896507E-38
  -11.3999996        -2.51283167E-38
  -11.3500004        -6.05101584E-38
  -11.3000002        -7.72116855E-38
  -11.2500000        -6.61158063E-38
  -11.1999998        -2.75756732E-38
  -11.1499996         2.09882014E-38
  -11.1000004         6.32347591E-38
  -11.0500002         8.03472254E-38
  -11.0000000         6.62988047E-38
  -10.9499998         3.84785124E-38
  -10.8999996         2.24913238E-38
  -10.8500004         3.89054208E-38
  -10.8000002         6.66259630E-38
  -10.7500000         3.56693602E-38
  -10.6999998        -1.19724744E-37
  -10.6499996        -3.83108947E-37
  -10.6000004        -5.65537469E-37
  -10.5500002        -3.60188434E-37
  -10.5000000         4.02569866E-37
  -10.4499998         1.45014679E-36
  -10.3999996         1.95276703E-36
  -10.3500004         9.55280903E-37
  -10.3000002        -1.70166870E-36
  -10.2500000        -4.61590745E-36
  -10.1999998        -5.16919336E-36
  -10.1499996        -1.45485560E-36
  -10.1000004         5.25879180E-36
  -10.0500002         1.00073865E-35
  -10.0000000         7.58532356E-36
  -9.94999981        -1.33307985E-36
  -9.89999962        -7.14764204E-36
  -9.85000038         1.75432828E-36
  -9.80000019         2.25358453E-35
  -9.75000000         2.53766185E-35
  -9.69999981        -3.28537068E-35
  -9.64999962        -1.58623090E-34
  -9.60000038        -2.62797810E-34
  -9.55000019        -1.60772408E-34
  -9.50000000         3.03031286E-34
  -9.44999981         1.02555252E-33
  -9.39999962         1.47422301E-33
  -9.35000038         8.31605223E-34
  -9.30000019        -1.39749436E-33
  -9.25000000        -4.53982384E-33
  -9.19999981        -6.34561532E-33
  -9.14999962        -3.82091757E-33
  -9.10000038         4.49495154E-33
  -9.05000019         1.58791287E-32
  -9.00000000         2.26599135E-32
  -8.94999981         1.54489036E-32
  -8.89999962        -9.78745543E-33
  -8.85000038        -4.46373879E-32
  -8.80000019        -6.74319983E-32
  -8.75000000        -5.32296991E-32
  -8.69999981         7.85716808E-33
  -8.64999962         9.51566850E-32
  -8.60000038         1.59271362E-31
  -8.55000019         1.47722894E-31
  -8.50000000         4.29590611E-32
  -8.44999981        -1.14786894E-31
  -8.39999962        -2.45030034E-31
  -8.35000038        -2.82611623E-31
  -8.30000019        -2.30223484E-31
  -8.25000000        -1.51112303E-31
  -8.19999981        -8.23085611E-32
  -8.14999962         6.85497700E-32
  -8.10000038         5.13241052E-31
  -8.05000019         1.36464531E-30
  -8.00000000         2.28771382E-30
  -7.94999981         2.32178679E-30
  -7.90000010         2.53462560E-31
  -7.84999990        -4.34712443E-30
  -7.80000019        -9.90477559E-30
  -7.75000000        -1.24839561E-29
  -7.69999981        -7.33159099E-30
  -7.65000010         7.64303568E-30
  -7.59999990         2.81252909E-29
  -7.55000019         4.24124410E-29
  -7.50000000         3.57904078E-29
  -7.44999981        -3.45766227E-33
  -7.40000010        -5.68141991E-29
  -7.34999990        -1.07072027E-28
  -7.30000019        -1.13642770E-28
  -7.25000000        -5.13658456E-29
  -7.19999981         7.03308268E-29
  -7.15000010         1.99711472E-28
  -7.09999990         2.61297680E-28
  -7.05000019         1.96904225E-28
  -7.00000000         7.59487464E-30
  -6.94999981        -2.32658332E-28
  -6.90000010        -4.08366385E-28
  -6.84999990        -4.26675575E-28
  -6.80000019        -2.73903470E-28
  -6.75000000        -2.09730596E-29
  -6.69999981         2.33441343E-28
  -6.65000010         4.40948979E-28
  -6.59999990         6.29827047E-28
  -6.55000019         8.32676004E-28
  -6.50000000         9.53178070E-28
  -6.44999981         6.98968703E-28
  -6.40000010        -2.81386478E-28
  -6.34999990        -2.04268540E-27
  -6.30000019        -3.96653900E-27
  -6.25000000        -4.71975942E-27
  -6.19999981        -2.82942336E-27
  -6.15000010         2.21097759E-27
  -6.09999990         8.89802360E-27
  -6.05000019         1.36163201E-26
  -6.00000000         1.20874006E-26
  -5.94999981         2.08338512E-27
  -5.90000010        -1.39789141E-26
  -5.84999990        -2.85137380E-26
  -5.80000019        -3.15971364E-26
  -5.75000000        -1.65831874E-26
  -5.69999981         1.42706941E-26
  -5.65000010         4.79596800E-26
  -5.59999990         6.52418968E-26
  -5.55000019         5.05563975E-26
  -5.50000000         2.57905400E-27
  -5.44999981        -6.11517208E-26
  -5.40000010        -1.09963401E-25
  -5.34999990        -1.14745994E-25
  -5.30000019        -6.42822599E-26
  -5.25000000         2.65101114E-26
  -5.19999981         1.22386667E-25
  -5.15000010         1.85016737E-25
  -5.09999990         1.91189919E-25
  -5.05000019         1.39972250E-25
  -5.00000000         4.44870589E-26
  -4.94999981        -8.38192753E-26
  -4.90000010        -2.42024202E-25
  -4.84999990        -4.21557851E-25
  -4.80000019        -5.77983643E-25
  -4.75000000        -6.09683624E-25
  -4.69999981        -3.78143384E-25
  -4.65000010         2.14938441E-25
  -4.59999990         1.11785544E-24
  -4.55000019         2.04996215E-24
  -4.50000000         2.52855459E-24
  -4.44999981         2.03925908E-24
  -4.40000010         3.12538087E-25
  -4.34999990        -2.41537337E-24
  -4.30000019        -5.30878185E-24
  -4.25000000        -7.11593242E-24
  -4.19999981        -6.61909914E-24
  -4.15000010        -3.19750194E-24
  -4.09999990         2.73273901E-24
  -4.05000019         9.62954776E-24
  -4.00000000         1.51737364E-23
  -3.95000005         1.69794137E-23
  -3.90000010         1.34188553E-23
  -3.84999990         4.29239295E-24
  -3.79999995        -8.88864013E-24
  -3.75000000        -2.30747069E-23
  -3.70000005        -3.42598347E-23
  -3.65000010        -3.83357086E-23
  -3.59999990        -3.21013030E-23
  -3.54999995        -1.42788273E-23
  -3.50000000         1.35897873E-23
  -3.45000005         4.66542121E-23
  -3.40000010         7.68953969E-23
  -3.34999990         9.42768110E-23
  -3.29999995         8.89624507E-23
  -3.25000000         5.44824007E-23
  -3.20000005        -8.87195967E-24
  -3.15000010        -9.15088621E-23
  -3.09999990        -1.74096591E-22
  -3.04999995        -2.30445582E-22
  -3.00000000        -2.33644924E-22
  -2.95000005        -1.65125602E-22
  -2.90000010        -2.36492816E-23
  -2.84999990         1.68481113E-22
  -2.79999995         3.65840114E-22
  -2.75000000         5.08170816E-22
  -2.70000005         5.36648316E-22
  -2.65000010         4.13390832E-22
  -2.59999990         1.38288907E-22
  -2.54999995        -2.43085431E-22
  -2.50000000        -6.44930418E-22
  -2.45000005        -9.58956381E-22
  -2.40000010        -1.08138608E-21
  -2.34999990        -9.40343606E-22
  -2.29999995        -5.17899932E-22
  -2.25000000         1.36032146E-22
  -2.20000005         9.05030102E-22
  -2.15000010         1.61553998E-21
  -2.09999990         2.06526784E-21
  -2.04999995         2.06214087E-21
  -2.00000000         1.48156004E-21
  -1.95000005         3.26268554E-22
  -1.89999998        -1.22257577E-21
  -1.85000002        -2.80418004E-21
  -1.79999995        -3.92727260E-21
  -1.75000000        -4.09488815E-21
  -1.70000005        -2.99260657E-21
  -1.64999998        -6.43436000E-22
  -1.60000002         2.50136146E-21
  -1.54999995         5.57731173E-21
  -1.50000000         7.50883298E-21
  -1.45000005         7.32725634E-21
  -1.39999998         4.51448036E-21
  -1.35000002        -7.03434211E-22
  -1.29999995        -7.22302673E-21
  -1.25000000        -1.32094443E-20
  -1.20000005        -1.64844155E-20
  -1.14999998        -1.50859035E-20
  -1.10000002        -7.91779706E-21
  -1.04999995         4.63289604E-21
  -1.00000000         2.03674921E-20
 -0.949999988         3.53909354E-20
 -0.899999976         4.47383898E-20
 -0.850000024         4.33367031E-20
 -0.800000012         2.75575673E-20
 -0.750000000        -3.08748859E-21
 -0.699999988        -4.49276397E-20
 -0.649999976        -8.94719393E-20
 -0.600000024        -1.24618391E-19
 -0.550000012        -1.36685302E-19
 -0.500000000        -1.13805551E-19
 -0.449999988        -5.00059761E-20
 -0.400000006         5.10037982E-20
 -0.349999994         1.74311331E-19
 -0.300000012         2.94054643E-19
 -0.250000000         3.76608896E-19
 -0.200000003         3.87446229E-19
 -0.150000006         3.00004010E-19
 -0.100000001         1.05230589E-19
  -5.00000007E-02    -1.79954874E-19
   0.00000000        -5.11976047E-19
   5.00000007E-02    -8.20339312E-19
  0.100000001        -1.01998618E-18
  0.150000006        -1.02893772E-18
  0.200000003        -7.89302616E-19
  0.250000000        -2.87717173E-19
  0.300000012         4.25790238E-19
  0.349999994         1.24143339E-18
  0.400000006         1.99122226E-18
  0.449999988         2.48521741E-18
  0.500000000         2.53719186E-18
  0.550000012         2.01850536E-18
  0.600000024         9.13081148E-19
  0.649999976        -6.76414073E-19
  0.699999988        -2.49850545E-18
  0.750000000        -4.20339397E-18
  0.800000012        -5.37155415E-18
  0.850000024        -5.64260759E-18
  0.899999976        -4.75051976E-18
  0.949999988        -2.65108346E-18
   1.00000000         4.53549902E-19
   1.04999995         4.06088688E-18
   1.10000002         7.48673231E-18
   1.14999998         9.94742010E-18
   1.20000005         1.07433068E-17
   1.25000000         9.42292804E-18
   1.29999995         5.95103553E-18
   1.35000002         7.65005427E-19
   1.39999998        -5.22153419E-18
   1.45000005        -1.08053288E-17
   1.50000000        -1.46978414E-17
   1.54999995        -1.57097265E-17
   1.60000002        -1.33496065E-17
   1.64999998        -7.78757708E-18
   1.70000005        -5.91462360E-22
   1.75000000         8.13775241E-18
   1.79999995         1.46933416E-17
   1.85000002         1.72649171E-17
   1.89999998         1.45282380E-17
   1.95000005         6.07700397E-18
   2.00000000        -6.71613375E-18
   2.04999995        -2.08774166E-17
   2.09999990        -3.22364593E-17
   2.15000010        -3.65727022E-17
   2.20000005        -3.00600677E-17
   2.25000000        -9.65350215E-18
   2.29999995         2.31003917E-17
   2.34999990         6.40292917E-17
   2.40000010         1.04031151E-16
   2.45000005         1.32618254E-16
   2.50000000         1.39391712E-16
   2.54999995         1.15918060E-16
   2.59999990         5.80016001E-17
   2.65000010        -3.36131956E-17
   2.70000005        -1.48486914E-16
   2.75000000        -2.69311558E-16
   2.79999995        -3.71793730E-16
   2.84999990        -4.32335701E-16
   2.90000010        -4.30742406E-16
   2.95000005        -3.48544635E-16
   3.00000000        -1.79485117E-16
   3.04999995         5.96262623E-17
   3.09999990         3.40705451E-16
   3.15000010         6.21292155E-16
   3.20000005         8.48389100E-16
   3.25000000         9.81271258E-16
   3.29999995         9.78925930E-16
   3.34999990         8.31837706E-16
   3.40000010         5.41164374E-16
   3.45000005         1.42106519E-16
   3.50000000        -2.89714120E-16
   3.54999995        -6.89679266E-16
   3.59999990        -9.24251224E-16
   3.65000010        -9.25623629E-16
   3.70000005        -7.38412248E-16
   3.75000000        -3.24832662E-16
   3.79999995         2.81382757E-16
   3.84999990         9.71892698E-16
   3.90000010         1.56384813E-15
   3.95000005         2.02489939E-15
   4.00000000         2.12450686E-15
   4.05000019         1.92042190E-15
   4.09999990         1.12941817E-15
   4.15000010        -8.44153035E-17
   4.19999981        -1.08436152E-15
   4.25000000        -1.87670695E-15
   4.30000019        -2.51050507E-15
   4.34999990        -2.27622592E-15
   4.40000010        -1.23238963E-15
   4.44999981         7.75529338E-16
   4.50000000         2.58684434E-15
   4.55000019         4.40437312E-15
   4.59999990         7.16180418E-15
   4.65000010         9.48572292E-15
   4.69999981         1.18844364E-14
   4.75000000         1.24177952E-14
   4.80000019         1.11210412E-14
   4.84999990         6.92326276E-15
   4.90000010         4.40671644E-15
   4.94999981         6.44494611E-16
   5.00000000        -2.02190724E-15
   5.05000019        -3.06632851E-15
   5.09999990        -1.13910462E-15
   5.15000010         2.93771122E-15
   5.19999981         8.32722072E-15
   5.25000000         1.53600396E-14
   5.30000019         2.43769001E-14
   5.34999990         3.28276157E-14
   5.40000010         4.16132752E-14
   5.44999981         4.69743703E-14
   5.50000000         5.62369297E-14
   5.55000019         5.99894619E-14
   5.59999990         6.16344066E-14
   5.65000010         6.02830638E-14
   5.69999981         4.33058740E-14
   5.75000000         3.21695524E-14
   5.80000019         2.28969167E-14
   5.84999990         2.79348722E-14
   5.90000010         5.31763320E-14
   5.94999981         1.05141143E-13
   6.00000000         1.21751703E-13
   6.05000019         1.43491867E-13
   6.09999990         1.88435435E-13
   6.15000010         2.00402141E-13
   6.19999981         2.48375485E-13
   6.25000000         2.42443029E-13
   6.30000019         3.12170672E-13
   6.34999990         3.62588323E-13
   6.40000010         3.78069537E-13
   6.44999981         3.37589684E-13
   6.50000000         3.67302976E-13
   6.55000019         2.41647170E-13
   6.59999990         3.90137765E-13
   6.65000010         4.61587149E-13
   6.69999981         7.55688318E-13
   6.75000000         7.36393206E-13
   6.80000019         8.03892922E-13
   6.84999990         8.63730745E-13
   6.90000010         1.00882247E-12
   6.94999981         1.16266155E-12
   7.00000000         1.42449496E-12
   7.05000019         1.72893503E-12
   7.09999990         1.50848973E-12
   7.15000010         1.45860320E-12
   7.19999981         1.55684515E-12
   7.25000000         2.10397758E-12
   7.30000019         1.65397904E-12
   7.34999990         3.20112014E-12
   7.40000010         3.00576773E-12
   7.44999981         3.52759510E-12
   7.50000000         3.97026292E-12
   7.55000019         3.72896896E-12
   7.59999990         3.67404935E-12
   7.65000010         4.87032116E-12
   7.69999981         5.93088642E-12
   7.75000000         6.62319505E-12
   7.80000019         6.02760853E-12
   7.84999990         5.42617644E-12
   7.90000010         8.68977980E-12
   7.94999981         1.04917646E-11
   8.00000000         7.60095112E-12
   8.05000019         1.09868495E-11
   8.10000038         1.59780175E-11
   8.14999962         1.62927657E-11
   8.19999981         1.65135579E-11
   8.25000000         1.62500968E-11
   8.30000019         9.63741066E-12
   8.35000038         1.47477031E-11
   8.39999962         2.25321255E-11
   8.44999981         2.51727320E-11
   8.50000000         4.42963409E-11
   8.55000019         3.57314109E-11
   8.60000038         3.92491387E-11
   8.64999962         2.02255244E-11
   8.69999981         2.46050680E-11
   8.75000000         3.41721478E-11
   8.80000019         4.56755085E-11
   8.85000038         5.53140624E-11
   8.89999962         9.01320199E-11
   8.94999981         5.81024118E-11
   9.00000000         6.19089224E-11
   9.05000019         9.21937388E-11
   9.10000038         9.14894410E-11
   9.14999962         7.69762171E-11
   9.19999981         1.18422341E-10
   9.25000000         1.13111014E-10
   9.30000019         1.04458511E-10
   9.35000038         1.17511043E-10
   9.39999962         1.13560397E-10
   9.44999981         8.01116395E-11
   9.50000000         4.82301733E-11
   9.55000019         1.25596478E-10
   9.60000038         1.80974943E-10
   9.64999962         3.27403493E-10
   9.69999981         3.66939923E-10
   9.75000000         2.94810842E-10
   9.80000019         2.90475255E-10
   9.85000038         1.55852886E-10
   9.89999962         2.32183273E-10
   9.94999981         1.48317886E-10
   10.0000000         8.07068093E-11
   10.0500002         2.13159476E-10
   10.1000004         4.16575857E-10
   10.1499996         5.03574682E-10
   10.1999998         5.83260995E-10
   10.2500000         6.88540780E-10
   10.3000002         6.38169684E-10
   10.3500004         6.86822210E-10
   10.3999996         5.54375934E-10
   10.4499998         5.84910231E-10
   10.5000000         5.58513957E-10
   10.5500002         6.61594668E-10
   10.6000004         1.20419397E-09
   10.6499996         1.16652854E-09
   10.6999998         9.38162437E-10
   10.7500000         7.72496567E-10
   10.8000002        -4.46137328E-11
   10.8500004        -3.42164713E-10
   10.8999996         5.08215831E-11
   10.9499998         5.78353310E-10
   11.0000000         8.86102192E-10
   11.0500002         2.76359269E-09
   11.1000004         4.42017978E-09
   11.1499996         3.42485951E-09
   11.1999998         2.46011478E-09
   11.2500000         1.34105904E-09
   11.3000002        -2.06030915E-10
   11.3500004        -1.88198279E-09
   11.3999996        -3.12116222E-09
   11.4499998        -1.04081443E-09
   11.5000000         2.25140706E-09
   11.5500002         5.16712895E-09
   11.6000004         4.34778213E-09
   11.6499996         4.75608664E-09
   11.6999998         4.39258097E-09
   11.7500000         2.73639467E-09
   11.8000002         1.36404010E-09
   11.8500004         4.41011494E-09
   11.8999996         3.76049902E-09
   11.9499998         9.03530029E-10
   12.0000000         4.34031167E-09
   12.0500002         8.27072910E-10
   12.1000004         3.37531936E-09
   12.1499996         5.80131276E-09
   12.1999998         3.24495963E-09
   12.2500000        -9.58271018E-10
   12.3000002        -6.02694561E-10
   12.3500004         7.66944952E-10
   12.3999996         2.89687052E-09
   12.4499998         5.69678926E-09
   12.5000000         4.41350290E-09
   12.5500002         1.11780025E-08
   12.6000004         1.67392642E-08
   12.6499996         1.58196212E-08
   12.6999998         3.09730974E-09
   12.7500000        -1.40070320E-08
   12.8000002        -1.79289508E-08
   12.8500004        -1.30391609E-08
   12.8999996         9.76357217E-10
   12.9499998         1.64546350E-08
   13.0000000         3.27313252E-08
   13.0500002         2.12178755E-08
   13.1000004         2.77512786E-08
   13.1499996         6.59647315E-09
   13.1999998        -1.01224735E-08
   13.2500000        -2.58726285E-08
   13.3000002        -1.66503309E-08
   13.3500004         6.46377485E-09
   13.3999996         8.17550294E-09
   13.4499998         2.20660077E-08
   13.5000000         3.17688027E-08
   13.5500002         8.83042084E-09
   13.6000004         1.17320509E-08
   13.6499996        -1.96674037E-08
   13.6999998         1.09320357E-08
   13.7500000        -1.06444631E-08
   13.8000002         3.07929078E-08
   13.8500004         6.97762133E-08
   13.8999996         4.12455030E-08
   13.9499998         3.28826353E-08
   14.0000000        -6.51524301E-09
   14.0500002        -2.34785382E-08
   14.1000004        -1.29293682E-07
   14.1499996        -1.33272650E-07
   14.1999998        -9.82200774E-08
   14.2500000         1.20304398E-08
   14.3000002         1.03596072E-07
   14.3500004         1.98614359E-07
   14.3999996         2.23377100E-07
   14.4499998         1.36244481E-07
   14.5000000        -5.82859805E-09
   14.5500002        -1.09964660E-07
   14.6000004        -1.72030283E-07
   14.6499996        -1.39068860E-07
   14.6999998        -7.24101454E-08
   14.7500000        -1.11185852E-08
   14.8000002        -5.74847547E-09
   14.8500004         3.17666284E-08
   14.8999996        -3.12847304E-09
   14.9499998         2.97883629E-09
   15.0000000         1.31954554E-08
   15.0500002         5.05724138E-08
   15.1000004         6.38985327E-08
   15.1499996         6.17701801E-08
   15.1999998         2.21291518E-08
   15.2500000         4.09211438E-08
   15.3000002         1.24640076E-08
   15.3500004        -1.09798449E-07
   15.3999996        -1.19124145E-07
   15.4499998        -3.47602267E-08
   15.5000000        -2.46728913E-08
   15.5500002        -1.21753683E-08
   15.6000004         1.23278539E-07
   15.6499996         1.39386036E-09
   15.6999998        -8.23585040E-08
   15.7500000        -1.12244919E-07
   15.8000002        -1.29772218E-07
   15.8500004        -1.14077054E-07
   15.8999996        -2.21146994E-08
   15.9499998         1.45301925E-07
   16.0000000         2.27972720E-07
   16.0499992         1.86603245E-07
   16.1000004         2.40877313E-07
   16.1499996        -6.63628263E-09
   16.2000008        -5.75444226E-08
   16.2500000        -2.96910798E-07
   16.2999992        -3.16633049E-07
   16.3500004        -2.90868115E-07
   16.3999996        -1.62315345E-07
   16.4500008         8.63802363E-09
   16.5000000         1.97593849E-07
   16.5499992         1.92642347E-07
   16.6000004        -1.60579134E-07
   16.6499996        -3.17219872E-07
   16.7000008        -7.77769245E-08
   16.7500000         1.15037317E-07
   16.7999992         2.58708837E-07
   16.8500004         4.52544839E-07
   16.8999996         4.15193256E-07
   16.9500008         1.11933922E-07
   17.0000000        -1.41532595E-07
   17.0499992        -3.05652861E-07
   17.1000004        -5.15771433E-07
   17.1499996        -6.46359808E-07
   17.2000008        -5.78056529E-07
   17.2500000        -3.72513426E-07
   17.2999992        -2.66617448E-08
   17.3500004         2.63364086E-07
   17.3999996         5.49885613E-07
   17.4500008         7.19820434E-07
   17.5000000         7.78908714E-07
   17.5499992         6.94371579E-07
   17.6000004         2.65516917E-07
   17.6499996        -2.30188377E-07
   17.7000008        -6.26665894E-07
   17.7500000        -8.80258312E-07
   17.7999992        -1.02938259E-06
   17.8500004        -6.69667884E-07
   17.8999996        -1.35267996E-07
   17.9500008         4.20684898E-07
   18.0000000         7.61242518E-07
   18.0499992         8.71629481E-07
   18.1000004         5.24313180E-07
   18.1499996         1.67533997E-07
   18.2000008        -1.27185302E-07
   18.2500000        -3.87758973E-07
   18.2999992        -3.57890286E-07
   18.3500004        -1.66783423E-07
   18.3999996         2.49140886E-08
   18.4500008         7.22844984E-09
   18.5000000        -1.59090760E-07
   18.5499992        -4.31045038E-07
   18.6000004        -6.29553654E-07
   18.6499996        -5.52683105E-07
   18.7000008        -2.83671625E-07
   18.7500000         2.65962228E-07
   18.7999992         8.49183493E-07
   18.8500004         1.31769320E-06
   18.8999996         1.46869615E-06
   18.9500008         1.14923841E-06
   19.0000000         5.61764296E-07
   19.0499992        -2.38875572E-07
   19.1000004        -9.58025112E-07
   19.1499996        -1.37200698E-06
   19.2000008        -1.41144437E-06
   19.2500000        -1.09904067E-06
   19.2999992        -5.46137926E-07
   19.3500004         4.33632437E-08
   19.3999996         5.18054435E-07
   19.4500008         7.64441211E-07
   19.5000000         7.76747584E-07
   19.5499992         6.36578818E-07
   19.6000004         4.14230527E-07
   19.6499996         2.42031376E-07
   19.7000008         6.47047145E-08
   19.7500000        -4.75910822E-09
   19.7999992        -8.97021337E-08
   19.8500004        -2.41700633E-07
   19.8999996        -3.51631542E-07
   19.9500008        -4.07006212E-07
   20.0000000        -4.55364841E-07
   20.0499992        -3.90364477E-07
   20.1000004        -1.48450269E-07
   20.1499996         2.05908123E-07
   20.2000008         5.94572555E-07
   20.2500000         8.32497904E-07
   20.2999992         8.59780471E-07
   20.3500004         5.90368813E-07
   20.3999996         1.43311510E-07
   20.4500008        -4.06708608E-07
   20.5000000        -8.18374588E-07
   20.5499992        -1.13760120E-06
   20.6000004        -9.00734619E-07
   20.6499996        -3.63258891E-07
   20.7000008         3.19523679E-07
   20.7500000         8.16318334E-07
   20.7999992         9.78225557E-07
   20.8500004         7.68462428E-07
   20.8999996         4.51453843E-07
   20.9500008        -1.41950494E-07
   21.0000000        -6.19558932E-07
   21.0499992        -8.70453505E-07
   21.1000004        -7.58923989E-07
   21.1499996        -3.74549927E-07
   21.2000008        -5.84088014E-08
   21.2500000         2.57995453E-07
   21.2999992         3.11107499E-07
   21.3500004         2.09294910E-07
   21.3999996         2.98317588E-07
   21.4500008         2.71156438E-07
   21.5000000         3.29859347E-07
   21.5499992         3.42584229E-07
   21.6000004         3.68578839E-07
   21.6499996         1.30145835E-07
   21.7000008         4.56506157E-08
   21.7500000        -1.17833956E-07
   21.7999992        -4.12855798E-07
   21.8500004        -5.29112015E-07
   21.8999996        -6.28268538E-07
   21.9500008        -5.75309286E-07
   22.0000000        -3.19212120E-07
   22.0499992        -4.18325321E-08
   22.1000004         3.23172429E-07
   22.1499996         6.36376797E-07
   22.2000008         9.03975661E-07
   22.2500000         1.03980824E-06
   22.2999992         9.50390870E-07
   22.3500004         5.95534914E-07
   22.3999996         1.99573140E-08
   22.4500008        -6.96496613E-07
   22.5000000        -1.37579286E-06
   22.5499992        -1.80411860E-06
   22.6000004        -1.83932957E-06
   22.6499996        -1.40636200E-06
   22.7000008        -4.95863901E-07
   22.7500000         6.73004706E-07
   22.7999992         1.64100470E-06
   22.8500004         2.20545462E-06
   22.8999996         2.04426669E-06
   22.9500008         1.28344857E-06
   23.0000000         2.64103988E-07
   23.0499992        -8.50429615E-07
   23.1000004        -1.61696289E-06
   23.1499996        -1.83113900E-06
   23.2000008        -1.47424419E-06
   23.2500000        -7.11054554E-07
   23.2999992         1.39078679E-07
   23.3500004         6.96062045E-07
   23.3999996         9.91143452E-07
   23.4500008         9.71661620E-07
   23.5000000         7.60533624E-07
   23.5499992         5.27166378E-07
   23.6000004         2.93360586E-07
   23.6499996         8.69689316E-08
   23.7000008        -1.68533006E-07
   23.7500000        -4.37904760E-07
   23.7999992        -6.82734878E-07
   23.8500004        -8.11324981E-07
   23.8999996        -6.80817493E-07
   23.9500008        -3.00332829E-07
   24.0000000         1.97129623E-07
   24.0499992         6.17494209E-07
   24.1000004         7.18074148E-07
   24.1499996         4.91598712E-07
   24.2000008        -8.95002543E-08
   24.2500000        -6.62142384E-07
   24.2999992        -1.07106143E-06
   24.3500004        -9.98480346E-07
   24.3999996        -4.30995243E-07
   24.4500008         4.78983850E-07
   24.5000000         1.40666248E-06
   24.5499992         2.02142769E-06
   24.6000004         2.05068250E-06
   24.6499996         1.36086078E-06
   24.7000008         1.99191902E-07
   24.7500000        -1.15593775E-06
   24.7999992        -2.24147789E-06
   24.8500004        -2.72666557E-06
   24.8999996        -2.48984747E-06
   24.9500008        -1.60908962E-06
   25.0000000        -4.07644677E-07
   25.0499992         7.43153635E-07
   25.1000004         1.53099631E-06
   25.1499996         1.82002134E-06
   25.2000008         1.66553696E-06
   25.2500000         1.27936937E-06
   25.2999992         8.63204775E-07
   25.3500004         5.94720007E-07
   25.3999996         4.66046487E-07
   25.4500008         3.71791515E-07