  -15.0000000         5.85374228E-31
  -14.9499998         1.71031419E-30
  -14.8999996         2.70194016E-30
  -14.8500004         3.48464072E-30
  -14.8000002         4.00122215E-30
  -14.7500000         4.21752778E-30
  -14.6999998         4.12474912E-30
  -14.6499996         3.73933179E-30
  -14.6000004         3.10063925E-30
  -14.5500002         2.26676669E-30
  -14.5000000         1.30905186E-30
  -14.4499998         3.05870965E-31
  -14.3999996        -6.63703012E-31
  -14.3500004        -1.52589831E-30
  -14.3000002        -2.21752514E-30
  -14.2500000        -2.69027737E-30
  -14.1999998        -2.91388329E-30
  -14.1499996        -2.87799536E-30
  -14.1000004        -2.59274031E-30
  -14.0500002        -2.08787244E-30
  -14.0000000        -1.41052316E-30
  -13.9499998        -6.21582182E-31
  -13.8999996         2.09131048E-31
  -13.8500004         1.00863434E-30
  -13.8000002         1.70706286E-30
  -13.7500000         2.24391396E-30
  -13.6999998         2.57363354E-30
  -13.6499996         2.66992214E-30
  -13.6000004         2.52822673E-30
  -13.5500002         2.16607516E-30
  -13.5000000         1.62115435E-30
  -13.4499998         9.47320741E-31
  -13.3999996         2.08987097E-31
  -13.3500004        -5.25445693E-31
  -13.3000002        -1.19035072E-30
  -13.2500000        -1.72905871E-30
  -13.1999998        -2.09880698E-30
  -13.1499996        -2.27399420E-30
  -13.1000004        -2.24753203E-30
  -13.0500002        -2.03032832E-30
  -13.0000000        -1.64915707E-30
  -12.9499998        -1.14331627E-30
  -12.8999996        -5.60535139E-31
  -12.8500004         4.74194715E-32
  -12.8000002         6.29051367E-31
  -12.7500000         1.13707807E-30
  -12.6999998         1.53181659E-30
  -12.6499996         1.78388829E-30
  -12.6000004         1.87615650E-30
  -12.5500002         1.80483221E-30
  -12.5000000         1.57970059E-30
  -12.4499998         1.22346242E-30
  -12.3999996         7.70168711E-31
  -12.3500004         2.62683373E-31
  -12.3000002        -2.50992377E-31
  -12.2500000        -7.22632895E-31
  -12.1999998        -1.10958579E-30
  -12.1499996        -1.38018854E-30
  -12.1000004        -1.51665488E-30
  -12.0500002        -1.51349524E-30
  -12.0000000        -1.37181583E-30
  -11.9499998        -1.09381009E-30
  -11.8999996        -6.84881988E-31
  -11.8500004        -1.69153014E-31
  -11.8000002         3.84757803E-31
  -11.7500000         8.44489436E-31
  -11.6999998         1.02881447E-30
  -11.6499996         7.82252417E-31
  -11.6000004         1.13201705E-31
  -11.5500002        -6.44791424E-31
  -11.5000000        -7.52832380E-31
  -11.4499998         7.61515239E-31
  -11.3999996         4.49567269E-30
  -11.3500004         9.59579398E-30
  -11.3000002         1.26288252E-29
  -11.2500000         7.51924653E-30
  -11.1999998        -1.18350968E-29
  -11.1499996        -4.52953626E-29
  -11.1000004        -7.82898708E-29
  -11.0500002        -7.78874357E-29
  -11.0000000        -2.76756472E-30
  -10.9499998         1.65988042E-28
  -10.8999996         3.79657198E-28
  -10.8500004         4.90532046E-28
  -10.8000002         2.80356948E-28
  -10.7500000        -4.14557624E-28
  -10.6999998        -1.49790318E-27
  -10.6499996        -2.43350512E-27
  -10.6000004        -2.27382858E-27
  -10.5500002        -6.48407830E-29
  -10.5000000         4.37464587E-27
  -10.4499998         9.60767794E-27
  -10.3999996         1.22772364E-26
  -10.3500004         8.01630206E-27
  -10.3000002        -6.15203693E-27
  -10.2500000        -2.85035074E-26
  -10.1999998        -5.00069805E-26
  -10.1499996        -5.47051557E-26
  -10.1000004        -2.50354715E-26
  -10.0500002         4.76686705E-26
  -10.0000000         1.50259279E-25
  -9.94999981         2.38718924E-25
  -9.89999962         2.41745734E-25
  -9.85000038         8.49920650E-26
  -9.80000019        -2.62448476E-25
  -9.75000000        -7.30905020E-25
  -9.69999981        -1.11138540E-24
  -9.64999962        -1.07752631E-24
  -9.60000038        -3.05737638E-25
  -9.55000019         1.30530181E-24
  -9.50000000         3.38393679E-24
  -9.44999981         4.95090721E-24
  -9.39999962         4.58642863E-24
  -9.35000038         1.02102030E-24
  -9.30000019        -5.92587855E-24
  -9.25000000        -1.44260398E-23
  -9.19999981        -2.03537931E-23
  -9.14999962        -1.82454219E-23
  -9.10000038        -3.73041672E-24
  -9.05000019         2.31172990E-23
  -9.00000000         5.49503783E-23
  -8.94999981         7.68091902E-23
  -8.89999962         6.99069475E-23
  -8.85000038         1.97508162E-23
  -8.80000019        -7.34263211E-23
  -8.75000000        -1.86193262E-22
  -8.69999981        -2.70816151E-22
  -8.64999962        -2.65966082E-22
  -8.60000038        -1.20176875E-22
  -8.55000019         1.76602859E-22
  -8.50000000         5.64262487E-22
  -8.44999981         9.02020768E-22
  -8.39999962         9.91525608E-22
  -8.35000038         6.41580599E-22
  -8.30000019        -2.33150781E-22
  -8.25000000        -1.50863335E-21
  -8.19999981        -2.79227478E-21
  -8.14999962        -3.46377479E-21
  -8.10000038        -2.85271127E-21
  -8.05000019        -5.39632003E-22
  -8.00000000         3.30394819E-21
  -7.94999981         7.68670024E-21
  -7.90000010         1.08501927E-20
  -7.84999990         1.07154221E-20
  -7.80000019         5.69276441E-21
  -7.75000000        -4.36469040E-21
  -7.69999981        -1.74440614E-20
  -7.65000010        -2.93112678E-20
  -7.59999990        -3.43857850E-20
  -7.55000019        -2.75238888E-20
  -7.50000000        -6.29525482E-21
  -7.44999981         2.69873879E-20
  -7.40000010         6.43474655E-20
  -7.34999990         9.30330617E-20
  -7.30000019         9.84766468E-20
  -7.25000000         6.89628361E-20
  -7.19999981         9.68934348E-22
  -7.15000010        -9.64143240E-20
  -7.09999990        -1.99833614E-19
  -7.05000019        -2.74421563E-19
  -7.00000000        -2.81698090E-19
  -6.94999981        -1.91842713E-19
  -6.90000010         2.38291973E-21
  -6.84999990         2.74514491E-19
  -6.80000019         5.61182695E-19
  -6.75000000         7.70787523E-19
  -6.69999981         8.04846064E-19
  -6.65000010         5.88353872E-19
  -6.59999990         1.01312707E-19
  -6.55000019        -5.98563711E-19
  -6.50000000        -1.37085510E-18
  -6.44999981        -2.00987932E-18
  -6.40000010        -2.28357746E-18
  -6.34999990        -1.98768482E-18
  -6.30000019        -1.00585804E-18
  -6.25000000         6.34722412E-19
  -6.19999981         2.72330667E-18
  -6.15000010         4.85332301E-18
  -6.09999990         6.45174615E-18
  -6.05000019         6.86299719E-18
  -6.00000000         5.49281428E-18
  -5.94999981         2.00071540E-18
  -5.90000010        -3.49437942E-18
  -5.84999990        -1.02546375E-17
  -5.80000019        -1.68811632E-17
  -5.75000000        -2.14507554E-17
  -5.69999981        -2.18582543E-17
  -5.65000010        -1.63372059E-17
  -5.59999990        -4.07246120E-18
  -5.55000019         1.42298441E-17
  -5.50000000         3.59743727E-17
  -5.44999981         5.66656241E-17
  -5.40000010         7.03731979E-17
  -5.34999990         7.07257026E-17
  -5.30000019         5.23853945E-17
  -5.25000000         1.28227686E-17
  -5.19999981        -4.59403969E-17
  -5.15000010        -1.16086210E-16
  -5.09999990        -1.83786046E-16
  -5.05000019        -2.30483806E-16
  -5.00000000        -2.35912255E-16
  -4.94999981        -1.82686226E-16
  -4.90000010        -6.18317706E-17
  -4.84999990         1.21852519E-16
  -4.80000019         3.46014415E-16
  -4.75000000         5.69998593E-16
  -4.69999981         7.38293399E-16
  -4.65000010         7.88711976E-16
  -4.59999990         6.64942622E-16
  -4.55000019         3.32020557E-16
  -4.50000000        -2.07841887E-16
  -4.44999981        -9.02553839E-16
  -4.40000010        -1.64455777E-15
  -4.34999990        -2.27610670E-15
  -4.30000019        -2.60798120E-15
  -4.25000000        -2.45203566E-15
  -4.19999981        -1.66487979E-15
  -4.15000010        -1.96567614E-16
  -4.09999990         1.86506914E-15
  -4.05000019         4.26586968E-15
  -4.00000000         6.58426323E-15
  -3.95000005         8.26704834E-15
  -3.90000010         8.70647718E-15
  -3.84999990         7.35558753E-15
  -3.79999995         3.86952052E-15
  -3.75000000        -1.74907677E-15
  -3.70000005        -9.03055622E-15
  -3.65000010        -1.69791058E-14
  -3.59999990        -2.41067237E-14
  -3.54999995        -2.85840687E-14
  -3.50000000        -2.85146493E-14
  -3.45000005        -2.23147408E-14
  -3.40000010        -9.15333195E-15
  -3.34999990         1.06206522E-14
  -3.29999995         3.51569631E-14
  -3.25000000         6.09886355E-14
  -3.20000005         8.32117510E-14
  -3.15000010         9.60166462E-14
  -3.09999990         9.35736677E-14
  -3.04999995         7.12056282E-14
  -3.00000000         2.67015888E-14
  -2.95000005        -3.84455956E-14
  -2.90000010        -1.18146188E-13
  -2.84999990        -2.01446458E-13
  -2.79999995        -2.73130016E-13
  -2.75000000        -3.15334618E-13
  -2.70000005        -3.10177312E-13
  -2.65000010        -2.43188499E-13
  -2.59999990        -1.07139375E-13
  -2.54999995         9.43430650E-14
  -2.50000000         3.44116337E-13
  -2.45000005         6.10595504E-13
  -2.40000010         8.49232306E-13
  -2.34999990         1.00682765E-12
  -2.29999995         1.02870143E-12
  -2.25000000         8.68235117E-13
  -2.20000005         4.97738623E-13
  -2.15000010        -8.09321753E-14
  -2.09999990        -8.27967957E-13
  -2.04999995        -1.66151684E-12
  -2.00000000        -2.45984114E-12
  -1.95000005        -3.07106944E-12
  -1.89999998        -3.33095877E-12
  -1.85000002        -3.08780627E-12
  -1.79999995        -2.23218774E-12
  -1.75000000        -7.27793097E-13
  -1.70000005         1.36156429E-12
  -1.64999998         3.85431877E-12
  -1.60000002         6.44832755E-12
  -1.54999995         8.73726525E-12
  -1.50000000         1.02485884E-11
  -1.45000005         1.05025693E-11
  -1.39999998         9.08835594E-12
  -1.35000002         5.74931292E-12
  -1.29999995         4.66486062E-13
  -1.25000000        -6.47338997E-12
  -1.20000005        -1.44398920E-11
  -1.14999998        -2.24644296E-11
  -1.10000002        -2.92992991E-11
  -1.04999995        -3.35347271E-11
  -1.00000000        -3.37707848E-11
 -0.949999988        -2.88320409E-11
 -0.899999976        -1.80037617E-11
 -0.850000024        -1.26052337E-12
 -0.800000012         2.05475081E-11
 -0.750000000         4.55873291E-11
 -0.699999988         7.10481812E-11
 -0.649999976         9.32846994E-11
 -0.600000024         1.08109827E-10
 -0.550000012         1.11231774E-10
 -0.500000000         9.88084267E-11
 -0.449999988         6.80727349E-11
 -0.400000006         1.79625707E-11
 -0.349999994        -5.03230062E-11
 -0.300000012        -1.32925060E-10
 -0.250000000        -2.23163280E-10
 -0.200000003        -3.11672327E-10
 -0.150000006        -3.86873006E-10
 -0.100000001        -4.35777581E-10
  -5.00000007E-02    -4.45089021E-10
   0.00000000        -4.02506639E-10
   5.00000007E-02    -2.98115255E-10
  0.100000001        -1.25707944E-10
  0.150000006         1.16124887E-10
  0.200000003         4.23298646E-10
  0.250000000         7.86069709E-10
  0.300000012         1.18948462E-09
  0.349999994         1.61448288E-09
  0.400000006         2.03959805E-09
  0.449999988         2.44314302E-09
  0.500000000         2.80569834E-09
  0.550000012         3.11264547E-09
  0.600000024         3.35649641E-09
  0.649999976         3.53874618E-09
  0.699999988         3.67098507E-09
  0.750000000         3.77516951E-09
  0.800000012         3.88291310E-09
  0.850000024         4.03386613E-09
  0.899999976         4.27330527E-09
  0.949999988         4.64920680E-09
   1.00000000         5.20912735E-09
   1.04999995         5.99724803E-09
   1.10000002         7.05196657E-09
   1.14999998         8.40435632E-09
   1.20000005         1.00778195E-08
   1.25000000         1.20889911E-08
   1.29999995         1.44498555E-08
   1.35000002         1.71710557E-08
   1.39999998         2.02659862E-08
   1.45000005         2.37553657E-08
   1.50000000         2.76718417E-08
   1.54999995         3.20643316E-08
   1.60000002         3.70015911E-08
   1.64999998         4.25745164E-08
   1.70000005         4.88978316E-08
   1.75000000         5.61101707E-08
   1.79999995         6.43734879E-08
   1.85000002         7.38718811E-08
   1.89999998         8.48101180E-08
   1.95000005         9.74135617E-08
   2.00000000         1.11927605E-07
   2.04999995         1.28619462E-07
   2.09999990         1.47781378E-07
   2.15000010         1.69734676E-07
   2.20000005         1.94836730E-07
   2.25000000         2.23489849E-07
   2.29999995         2.56151196E-07
   2.34999990         2.93341941E-07
   2.40000010         3.35659763E-07
   2.45000005         3.83789569E-07
   2.50000000         4.38516480E-07
   2.54999995         5.00736860E-07
   2.59999990         5.71466330E-07
   2.65000010         6.51853327E-07
   2.70000005         7.43190867E-07
   2.75000000         8.46928458E-07
   2.79999995         9.64686819E-07
   2.84999990         1.09827852E-06
   2.90000010         1.24973121E-06
   2.95000005         1.42130023E-06
   3.00000000         1.61550270E-06
   3.04999995         1.83514885E-06
   3.09999990         2.08338543E-06
   3.15000010         2.36374149E-06
   3.20000005         2.68017175E-06
   3.25000000         3.03710726E-06
   3.29999995         3.43951911E-06
   3.34999990         3.89296201E-06
   3.40000010         4.40363647E-06
   3.45000005         4.97846622E-06
   3.50000000         5.62518335E-06
   3.54999995         6.35241167E-06
   3.59999990         7.16972636E-06
   3.65000010         8.08775985E-06
   3.70000005         9.11829920E-06
   3.75000000         1.02744052E-05
   3.79999995         1.15705416E-05
   3.84999990         1.30227527E-05
   3.90000010         1.46487873E-05
   3.95000005         1.64682970E-05
   4.00000000         1.85030458E-05
   4.05000019         2.07770154E-05
   4.09999990         2.33168357E-05
   4.15000010         2.61519144E-05
   4.19999981         2.93147223E-05
   4.25000000         3.28410351E-05
   4.30000019         3.67703287E-05
   4.34999990         4.11461297E-05
   4.40000010         4.60161718E-05
   4.44999981         5.14329513E-05
   4.50000000         5.74542828E-05
   4.55000019         6.41436636E-05
   4.59999990         7.15709539E-05
   4.65000010         7.98126421E-05
   4.69999981         8.89522271E-05
   4.75000000         9.90811750E-05
   4.80000019         1.10299254E-04
   4.84999990         1.22715457E-04
   4.90000010         1.36449627E-04
   4.94999981         1.51632761E-04
   5.00000000         1.68407380E-04
   5.05000019         1.86928824E-04
   5.09999990         2.07366364E-04
   5.15000010         2.29904515E-04
   5.19999981         2.54743412E-04
   5.25000000         2.82101100E-04
   5.30000019         3.12214921E-04
   5.34999990         3.45342443E-04
   5.40000010         3.81762482E-04
   5.44999981         4.21777047E-04
   5.50000000         4.65711899E-04
   5.55000019         5.13920560E-04
   5.59999990         5.66785457E-04
   5.65000010         6.24719542E-04
   5.69999981         6.88170257E-04
   5.75000000         7.57620146E-04
   5.80000019         8.33589467E-04
   5.84999990         9.16637247E-04
   5.90000010         1.00736425E-03
   5.94999981         1.10641425E-03
   6.00000000         1.21448259E-03
   6.05000019         1.33231515E-03
   6.09999990         1.46071357E-03
   6.15000010         1.60053698E-03
   6.19999981         1.75270636E-03
   6.25000000         1.91820203E-03
   6.30000019         2.09806906E-03
   6.34999990         2.29343004E-03
   6.40000010         2.50548241E-03
   6.44999981         2.73550744E-03
   6.50000000         2.98486138E-03
   6.55000019         3.25499056E-03
   6.59999990         3.54743493E-03
   6.65000010         3.86383431E-03
   6.69999981         4.20592492E-03
   6.75000000         4.57554078E-03
   6.80000019         4.97462973E-03
   6.84999990         5.40525839E-03
   6.90000010         5.86960604E-03
   6.94999981         6.36997866E-03
   7.00000000         6.90880697E-03
   7.05000019         7.48865074E-03
   7.09999990         8.11221171E-03
   7.15000010         8.78232438E-03
   7.19999981         9.50197410E-03
   7.25000000         1.02743059E-02
   7.30000019         1.11025926E-02
   7.34999990         1.19902696E-02
   7.40000010         1.29409488E-02
   7.44999981         1.39583889E-02
   7.50000000         1.50465230E-02
   7.55000019         1.62094440E-02
   7.59999990         1.74514260E-02
   7.65000010         1.87768787E-02
   7.69999981         2.01904457E-02
   7.75000000         2.16969065E-02
   7.80000019         2.33010929E-02
   7.84999990         2.50080694E-02
   7.90000010         2.68231686E-02
   7.94999981         2.87518408E-02
   8.00000000         3.07997633E-02
   8.05000019         3.29727717E-02
   8.10000038         3.52768414E-02
   8.14999962         3.77179049E-02
   8.19999981         4.03021052E-02
   8.25000000         4.30358090E-02
   8.30000019         4.59254198E-02
   8.35000038         4.89774048E-02
   8.39999962         5.21984026E-02
   8.44999981         5.55952191E-02
   8.50000000         5.91747127E-02
   8.55000019         6.29437715E-02
   8.60000038         6.69092014E-02
   8.64999962         7.10777938E-02
   8.69999981         7.54564926E-02
   8.75000000         8.00521448E-02
   8.80000019         8.48714337E-02
   8.85000038         8.99209976E-02
   8.89999962         9.52073336E-02
   8.94999981        0.100736968    
   9.00000000        0.106516235    
   9.05000019        0.112551205    
   9.10000038        0.118847594    
   9.14999962        0.125411049    
   9.19999981        0.132246718    
   9.25000000        0.139359146    
   9.30000019        0.146752909    
   9.35000038        0.154431805    
   9.39999962        0.162399411    
   9.44999981        0.170658529    
   9.50000000        0.179211169    
   9.55000019        0.188059658    
   9.60000038        0.197205767    
   9.64999962        0.206649825    
   9.69999981        0.216391340    
   9.75000000        0.226428971    
   9.80000019        0.236759052    
   9.85000038        0.247377604    
   9.89999962        0.258280963    
   9.94999981        0.269464880    
   10.0000000        0.280923933    
   10.0500002        0.292652041    
   10.1000004        0.304641187    
   10.1499996        0.316880584    
   10.1999998        0.329358757    
   10.2500000        0.342062354    
   10.3000002        0.354977071    
   10.3500004        0.368087798    
   10.3999996        0.381379306    
   10.4499998        0.394836485    
   10.5000000        0.408441424    
   10.5500002        0.422172874    
   10.6000004        0.436006635    
   10.6499996        0.449916303    
   10.6999998        0.463875145    
   10.7500000        0.477856129    
   10.8000002        0.491832346    
   10.8500004        0.505776525    
   10.8999996        0.519658864    
   10.9499998        0.533447623    
   11.0000000        0.547106922    
   11.0500002        0.560598552    
   11.1000004        0.573885798    
   11.1499996        0.586931467    
   11.1999998        0.599697053    
   11.2500000        0.612141967    
   11.3000002        0.624226332    
   11.3500004        0.635905862    
   11.3999996        0.647132933    
   11.4499998        0.657862306    
   11.5000000        0.668050468    
   11.5500002        0.677650034    
   11.6000004        0.686616957    
   11.6499996        0.694906056    
   11.6999998        0.702465653    
   11.7500000        0.709247410    
   11.8000002        0.715204120    
   11.8500004        0.720288932    
   11.8999996        0.724458873    
   11.9499998        0.727671087    
   12.0000000        0.729879081    
   12.0500002        0.731035233    
   12.1000004        0.731093764    
   12.1499996        0.730012119    
   12.1999998        0.727751255    
   12.2500000        0.724274516    
   12.3000002        0.719543934    
   12.3500004        0.713520765    
   12.3999996        0.706172168    
   12.4499998        0.697465539    
   12.5000000        0.687373579    
   12.5500002        0.675871015    
   12.6000004        0.662932336    
   12.6499996        0.648535788    
   12.6999998        0.632660389    
   12.7500000        0.615293622    
   12.8000002        0.596430779    
   12.8500004        0.576069415    
   12.8999996        0.554209590    
   12.9499998        0.530856848    
   13.0000000        0.506013215    
   13.0500002        0.479675949    
   13.1000004        0.451850832    
   13.1499996        0.422556102    
   13.1999998        0.391823351    
   13.2500000        0.359690219    
   13.3000002        0.326196194    
   13.3500004        0.291379869    
   13.3999996        0.255278349    
   13.4499998        0.217929423    
   13.5000000        0.179369822    
   13.5500002        0.139644489    
   13.6000004         9.88145620E-02
   13.6499996         5.69494255E-02
   13.6999998         1.41233969E-02
   13.7500000        -2.95929871E-02
   13.8000002        -7.41318390E-02
   13.8500004       -0.119421817    
   13.8999996       -0.165386081    
   13.9499998       -0.211933777    
   14.0000000       -0.258961856    
   14.0500002       -0.306361556    
   14.1000004       -0.354036480    
   14.1499996       -0.401905864    
   14.1999998       -0.449891061    
   14.2500000       -0.497906506    
   14.3000002       -0.545850813    
   14.3500004       -0.593613744    
   14.3999996       -0.641077518    
   14.4499998       -0.688122869    
   14.5000000       -0.734640598    
   14.5500002       -0.780532479    
   14.6000004       -0.825712264    
   14.6499996       -0.870095193    
   14.6999998       -0.913588047    
   14.7500000       -0.956083477    
   14.8000002       -0.997463584    
   14.8500004        -1.03760600    
   14.8999996        -1.07640064    
   14.9499998        -1.11375535    
   15.0000000        -1.14959240    
   15.0500002        -1.18384063    
   15.1000004        -1.21642816    
   15.1499996        -1.24727964    
   15.1999998        -1.27631795    
   15.2500000        -1.30346406    
   15.3000002        -1.32864833    
   15.3500004        -1.35181606    
   15.3999996        -1.37291586    
   15.4499998        -1.39189982    
   15.5000000        -1.40872002    
   15.5500002        -1.42332923    
   15.6000004        -1.43568671    
   15.6499996        -1.44576085    
   15.6999998        -1.45353377    
   15.7500000        -1.45899725    
   15.8000002        -1.46215117    
   15.8500004        -1.46299958    
   15.8999996        -1.46154261    
   15.9499998        -1.45778024    
   16.0000000        -1.45171261    
   16.0499992        -1.44334722    
   16.1000004        -1.43270469    
   16.1499996        -1.41982400    
   16.2000008        -1.40476024    
   16.2500000        -1.38757730    
   16.2999992        -1.36834192    
   16.3500004        -1.34711337    
   16.3999996        -1.32394159    
   16.4500008        -1.29886949    
   16.5000000        -1.27194571    
   16.5499992        -1.24323118    
   16.6000004        -1.21280599    
   16.6499996        -1.18076456    
   16.7000008        -1.14720893    
   16.7500000        -1.11223722    
   16.7999992        -1.07593894    
   16.8500004        -1.03840160    
   16.8999996       -0.999713659    
   16.9500008       -0.959971428    
   17.0000000       -0.919275343    
   17.0499992       -0.877724409    
   17.1000004       -0.835412443    
   17.1499996       -0.792423368    
   17.2000008       -0.748844564    
   17.2500000       -0.704777539    
   17.2999992       -0.660341263    
   17.3500004       -0.615670681    
   17.3999996       -0.570895731    
   17.4500008       -0.526120901    
   17.5000000       -0.481420279    
   17.5499992       -0.436846375    
   17.6000004       -0.392449439    
   17.6499996       -0.348296374    
   17.7000008       -0.304484040    
   17.7500000       -0.261132598    
   17.7999992       -0.218368098    
   17.8500004       -0.176296905    
   17.8999996       -0.134988159    
   17.9500008        -9.44851637E-02
   18.0000000        -5.48273325E-02
   18.0499992        -1.60627309E-02
   18.1000004         2.17418969E-02
   18.1499996         5.85087389E-02
   18.2000008         9.41669121E-02
   18.2500000        0.128664777    
   18.2999992        0.161982924    
   18.3500004        0.194121569    
   18.3999996        0.225075975    
   18.4500008        0.254822463    
   18.5000000        0.283311039    
   18.5499992        0.310476780    
   18.6000004        0.336260319    
   18.6499996        0.360626847    
   18.7000008        0.383574307    
   18.7500000        0.405128330    
   18.7999992        0.425329477    
   18.8500004        0.444212914    
   18.8999996        0.461788237    
   18.9500008        0.478041530    
   19.0000000        0.492947191    
   19.0499992        0.506481886    
   19.1000004        0.518645227    
   19.1499996        0.529466689    
   19.2000008        0.539008617    
   19.2500000        0.547348082    
   19.2999992        0.554550648    
   19.3500004        0.560660303    
   19.3999996        0.565693200    
   19.4500008        0.569644213    
   19.5000000        0.572506309    
   19.5499992        0.574287236    
   19.6000004        0.575016975    
   19.6499996        0.574741423    
   19.7000008        0.573512077    
   19.7500000        0.571379542    
   19.7999992        0.568389535    
   19.8500004        0.564589560    
   19.8999996        0.560038209    
   19.9500008        0.554803669    
   20.0000000        0.548957109    
   20.0499992        0.542553723    
   20.1000004        0.535614669    
   20.1499996        0.528131068    
   20.2000008        0.520086527    
   20.2500000        0.511488259    
   20.2999992        0.502389610    
   20.3500004        0.492892265    
   20.3999996        0.483119607    
   20.4500008        0.473174393    
   20.5000000        0.463104218    
   20.5499992        0.452886492    
   20.6000004        0.442451239    
   20.6499996        0.431729883    
   20.7000008        0.420695871    
   20.7500000        0.409390986    
   20.7999992        0.397918254    
   20.8500004        0.386406660    
   20.8999996        0.374973327    
   20.9500008        0.363690257    
   21.0000000        0.352572441    
   21.0499992        0.341590255    
   21.1000004        0.330694616    
   21.1499996        0.319841295    
   21.2000008        0.309008956    
   21.2500000        0.298206806    
   21.2999992        0.287470460    
   21.3500004        0.276854098    
   21.3999996        0.266418159    
   21.4500008        0.256214023    
   21.5000000        0.246272758    
   21.5499992        0.236599132    
   21.6000004        0.227173999    
   21.6499996        0.217964321    
   21.7000008        0.208937243    
   21.7500000        0.200074062    
   21.7999992        0.191379458    
   21.8500004        0.182880431    
   21.8999996        0.174617440    
   21.9500008        0.166632235    
   22.0000000        0.158954456    
   22.0499992        0.151592374    
   22.1000004        0.144528270    
   22.1499996        0.137721553    
   22.2000008        0.131119236    
   22.2500000        0.124672741    
   22.2999992        0.118356407    
   22.3500004        0.112180315    
   22.3999996        0.106191456    
   22.4500008        0.100457929    
   22.5000000         9.50422436E-02
   22.5499992         8.99747312E-02
   22.6000004         8.52393061E-02
   22.6499996         8.07787105E-02
   22.7000008         7.65171498E-02
   22.7500000         7.23892450E-02
   22.7999992         6.83618188E-02
   22.8500004         6.44386411E-02
   22.8999996         6.06482401E-02
   22.9500008         5.70238642E-02
   23.0000000         5.35867885E-02
   23.0499992         5.03403805E-02
   23.1000004         4.72746454E-02
   23.1499996         4.43753749E-02
   23.2000008         4.16306965E-02
   23.2500000         3.90319601E-02
   23.2999992         3.65713686E-02
   23.3500004         3.42407487E-02
   23.3999996         3.20342407E-02
   23.4500008         2.99526528E-02
   23.5000000         2.80048791E-02
   23.5499992         2.62028836E-02
   23.6000004         2.45510638E-02
   23.6499996         2.30367612E-02
   23.7000008         2.16289163E-02
   23.7500000         2.02875007E-02
   23.7999992         1.89797729E-02
   23.8500004         1.76942069E-02
   23.8999996         1.64434873E-02
   23.9500008         1.52546838E-02
   24.0000000         1.41525120E-02
   24.0499992         1.31457867E-02
   24.1000004         1.22250188E-02
   24.1499996         1.13717029E-02
   24.2000008         1.05724484E-02
   24.2500000         9.82826762E-03
   24.2999992         9.15297680E-03
   24.3500004         8.56221654E-03
   24.3999996         8.06074124E-03
   24.4500008         7.63660297E-03
   24.5000000         7.26590818E-03
   24.5499992         6.92464318E-03
   24.6000004         6.59960508E-03
   24.6499996         6.29154500E-03
   24.7000008         6.00924296E-03
   24.7500000         5.75945433E-03
   24.7999992         5.54026198E-03
   24.8500004         5.34262275E-03
   24.8999996         5.15901111E-03
   24.9500008         4.99279797E-03
   25.0000000         4.86129150E-03
   25.0499992         4.78923041E-03
   25.1000004         4.79572034E-03
   25.1499996         4.88200365E-03
   25.2000008         5.02746971E-03
   25.2500000         5.19692944E-03
   25.2999992         5.35611017E-03
   25.3500004         5.48802456E-03
   25.3999996         5.60225919E-03
   25.4500008         5.73269511E-03