  -15.0000000         5.85374228E-31
  -14.9499998         1.71031400E-30
  -14.8999996         2.70194016E-30
  -14.8500004         3.48464034E-30
  -14.8000002         4.00122253E-30
  -14.7500000         4.21752816E-30
  -14.6999998         4.12474912E-30
  -14.6499996         3.73933179E-30
  -14.6000004         3.10063869E-30
  -14.5500002         2.24382274E-30
  -14.5000000         1.09919894E-30
  -14.4499998        -4.12687761E-31
  -14.3999996        -1.01513275E-30
  -14.3500004         4.41926067E-30
  -14.3000002         2.08941552E-29
  -14.2500000         2.93868442E-29
  -14.1999998        -4.33379647E-29
  -14.1499996        -2.75684353E-28
  -14.1000004        -5.26588825E-28
  -14.0500002        -1.86279892E-28
  -14.0000000         1.51028383E-27
  -13.9499998         4.11648998E-27
  -13.8999996         4.50774650E-27
  -13.8500004        -1.85638654E-27
  -13.8000002        -1.53016475E-26
  -13.7500000        -2.67633604E-26
  -13.6999998        -2.33343253E-26
  -13.6499996        -5.09287329E-27
  -13.6000004         1.31417155E-26
  -13.5500002         4.98649548E-26
  -13.5000000         2.22290575E-25
  -13.4499998         6.67320317E-25
  -13.3999996         1.14511019E-24
  -13.3500004         5.17939644E-25
  -13.3000002        -3.01050798E-24
  -13.2500000        -9.76139482E-24
  -13.1999998        -1.48340954E-23
  -13.1499996        -6.34213639E-24
  -13.1000004         2.81155864E-23
  -13.0500002         8.36126106E-23
  -13.0000000         1.17715099E-22
  -12.9499998         5.26345193E-23
  -12.8999996        -1.73597551E-22
  -12.8500004        -5.10356352E-22
  -12.8000002        -7.15255008E-22
  -12.7500000        -4.03712859E-22
  -12.6999998         6.93207747E-22
  -12.6499996         2.33257966E-21
  -12.6000004         3.50242892E-21
  -12.5500002         2.67585719E-21
  -12.5000000        -1.25198309E-21
  -12.4499998        -7.68076054E-21
  -12.3999996        -1.35438474E-20
  -12.3500004        -1.40131504E-20
  -12.3000002        -4.92192215E-21
  -12.2500000         1.40567115E-20
  -12.1999998         3.73403804E-20
  -12.1499996         5.40658981E-20
  -12.1000004         5.14953891E-20
  -12.0500002         1.96760531E-20
  -12.0000000        -4.43041361E-20
  -11.9499998        -1.32444851E-19
  -11.8999996        -2.20844118E-19
  -11.8500004        -2.64068286E-19
  -11.8000002        -1.95829931E-19
  -11.7500000         5.07372748E-20
  -11.6999998         4.93231928E-19
  -11.6499996         1.03085616E-18
  -11.6000004         1.39830230E-18
  -11.5500002         1.20636910E-18
  -11.5000000         1.14030945E-19
  -11.4499998        -1.89644370E-18
  -11.3999996        -4.27141551E-18
  -11.3500004        -5.85904725E-18
  -11.3000002        -5.25213822E-18
  -11.2500000        -1.47198651E-18
  -11.1999998         5.27265726E-18
  -11.1499996         1.31687335E-17
  -11.1000004         1.90702702E-17
  -11.0500002         1.94947578E-17
  -11.0000000         1.19876048E-17
  -10.9499998        -3.72620630E-18
  -10.8999996        -2.52598344E-17
  -10.8500004        -4.77975233E-17
  -10.8000002        -6.47048733E-17
  -10.7500000        -6.81829362E-17
  -10.6999998        -5.01210505E-17
  -10.6499996        -3.91428359E-18
  -10.6000004         7.19271527E-17
  -10.5500002         1.68544575E-16
  -10.5000000         2.61910264E-16
  -10.4499998         3.12160811E-16
  -10.3999996         2.70927644E-16
  -10.3500004         9.80844631E-17
  -10.3000002        -2.15219200E-16
  -10.2500000        -6.25188930E-16
  -10.1999998        -1.02621578E-15
  -10.1499996        -1.26292824E-15
  -10.1000004        -1.16672997E-15
  -10.0500002        -6.11712001E-16
  -10.0000000         4.23438785E-16
  -9.94999981         1.80652201E-15
  -9.89999962         3.23596147E-15
  -9.85000038         4.27361495E-15
  -9.80000019         4.43168654E-15
  -9.75000000         3.30413513E-15
  -9.69999981         7.16183668E-16
  -9.64999962        -3.14759285E-15
  -9.60000038        -7.67944549E-15
  -9.55000019        -1.18814506E-14
  -9.50000000        -1.45062608E-14
  -9.44999981        -1.42917210E-14
  -9.39999962        -1.02566855E-14
  -9.35000038        -2.01671048E-15
  -9.30000019         9.92666879E-15
  -9.25000000         2.39817135E-14
  -9.19999981         3.74297388E-14
  -9.14999962         4.66590064E-14
  -9.10000038         4.77565646E-14
  -9.05000019         3.74601913E-14
  -9.00000000         1.43188734E-14
  -8.94999981        -2.02617769E-14
  -8.89999962        -6.15052985E-14
  -8.85000038        -1.01624038E-13
  -8.80000019        -1.31136489E-13
  -8.75000000        -1.40869684E-13
  -8.69999981        -1.24090571E-13
  -8.64999962        -7.81605683E-14
  -8.60000038        -5.33502770E-15
  -8.55000019         8.72873212E-14
  -8.50000000         1.88356654E-13
  -8.44999981         2.83080227E-13
  -8.39999962         3.54207766E-13
  -8.35000038         3.83538091E-13
  -8.30000019         3.54432927E-13
  -8.25000000         2.55495007E-13
  -8.19999981         8.48287911E-14
  -8.14999962        -1.46453664E-13
  -8.10000038        -4.13081001E-13
  -8.05000019        -6.77876537E-13
  -8.00000000        -8.97256228E-13
  -7.94999981        -1.02849803E-12
  -7.90000010        -1.03662966E-12
  -7.84999990        -8.99139053E-13
  -7.80000019        -6.07969187E-13
  -7.75000000        -1.69702509E-13
  -7.69999981         3.94356016E-13
  -7.65000010         1.04682886E-12
  -7.59999990         1.73165247E-12
  -7.55000019         2.37186009E-12
  -7.50000000         2.87054169E-12
  -7.44999981         3.11767734E-12
  -7.40000010         3.00416614E-12
  -7.34999990         2.44218556E-12
  -7.30000019         1.38850964E-12
  -7.25000000        -1.34469381E-13
  -7.19999981        -2.02598658E-12
  -7.15000010        -4.10735465E-12
  -7.09999990        -6.13759347E-12
  -7.05000019        -7.84195538E-12
  -7.00000000        -8.94694388E-12
  -6.94999981        -9.21347113E-12
  -6.90000010        -8.46148152E-12
  -6.84999990        -6.58454454E-12
  -6.80000019        -3.55911524E-12
  -6.75000000         5.43451677E-13
  -6.69999981         5.53659982E-12
  -6.65000010         1.10929104E-11
  -6.59999990         1.67263044E-11
  -6.55000019         2.18009777E-11
  -6.50000000         2.55816254E-11
  -6.44999981         2.73249427E-11
  -6.40000010         2.63944214E-11
  -6.34999990         2.23681750E-11
  -6.30000019         1.51111988E-11
  -6.25000000         4.79997335E-12
  -6.19999981        -8.09078152E-12
  -6.15000010        -2.28144899E-11
  -6.09999990        -3.83697137E-11
  -6.05000019        -5.35047458E-11
  -6.00000000        -6.67321545E-11
  -5.94999981        -7.63905258E-11
  -5.90000010        -8.07843445E-11
  -5.84999990        -7.84037141E-11
  -5.80000019        -6.81900300E-11
  -5.75000000        -4.97883471E-11
  -5.69999981        -2.37265398E-11
  -5.65000010         8.51572632E-12
  -5.59999990         4.45523063E-11
  -5.55000019         8.12282186E-11
  -5.50000000         1.14822298E-10
  -5.44999981         1.41295892E-10
  -5.40000010         1.56584093E-10
  -5.34999990         1.56930163E-10
  -5.30000019         1.39253817E-10
  -5.25000000         1.01526551E-10
  -5.19999981         4.31163126E-11
  -5.15000010        -3.49389753E-11
  -5.09999990        -1.29758426E-10
  -5.05000019        -2.36555858E-10
  -5.00000000        -3.48697932E-10
  -4.94999981        -4.57891780E-10
  -4.90000010        -5.54518875E-10
  -4.84999990        -6.28122776E-10
  -4.80000019        -6.68030797E-10
  -4.75000000        -6.64069244E-10
  -4.69999981        -6.07300377E-10
  -4.65000010        -4.90697594E-10
  -4.59999990        -3.09705012E-10
  -4.55000019        -6.26431476E-11
  -4.50000000         2.49067905E-10
  -4.44999981         6.20863638E-10
  -4.40000010         1.04524633E-09
  -4.34999990         1.51224233E-09
  -4.30000019         2.01011563E-09
  -4.25000000         2.52632359E-09
  -4.19999981         3.04856518E-09
  -4.15000010         3.56592378E-09
  -4.09999990         4.06996703E-09
  -4.05000019         4.55584903E-09
  -4.00000000         5.02340658E-09
  -3.95000005         5.47823653E-09
  -3.90000010         5.93275207E-09
  -3.84999990         6.40699449E-09
  -3.79999995         6.92902535E-09
  -3.75000000         7.53471419E-09
  -3.70000005         8.26718072E-09
  -3.65000010         9.17581300E-09
  -3.59999990         1.03151958E-08
  -3.54999995         1.17443042E-08
  -3.50000000         1.35258285E-08
  -3.45000005         1.57257531E-08
  -3.40000010         1.84131199E-08
  -3.34999990         2.16598952E-08
  -3.29999995         2.55408850E-08
  -3.25000000         3.01344336E-08
  -3.20000005         3.55233958E-08
  -3.15000010         4.17972572E-08
  -3.09999990         4.90556253E-08
  -3.04999995         5.74118495E-08
  -3.00000000         6.69976785E-08
  -2.95000005         7.79681812E-08
  -2.90000010         9.05074629E-08
  -2.84999990         1.04833624E-07
  -2.79999995         1.21204366E-07
  -2.75000000         1.39922449E-07
  -2.70000005         1.61340409E-07
  -2.65000010         1.85866057E-07
  -2.59999990         2.13969457E-07
  -2.54999995         2.46188279E-07
  -2.50000000         2.83133346E-07
  -2.45000005         3.25499087E-07
  -2.40000010         3.74072101E-07
  -2.34999990         4.29737725E-07
  -2.29999995         4.93490063E-07
  -2.25000000         5.66444783E-07
  -2.20000005         6.49857157E-07
  -2.15000010         7.45141108E-07
  -2.09999990         8.53891095E-07
  -2.04999995         9.77902118E-07
  -2.00000000         1.11919849E-06
  -1.95000005         1.28006150E-06
  -1.89999998         1.46305513E-06
  -1.85000002         1.67106839E-06
  -1.79999995         1.90736273E-06
  -1.75000000         2.17561683E-06
  -1.70000005         2.47997741E-06
  -1.64999998         2.82510359E-06
  -1.60000002         3.21624043E-06
  -1.54999995         3.65926621E-06
  -1.50000000         4.16075363E-06
  -1.45000005         4.72805914E-06
  -1.39999998         5.36943708E-06
  -1.35000002         6.09411563E-06
  -1.29999995         6.91241530E-06
  -1.25000000         7.83587438E-06
  -1.20000005         8.87733859E-06
  -1.14999998         1.00511497E-05
  -1.10000002         1.13732767E-05
  -1.04999995         1.28614629E-05
  -1.00000000         1.45355034E-05
 -0.949999988         1.64174471E-05
 -0.899999976         1.85317604E-05
 -0.850000024         2.09056325E-05
 -0.800000012         2.35692260E-05
 -0.750000000         2.65560193E-05
 -0.699999988         2.99031344E-05
 -0.649999976         3.36516787E-05
 -0.600000024         3.78471414E-05
 -0.550000012         4.25398284E-05
 -0.500000000         4.77853719E-05
 -0.449999988         5.36453517E-05
 -0.400000006         6.01876527E-05
 -0.349999994         6.74871262E-05
 -0.300000012         7.56261943E-05
 -0.250000000         8.46957337E-05
 -0.200000003         9.47955123E-05
 -0.150000006         1.06035688E-04
 -0.100000001         1.18537217E-04
  -5.00000007E-02     1.32433532E-04
   0.00000000         1.47870262E-04
   5.00000007E-02     1.65007208E-04
  0.100000001         1.84019969E-04
  0.150000006         2.05100077E-04
  0.200000003         2.28457313E-04
  0.250000000         2.54321436E-04
  0.300000012         2.82944122E-04
  0.349999994         3.14599776E-04
  0.400000006         3.49586480E-04
  0.449999988         3.88229993E-04
  0.500000000         4.30885790E-04
  0.550000012         4.77940339E-04
  0.600000024         5.29814512E-04
  0.649999976         5.86966577E-04
  0.699999988         6.49894879E-04
  0.750000000         7.19139294E-04
  0.800000012         7.95284635E-04
  0.850000024         8.78962048E-04
  0.899999976         9.70855122E-04
  0.949999988         1.07170828E-03
   1.00000000         1.18232670E-03
   1.04999995         1.30358059E-03
   1.10000002         1.43640616E-03
   1.14999998         1.58181554E-03
   1.20000005         1.74090290E-03
   1.25000000         1.91483798E-03
   1.29999995         2.10487749E-03
   1.35000002         2.31237616E-03
   1.39999998         2.53878487E-03
   1.45000005         2.78567313E-03
   1.50000000         3.05472803E-03
   1.54999995         3.34775331E-03
   1.60000002         3.66667542E-03
   1.64999998         4.01354907E-03
   1.70000005         4.39057453E-03
   1.75000000         4.80010547E-03
   1.79999995         5.24465041E-03
   1.85000002         5.72688226E-03
   1.89999998         6.24965690E-03
   1.95000005         6.81600440E-03
   2.00000000         7.42913783E-03
   2.04999995         8.09246395E-03
   2.09999990         8.80962238E-03
   2.15000010         9.58449487E-03
   2.20000005         1.04211820E-02
   2.25000000         1.13239959E-02
   2.29999995         1.22974878E-02
   2.34999990         1.33464672E-02
   2.40000010         1.44760022E-02
   2.45000005         1.56914685E-02
   2.50000000         1.69985089E-02
   2.54999995         1.84030589E-02
   2.59999990         1.99113600E-02
   2.65000010         2.15299837E-02
   2.70000005         2.32657753E-02
   2.75000000         2.51259152E-02
   2.79999995         2.71179266E-02
   2.84999990         2.92497054E-02
   2.90000010         3.15294154E-02
   2.95000005         3.39655466E-02
   3.00000000         3.65669802E-02
   3.04999995         3.93429883E-02
   3.09999990         4.23031673E-02
   3.15000010         4.54575233E-02
   3.20000005         4.88164127E-02
   3.25000000         5.23904599E-02
   3.29999995         5.61906248E-02
   3.34999990         6.02281392E-02
   3.40000010         6.45146742E-02
   3.45000005         6.90622106E-02
   3.50000000         7.38831833E-02
   3.54999995         7.89902508E-02
   3.59999990         8.43963996E-02
   3.65000010         9.01147574E-02
   3.70000005         9.61586609E-02
   3.75000000        0.102541588    
   3.79999995        0.109277308    
   3.84999990        0.116379820    
   3.90000010        0.123863198    
   3.95000005        0.131741852    
   4.00000000        0.140030175    
   4.05000019        0.148741826    
   4.09999990        0.157891229    
   4.15000010        0.167492598    
   4.19999981        0.177560091    
   4.25000000        0.188107714    
   4.30000019        0.199149370    
   4.34999990        0.210698351    
   4.40000010        0.222767264    
   4.44999981        0.235367864    
   4.50000000        0.248511896    
   4.55000019        0.262211084    
   4.59999990        0.276476979    
   4.65000010        0.291320175    
   4.69999981        0.306749821    
   4.75000000        0.322773397    
   4.80000019        0.339397788    
   4.84999990        0.356628656    
   4.90000010        0.374470741    
   4.94999981        0.392928362    
   5.00000000        0.412003964    
   5.05000019        0.431697905    
   5.09999990        0.452008992    
   5.15000010        0.472934246    
   5.19999981        0.494469643    
   5.25000000        0.516608655    
   5.30000019        0.539342999    
   5.34999990        0.562662482    
   5.40000010        0.586554646    
   5.44999981        0.611003876    
   5.50000000        0.635993779    
   5.55000019        0.661504447    
   5.59999990        0.687514365    
   5.65000010        0.713999152    
   5.69999981        0.740927339    
   5.75000000        0.768267035    
   5.80000019        0.795984983    
   5.84999990        0.824043632    
   5.90000010        0.852405012    
   5.94999981        0.881027520    
   6.00000000        0.909865975    
   6.05000019        0.938873231    
   6.09999990        0.967997253    
   6.15000010        0.997181594    
   6.19999981         1.02636755    
   6.25000000         1.05549562    
   6.30000019         1.08450186    
   6.34999990         1.11331868    
   6.40000010         1.14187121    
   6.44999981         1.17008388    
   6.50000000         1.19788349    
   6.55000019         1.22519767    
   6.59999990         1.25194633    
   6.65000010         1.27804589    
   6.69999981         1.30341065    
   6.75000000         1.32795012    
   6.80000019         1.35156655    
   6.84999990         1.37416828    
   6.90000010         1.39566195    
   6.94999981         1.41595864    
   7.00000000         1.43496883    
   7.05000019         1.45259416    
   7.09999990         1.46874130    
   7.15000010         1.48331213    
   7.19999981         1.49620688    
   7.25000000         1.50733054    
   7.30000019         1.51658762    
   7.34999990         1.52387786    
   7.40000010         1.52910852    
   7.44999981         1.53219736    
   7.50000000         1.53305352    
   7.55000019         1.53158665    
   7.59999990         1.52771199    
   7.65000010         1.52133572    
   7.69999981         1.51238108    
   7.75000000         1.50079143    
   7.80000019         1.48650885    
   7.84999990         1.46946776    
   7.90000010         1.44960189    
   7.94999981         1.42685521    
   8.00000000         1.40117323    
   8.05000019         1.37251210    
   8.10000038         1.34084511    
   8.14999962         1.30613947    
   8.19999981         1.26838326    
   8.25000000         1.22757804    
   8.30000019         1.18370628    
   8.35000038         1.13676238    
   8.39999962         1.08675814    
   8.44999981         1.03370833    
   8.50000000        0.977645159    
   8.55000019        0.918609619    
   8.60000038        0.856647491    
   8.64999962        0.791807115    
   8.69999981        0.724145174    
   8.75000000        0.653735638    
   8.80000019        0.580666184    
   8.85000038        0.505040407    
   8.89999962        0.426962227    
   8.94999981        0.346542567    
   9.00000000        0.263900965    
   9.05000019        0.179140374    
   9.10000038         9.23762619E-02
   9.14999962         3.75697156E-03
   9.19999981        -8.65681246E-02
   9.25000000       -0.178445324    
   9.30000019       -0.271701515    
   9.35000038       -0.366150439    
   9.39999962       -0.461604744    
   9.44999981       -0.557884336    
   9.50000000       -0.654804468    
   9.55000019       -0.752178133    
   9.60000038       -0.849810719    
   9.64999962       -0.947491050    
   9.69999981        -1.04500985    
   9.75000000        -1.14215839    
   9.80000019        -1.23873258    
   9.85000038        -1.33453667    
   9.89999962        -1.42936587    
   9.94999981        -1.52301228    
   10.0000000        -1.61526811    
   10.0500002        -1.70592391    
   10.1000004        -1.79476833    
   10.1499996        -1.88158274    
   10.1999998        -1.96616161    
   10.2500000        -2.04831433    
   10.3000002        -2.12785220    
   10.3500004        -2.20459175    
   10.3999996        -2.27834558    
   10.4499998        -2.34892440    
   10.5000000        -2.41614532    
   10.5500002        -2.47983789    
   10.6000004        -2.53985620    
   10.6499996        -2.59607363    
   10.6999998        -2.64838099    
   10.7500000        -2.69667864    
   10.8000002        -2.74086118    
   10.8500004        -2.78082228    
   10.8999996        -2.81645322    
   10.9499998        -2.84765315    
   11.0000000        -2.87434125    
   11.0500002        -2.89645672    
   11.1000004        -2.91396117    
   11.1499996        -2.92683291    
   11.1999998        -2.93506455    
   11.2500000        -2.93864965    
   11.3000002        -2.93759418    
   11.3500004        -2.93190765    
   11.3999996        -2.92161226    
   11.4499998        -2.90674424    
   11.5000000        -2.88735294    
   11.5500002        -2.86350965    
   11.6000004        -2.83529663    
   11.6499996        -2.80280375    
   11.6999998        -2.76613021    
   11.7500000        -2.72537971    
   11.8000002        -2.68066812    
   11.8500004        -2.63212633    
   11.8999996        -2.57989907    
   11.9499998        -2.52414155    
   12.0000000        -2.46500587    
   12.0500002        -2.40263605    
   12.1000004        -2.33717537    
   12.1499996        -2.26877642    
   12.1999998        -2.19761443    
   12.2500000        -2.12389207    
   12.3000002        -2.04783821    
   12.3500004        -1.96968973    
   12.3999996        -1.88966799    
   12.4499998        -1.80795825    
   12.5000000        -1.72472048    
   12.5500002        -1.64010465    
   12.6000004        -1.55426574    
   12.6499996        -1.46738338    
   12.6999998        -1.37967551    
   12.7500000        -1.29139280    
   12.8000002        -1.20278454    
   12.8500004        -1.11407757    
   12.8999996        -1.02547646    
   12.9499998       -0.937145293    
   13.0000000       -0.849224150    
   13.0500002       -0.761858106    
   13.1000004       -0.675197184    
   13.1499996       -0.589399099    
   13.1999998       -0.504638493    
   13.2500000       -0.421093792    
   13.3000002       -0.338931710    
   13.3500004       -0.258304060    
   13.3999996       -0.179358080    
   13.4499998       -0.102226034    
   13.5000000        -2.70219222E-02
   13.5500002         4.61482517E-02
   13.6000004        0.117199600    
   13.6499996        0.186065435    
   13.6999998        0.252684295    
   13.7500000        0.316983283    
   13.8000002        0.378884166    
   13.8500004        0.438308269    
   13.8999996        0.495170832    
   13.9499998        0.549397349    
   14.0000000        0.600938201    
   14.0500002        0.649775207    
   14.1000004        0.695921183    
   14.1499996        0.739408433    
   14.1999998        0.780266106    
   14.2500000        0.818506718    
   14.3000002        0.854129851    
   14.3500004        0.887123406    
   14.3999996        0.917478323    
   14.4499998        0.945190370    
   14.5000000        0.970277369    
   14.5500002        0.992787182    
   14.6000004         1.01278722    
   14.6499996         1.03035116    
   14.6999998         1.04554749    
   14.7500000         1.05843794    
   14.8000002         1.06907582    
   14.8500004         1.07751644    
   14.8999996         1.08381867    
   14.9499998         1.08805585    
   15.0000000         1.09032309    
   15.0500002         1.09071481    
   15.1000004         1.08931565    
   15.1499996         1.08620560    
   15.1999998         1.08145642    
   15.2500000         1.07514071    
   15.3000002         1.06733692    
   15.3500004         1.05812609    
   15.3999996         1.04759097    
   15.4499998         1.03581393    
   15.5000000         1.02286601    
   15.5500002         1.00881219    
   15.6000004        0.993723989    
   15.6499996        0.977685392    
   15.6999998        0.960792065    
   15.7500000        0.943147600    
   15.8000002        0.924852610    
   15.8500004        0.905991375    
   15.8999996        0.886628211    
   15.9499998        0.866812408    
   16.0000000        0.846583784    
   16.0499992        0.825985551    
   16.1000004        0.805070102    
   16.1499996        0.783901930    
   16.2000008        0.762546837    
   16.2500000        0.741068482    
   16.2999992        0.719532788    
   16.3500004        0.698006511    
   16.3999996        0.676552653    
   16.4500008        0.655224919    
   16.5000000        0.634063840    
   16.5499992        0.613090932    
   16.6000004        0.592308283    
   16.6499996        0.571715057    
   16.7000008        0.551323891    
   16.7500000        0.531171799    
   16.7999992        0.511318028    
   16.8500004        0.491829306    
   16.8999996        0.472759843    
   16.9500008        0.454134226    
   17.0000000        0.435943633    
   17.0499992        0.418156415    
   17.1000004        0.400740415    
   17.1499996        0.383682132    
   17.2000008        0.366997898    
   17.2500000        0.350731432    
   17.2999992        0.334938496    
   17.3500004        0.319666684    
   17.3999996        0.304939538    
   17.4500008        0.290749431    
   17.5000000        0.277061254    
   17.5499992        0.263825446    
   17.6000004        0.250998616    
   17.6499996        0.238562167    
   17.7000008        0.226530209    
   17.7500000        0.214942008    
   17.7999992        0.203839228    
   17.8500004        0.193241119    
   17.8999996        0.183126763    
   17.9500008        0.173438758    
   18.0000000        0.164107770    
   18.0499992        0.155086413    
   18.1000004        0.146373957    
   18.1499996        0.138016224    
   18.2000008        0.130078807    
   18.2500000        0.122605018    
   18.2999992        0.115582779    
   18.3500004        0.108940668    
   18.3999996        0.102577679    
   18.4500008         9.64122936E-02
   18.5000000         9.04237181E-02
   18.5499992         8.46625790E-02
   18.6000004         7.92242661E-02
   18.6499996         7.41977319E-02
   18.7000008         6.96161315E-02
   18.7500000         6.54349253E-02
   18.7999992         6.15471825E-02
   18.8500004         5.78266904E-02
   18.8999996         5.41769378E-02
   18.9500008         5.05630448E-02
   19.0000000         4.70151901E-02
   19.0499992         4.36066128E-02
   19.1000004         4.04195301E-02
   19.1499996         3.75133753E-02
   19.2000008         3.49067375E-02
   19.2500000         3.25742923E-02
   19.2999992         3.04563940E-02
   19.3500004         2.84766406E-02
   19.3999996         2.65624616E-02
   19.4500008         2.46650167E-02
   19.5000000         2.27730591E-02
   19.5499992         2.09164042E-02
   19.6000004         1.91563349E-02
   19.6499996         1.75645221E-02
   19.7000008         1.61972325E-02
   19.7500000         1.50735835E-02
   19.7999992         1.41650448E-02
   19.8500004         1.33991493E-02
   19.8999996         1.26762697E-02
   19.9500008         1.18950335E-02
   20.0000000         1.09813269E-02
   20.0499992         9.91452299E-03
   20.1000004         8.74305703E-03
   20.1499996         7.58054620E-03
   20.2000008         6.57672714E-03
   20.2500000         5.86628774E-03
   20.2999992         5.51122194E-03
   20.3500004         5.46155591E-03
   20.3999996         5.55791613E-03
   20.4500008         5.58388606E-03
   20.5000000         5.35199605E-03
   20.5499992         4.78669396E-03
   20.6000004         3.96361668E-03
   20.6499996         3.08186025E-03
   20.7000008         2.37798761E-03
   20.7500000         2.02054693E-03
   20.7999992         2.03520316E-03
   20.8500004         2.29623425E-03
   20.8999996         2.58711539E-03
   20.9500008         2.69905734E-03
   21.0000000         2.51957122E-03
   21.0499992         2.07132963E-03
   21.1000004         1.48894417E-03
   21.1499996         9.51616094E-04
   21.2000008         6.07211143E-04
   21.2500000         5.21017006E-04
   21.2999992         6.64952095E-04
   21.3500004         9.42197395E-04
   21.3999996         1.22923136E-03
   21.4500008         1.41632941E-03
   21.5000000         1.43509649E-03
   21.5499992         1.27042562E-03
   21.6000004         9.59158293E-04
   21.6499996         5.78222098E-04
   21.7000008         2.24219446E-04
   21.7500000        -1.25410124E-05
   21.7999992        -7.37524460E-05
   21.8500004         4.93789012E-05
   21.8999996         3.13341094E-04
   21.9500008         6.35640870E-04
   22.0000000         9.19540296E-04
   22.0499992         1.08188367E-03
   22.1000004         1.07611879E-03
   22.1499996         9.05629189E-04
   22.2000008         6.25270128E-04
   22.2500000         3.30140203E-04
   22.2999992         1.31338238E-04
   22.3500004         1.21368292E-04
   22.3999996         3.37750622E-04
   22.4500008         7.39293580E-04
   22.5000000         1.20987720E-03
   22.5499992         1.59571285E-03
   22.6000004         1.76591531E-03
   22.6499996         1.67115591E-03
   22.7000008         1.37118914E-03
   22.7500000         1.01417897E-03
   22.7999992         7.74326676E-04
   22.8500004         7.76736124E-04
   22.8999996         1.04626548E-03
   22.9500008         1.50490669E-03
   23.0000000         2.01639347E-03
   23.0499992         2.45219655E-03
   23.1000004         2.74405349E-03
   23.1499996         2.89921416E-03
   23.2000008         2.97783501E-03
   23.2500000         3.05251102E-03
   23.2999992         3.17585235E-03
   23.3500004         3.37124104E-03
   23.3999996         3.64362751E-03
   23.4500008         3.99455847E-03
   23.5000000         4.42636292E-03
   23.5499992         4.93266806E-03
   23.6000004         5.48594026E-03
   23.6499996         6.03694422E-03
   23.7000008         6.53293729E-03
   23.7500000         6.94691390E-03
   23.7999992         7.30011053E-03
   23.8500004         7.66171189E-03
   23.8999996         8.12269934E-03
   23.9500008         8.75627343E-03
   24.0000000         9.58543085E-03
   24.0499992         1.05740884E-02
   24.1000004         1.16447741E-02
   24.1499996         1.27126118E-02
   24.2000008         1.37188770E-02
   24.2500000         1.46506401E-02
   24.2999992         1.55421626E-02
   24.3500004         1.64612625E-02
   24.3999996         1.74875893E-02
   24.4500008         1.86893605E-02
   24.5000000         2.01030448E-02
   24.5499992         2.17208695E-02
   24.6000004         2.34912671E-02
   24.6499996         2.53351592E-02
   24.7000008         2.71753520E-02
   24.7500000         2.89686397E-02
   24.7999992         3.07261329E-02
   24.8500004         3.25107910E-02
   24.8999996         3.44126038E-02
   24.9500008         3.65138799E-02
   25.0000000         3.88616472E-02
   25.0499992         4.14599031E-02
   25.1000004         4.42814454E-02
   25.1499996         4.72881123E-02
   25.2000008         5.04445955E-02
   25.2500000         5.37199043E-02
   25.2999992         5.70825599E-02
   25.3500004         6.05005659E-02
   25.3999996         6.39546737E-02
   25.4500008         6.74598590E-02