 -15.   -1.068815605E-30
 -14.9499998   -1.010278056E-30
 -14.8999996   -8.977839985E-31
 -14.8500004   -7.400839082E-31
 -14.8000002   -5.493197479E-31
 -14.75   -3.399615709E-31
 -14.6999998   -1.275669979E-31
 -14.6499996   7.251326075E-32
 -14.6000004   2.463661246E-31
 -14.5500002   3.825770732E-31
 -14.5   4.707482949E-31
 -14.4499998   4.924971033E-31
 -14.3999996   4.294796975E-31
 -14.3500004   3.909837621E-31
 -14.3000002   8.714058112E-31
 -14.25   2.480399909E-30
 -14.1999998   3.810091659E-30
 -14.1499996   -1.85339442E-30
 -14.1000004   -2.375834703E-29
 -14.0500002   -5.451224939E-29
 -14.   -4.238623034E-29
 -13.9499998   9.651628194E-29
 -13.8999996   3.692628094E-28
 -13.8500004   5.472903086E-28
 -13.8000002   1.83622735E-28
 -13.75   -9.828763915E-28
 -13.6999998   -2.492713023E-27
 -13.6499996   -3.316305379E-27
 -13.6000004   -3.001994575E-27
 -13.5500002   -2.002123392E-27
 -13.5   1.984523281E-27
 -13.4499998   2.022697139E-26
 -13.3999996   6.871658877E-26
 -13.3500004   1.347379356E-25
 -13.3000002   1.205101636E-25
 -13.25   -1.663135848E-25
 -13.1999998   -8.556300922E-25
 -13.1499996   -1.649722624E-24
 -13.1000004   -1.489839747E-24
 -13.0500002   1.161844103E-24
 -13.   6.871428924E-24
 -12.9499998   1.29333493E-23
 -12.8999996   1.213484772E-23
 -12.8500004   -4.426464594E-24
 -12.8000002   -3.890084223E-23
 -12.75   -7.595195078E-23
 -12.6999998   -7.92719571E-23
 -12.6499996   -6.63083187E-24
 -12.6000004   1.539863429E-22
 -12.5500002   3.436120836E-22
 -12.5   4.215714077E-22
 -12.4499998   2.184124111E-22
 -12.3999996   -3.46506307E-22
 -12.3500004   -1.135973032E-21
 -12.3000002   -1.747820114E-21
 -12.25   -1.628161249E-21
 -12.1999998   -3.421423537E-22
 -12.1499996   2.105883094E-21
 -12.1000004   5.064449247E-21
 -12.0500002   7.255416834E-21
 -12.   7.032038486E-21
 -11.9499998   2.824979312E-21
 -11.8999996   -6.212471328E-21
 -11.8500004   -1.925944815E-20
 -11.8000002   -3.261929877E-20
 -11.75   -3.884239824E-20
 -11.6999998   -2.754546983E-20
 -11.6499996   1.048094139E-20
 -11.6000004   7.554027904E-20
 -11.5500002   1.503112026E-19
 -11.5   1.961769587E-19
 -11.4499998   1.617138227E-19
 -11.3999996   6.531983976E-21
 -11.3500004   -2.654283257E-19
 -11.3000002   -5.793730175E-19
 -11.25   -7.906415117E-19
 -11.1999998   -7.265699109E-19
 -11.1499996   -2.633732731E-19
 -11.1000004   5.903057602E-19
 -11.0500002   1.643654923E-18
 -11.   2.539779902E-18
 -10.9499998   2.842411374E-18
 -10.8999996   2.167154061E-18
 -10.8500004   3.164209861E-19
 -10.8000002   -2.61260509E-18
 -10.75   -6.154070315E-18
 -10.6999998   -9.430897095E-18
 -10.6499996   -1.116616486E-17
 -10.6000004   -9.822303244E-18
 -10.5500002   -3.973421216E-18
 -10.5   7.032181679E-18
 -10.4499998   2.221762954E-17
 -10.3999996   3.824827235E-17
 -10.3500004   4.931037375E-17
 -10.3000002   4.805663926E-17
 -10.25   2.778831873E-17
 -10.1999998   -1.446243079E-17
 -10.1499996   -7.483337566E-17
 -10.1000004   -1.40755303E-16
 -10.0500002   -1.915062878E-16
 -10.   -2.019262357E-16
 -9.94999981   -1.491619594E-16
 -9.89999962   -2.127339129E-17
 -9.85000038   1.744347358E-16
 -9.80000019   4.060884002E-16
 -9.75   6.176032738E-16
 -9.69999981   7.365012886E-16
 -9.64999962   6.892205977E-16
 -9.60000038   4.217404044E-16
 -9.55000019   -7.872578322E-17
 -9.5   -7.664060515E-16
 -9.44999981   -1.529352715E-15
 -9.39999962   -2.195578221E-15
 -9.35000038   -2.555019828E-15
 -9.30000019   -2.397245542E-15
 -9.25   -1.562347507E-15
 -9.19999981   9.322272771E-19
 -9.14999962   2.180631901E-15
 -9.10000038   4.666836867E-15
 -9.05000019   6.956288573E-15
 -9.   8.412853205E-15
 -8.94999981   8.38816643E-15
 -8.89999962   6.386658068E-15
 -8.85000038   2.237615619E-15
 -8.80000019   -3.775766253E-15
 -8.75   -1.087604704E-14
 -8.69999981   -1.786273901E-14
 -8.64999962   -2.328509496E-14
 -8.60000038   -2.567877788E-14
 -8.55000019   -2.381857495E-14
 -8.5   -1.69500068E-14
 -8.44999981   -4.982859777E-15
 -8.39999962   1.135806808E-14
 -8.35000038   3.043796972E-14
 -8.30000019   4.971191983E-14
 -8.25   6.588128074E-14
 -8.19999981   7.526140491E-14
 -8.14999962   7.436409886E-14
 -8.10000038   6.061590032E-14
 -8.05000019   3.305579619E-14
 -8.   -7.171982971E-15
 -7.94999981   -5.667002444E-14
 -7.9000001   -1.100219362E-13
 -7.8499999   -1.603330912E-13
 -7.80000019   -1.999358388E-13
 -7.75   -2.211298771E-13
 -7.69999981   -2.169058119E-13
 -7.6500001   -1.816938662E-13
 -7.5999999   -1.122223042E-13
 -7.55000019   -8.527894679E-15
 -7.5   1.249644648E-13
 -7.44999981   2.785269845E-13
 -7.4000001   4.367325186E-13
 -7.3499999   5.789434687E-13
 -7.30000019   6.809503048E-13
 -7.25   7.177930667E-13
 -7.19999981   6.675017527E-13
 -7.1500001   5.151927604E-13
 -7.0999999   2.567644719E-13
 -7.05000019   -9.856843125E-14
 -7.   -5.274325898E-13
 -6.94999981   -9.932636311E-13
 -6.9000001   -1.448779573E-12
 -6.8499999   -1.839410568E-12
 -6.80000019   -2.107231924E-12
 -6.75   -2.19531923E-12
 -6.69999981   -2.052882387E-12
 -6.6500001   -1.641653827E-12
 -6.5999999   -9.435862465E-13
 -6.55000019   3.098088396E-14
 -6.5   1.236515556E-12
 -6.44999981   2.589146345E-12
 -6.4000001   3.969010016E-12
 -6.3499999   5.228585793E-12
 -6.30000019   6.205821881E-12
 -6.25   6.739696475E-12
 -6.19999981   6.685806856E-12
 -6.1500001   5.930604098E-12
 -6.0999999   4.404342776E-12
 -6.05000019   2.093618464E-12
 -6.   -9.461462646E-13
 -5.94999981   -4.579605358E-12
 -5.9000001   -8.585198524E-12
 -5.8499999   -1.265803174E-11
 -5.80000019   -1.642554495E-11
 -5.75   -1.947700508E-11
 -5.69999981   -2.140434358E-11
 -5.6500001   -2.18496124E-11
 -5.5999999   -2.055272272E-11
 -5.55000019   -1.739434118E-11
 -5.5   -1.242989132E-11
 -5.44999981   -5.912135798E-12
 -5.4000001   1.699644115E-12
 -5.3499999   9.746171752E-12
 -5.30000019   1.739253012E-11
 -5.25   2.367142246E-11
 -5.19999981   2.754509815E-11
 -5.1500001   2.798308286E-11
 -5.0999999   2.405132864E-11
 -5.05000019   1.500739984E-11
 -5.   3.958407224E-13
 -4.94999981   -1.986248666E-11
 -4.9000001   -4.539349799E-11
 -4.8499999   -7.531444912E-11
 -4.80000019   -1.082058124E-10
 -4.75   -1.421173873E-10
 -4.69999981   -1.74612505E-10
 -4.6500001   -2.028473917E-10
 -4.5999999   -2.236824476E-10
 -4.55000019   -2.338187421E-10
 -4.5   -2.299475471E-10
 -4.44999981   -2.089124568E-10
 -4.4000001   -1.678616135E-10
 -4.3499999   -1.043874848E-10
 -4.30000019   -1.663715866E-11
 -4.25   9.662421557E-11
 -4.19999981   2.359956397E-10
 -4.1500001   4.014818478E-10
 -4.0999999   5.925911428E-10
 -4.05000019   8.084827807E-10
 -4.   1.04818243E-9
 -3.95000005   1.310829556E-9
 -3.9000001   1.596007992E-9
 -3.8499999   1.904105318E-9
 -3.79999995   2.236709706E-9
 -3.75   2.597006166E-9
 -3.70000005   2.990176551E-9
 -3.6500001   3.423722861E-9
 -3.5999999   3.907757673E-9
 -3.54999995   4.455240621E-9
 -3.5   5.082184451E-9
 -3.45000005   5.807813341E-9
 -3.4000001   6.654753637E-9
 -3.3499999   7.649143541E-9
 -3.29999995   8.820772557E-9
 -3.25   1.020326845E-8
 -3.20000005   1.183423848E-8
 -3.1500001   1.375559844E-8
 -3.0999999   1.601398658E-8
 -3.04999995   1.866120947E-8
 -3.   2.175520386E-8
 -2.95000005   2.536100929E-8
 -2.9000001   2.95520497E-8
 -2.8499999   3.441178009E-8
 -2.79999995   4.003542386E-8
 -2.75   4.653220387E-8
 -2.70000005   5.402767655E-8
 -2.6500001   6.266624553E-8
 -2.5999999   7.261429147E-8
 -2.54999995   8.406311025E-8
 -2.5   9.723295591E-8
 -2.45000005   1.123763198E-7
 -2.4000001   1.297829186E-7
 -2.3499999   1.497838582E-7
 -2.29999995   1.727572538E-7
 -2.25   1.991332255E-7
 -2.20000005   2.294017207E-7
 -2.1500001   2.641189667E-7
 -2.0999999   3.039157548E-7
 -2.04999995   3.4950844E-7
 -2.   4.017065862E-7
 -1.95000005   4.614286979E-7
 -1.89999998   5.297134749E-7
 -1.85000002   6.077344779E-7
 -1.79999995   6.968201092E-7
 -1.75   7.984710351E-7
 -1.70000005   9.143820421E-7
 -1.64999998   1.046466764E-6
 -1.60000002   1.196889798E-6
 -1.54999995   1.368089556E-6
 -1.5   1.562815328E-6
 -1.45000005   1.784164056E-6
 -1.39999998   2.035624448E-6
 -1.35000002   2.321114152E-6
 -1.29999995   2.645044333E-6
 -1.25   3.012361276E-6
 -1.20000005   3.428633363E-6
 -1.14999998   3.900098363E-6
 -1.10000002   4.433749837E-6
 -1.04999995   5.037424671E-6
 -1.   5.719896762E-6
 -0.949999988   6.490976375E-6
 -0.899999976   7.36164202E-6
 -0.850000024   8.344155503E-6
 -0.800000012   9.452211998E-6
 -0.75   1.070108192E-5
 -0.699999988   1.210782102E-5
 -0.649999976   1.369140773E-5
 -0.600000024   1.547298962E-5
 -0.550000012   1.747612441E-5
 -0.5   1.972698192E-5
 -0.449999988   2.225467142E-5
 -0.400000006   2.509150363E-5
 -0.349999994   2.827341996E-5
 -0.300000012   3.184019806E-5
 -0.25   3.583597572E-5
 -0.200000003   4.030972559E-5
 -0.150000006   4.531554441E-5
 -0.100000001   5.091333151E-5
 -5.000000075E-2   5.716940723E-5
 8.326672685E-16   6.415689131E-5
 5.000000075E-2   7.195655053E-5
 0.100000001   8.065767906E-5
 0.150000006   9.035853873E-5
 0.200000003   1.011675631E-4
 0.25   1.132042307E-4
 0.300000012   1.265998872E-4
 0.349999994   1.414989238E-4
 0.400000006   1.580600801E-4
 0.449999988   1.764576009E-4
 0.5   1.968828874E-4
 0.550000012   2.19545982E-4
 0.600000024   2.446769504E-4
 0.649999976   2.725275117E-4
 0.699999988   3.03373934E-4
 0.75   3.375175875E-4
 0.800000012   3.752884513E-4
 0.850000024   4.170462489E-4
 0.899999976   4.631842312E-4
 0.949999988   5.141316797E-4
 1.   5.703550414E-4
 1.04999995   6.3236407E-4
 1.10000002   7.007130189E-4
 1.14999998   7.760055596E-4
 1.20000005   8.588959463E-4
 1.25   9.500966989E-4
 1.29999995   1.050380059E-3
 1.35000002   1.160583808E-3
 1.39999998   1.281616511E-3
 1.45000005   1.41446176E-3
 1.5   1.560184523E-3
 1.54999995   1.719936961E-3
 1.60000002   1.894962508E-3
 1.64999998   2.086606342E-3
 1.70000005   2.296319231E-3
 1.75   2.525664633E-3
 1.79999995   2.77633057E-3
 1.85000002   3.050129861E-3
 1.89999998   3.349017818E-3
 1.95000005   3.675093409E-3
 2.   4.030616023E-3
 2.04999995   4.418006632E-3
 2.0999999   4.839862697E-3
 2.1500001   5.298968405E-3
 2.20000005   5.798313301E-3
 2.25   6.341089495E-3
 2.29999995   6.930716336E-3
 2.3499999   7.570846006E-3
 2.4000001   8.265372366E-3
 2.45000005   9.018452838E-3
 2.5   9.834525175E-3
 2.54999995   1.071830746E-2
 2.5999999   1.167481951E-2
 2.6500001   1.270942483E-2
 2.70000005   1.382780261E-2
 2.75   1.503599808E-2
 2.79999995   1.634041592E-2
 2.8499999   1.77478306E-2
 2.9000001   1.926541515E-2
 2.95000005   2.090077102E-2
 3.   2.266194858E-2
 3.04999995   2.455744147E-2
 3.0999999   2.659622021E-2
 3.1500001   2.878774889E-2
 3.20000005   3.114200383E-2
 3.25   3.366944939E-2
 3.29999995   3.638110682E-2
 3.3499999   3.928854316E-2
 3.4000001   4.240391031E-2
 3.45000005   4.57399711E-2
 3.5   4.931007326E-2
 3.54999995   5.312823504E-2
 3.5999999   5.720909685E-2
 3.6500001   6.156792119E-2
 3.70000005   6.622063369E-2
 3.75   7.11838454E-2
 3.79999995   7.647483796E-2
 3.8499999   8.211161196E-2
 3.9000001   8.811283112E-2
 3.95000005   9.449790418E-2
 4.   0.101286978
 4.05000019   0.108500876
 4.0999999   0.11616116
 4.1500001   0.124290034
 4.19999981   0.13291043
 4.25   0.142046019
 4.30000019   0.151721135
 4.3499999   0.16196084
 4.4000001   0.172790885
 4.44999981   0.184237584
 4.5   0.196327746
 4.55000019   0.209088936
 4.5999999   0.222549081
 4.6500001   0.236736685
 4.69999981   0.251681179
 4.75   0.267411768
 4.80000019   0.283958495
 4.8499999   0.301351577
 4.9000001   0.319621384
 4.94999981   0.338798523
 5.   0.358913988
 5.05000019   0.379998446
 5.0999999   0.402083248
 5.1500001   0.425199091
 5.19999981   0.449376643
 5.25   0.474646181
 5.30000019   0.501037717
 5.3499999   0.528581023
 5.4000001   0.55730468
 5.44999981   0.587236822
 5.5   0.618405163
 5.55000019   0.650836527
 5.5999999   0.684556007
 5.6500001   0.719588339
 5.69999981   0.755956173
 5.75   0.793680966
 5.80000019   0.832782388
 5.8499999   0.873278379
 5.9000001   0.915185809
 5.94999981   0.958518267
 6.   1.00328863
 6.05000019   1.04950571
 6.0999999   1.09717655
 6.1500001   1.14630544
 6.19999981   1.19689488
 6.25   1.24894297
 6.30000019   1.30244529
 6.3499999   1.35739386
 6.4000001   1.41377735
 6.44999981   1.47158051
 6.5   1.53078473
 6.55000019   1.59136879
 6.5999999   1.6533041
 6.6500001   1.71656227
 6.69999981   1.78110838
 6.75   1.84690404
 6.80000019   1.91390431
 6.8499999   1.98205984
 6.9000001   2.05131984
 6.94999981   2.12162685
 7.   2.19291735
 7.05000019   2.26512504
 7.0999999   2.33817625
 7.1500001   2.41199827
 7.19999981   2.48650837
 7.25   2.56162
 7.30000019   2.63724303
 7.3499999   2.7132802
 7.4000001   2.78963137
 7.44999981   2.8661902
 7.5   2.94284844
 7.55000019   3.01949358
 7.5999999   3.09600592
 7.6500001   3.17226434
 7.69999981   3.2481401
 7.75   3.32350445
 7.80000019   3.39821982
 7.8499999   3.47215414
 7.9000001   3.54516625
 7.94999981   3.61711311
 8.   3.68785071
 8.05000019   3.75723124
 8.10000038   3.82510304
 8.14999962   3.89131594
 8.19999981   3.9557178
 8.25   4.01815653
 8.30000019   4.07848024
 8.35000038   4.13653469
 8.39999962   4.19216394
 8.44999981   4.24521399
 8.5   4.29553223
 8.55000019   4.34296942
 8.60000038   4.38737869
 8.64999962   4.42861748
 8.69999981   4.46654797
 8.75   4.50103092
 8.80000019   4.53192949
 8.85000038   4.55911064
 8.89999962   4.58244562
 8.94999981   4.60181332
 9.   4.61710024
 9.05000019   4.62819767
 9.10000038   4.63500738
 9.14999962   4.63743305
 9.19999981   4.63538218
 9.25   4.62877655
 9.30000019   4.61754036
 9.35000038   4.60161018
 9.39999962   4.58092833
 9.44999981   4.55545282
 9.5   4.52514267
 9.55000019   4.48997307
 9.60000038   4.44992685
 9.64999962   4.40499544
 9.69999981   4.35518122
 9.75   4.30049658
 9.80000019   4.24096489
 9.85000038   4.17661905
 9.89999962   4.10750389
 9.94999981   4.03367472
 10.   3.95519495
 10.0500002   3.87213898
 10.1000004   3.78459191
 10.1499996   3.69265199
 10.1999998   3.5964272
 10.25   3.49603415
 10.3000002   3.39159918
 10.3500004   3.28325844
 10.3999996   3.17115331
 10.4499998   3.0554378
 10.5   2.93627429
 10.5500002   2.81383204
 10.6000004   2.68829203
 10.6499996   2.55984259
 10.6999998   2.42867541
 10.75   2.29499078
 10.8000002   2.15899396
 10.8500004   2.02089334
 10.8999996   1.88090396
 10.9499998   1.73924553
 11.   1.59614134
 11.0500002   1.45181787
 11.1000004   1.30650449
 11.1499996   1.16043115
 11.1999998   1.01382935
 11.25   0.866931915
 11.3000002   0.71997118
 11.3500004   0.573180497
 11.3999996   0.426790923
 11.4499998   0.281031102
 11.5   0.136126757
 11.5500002   -7.699439302E-3
 11.6000004   -0.150227562
 11.6499996   -0.291240215
 11.6999998   -0.430523694
 11.75   -0.567868829
 11.8000002   -0.703073084
 11.8500004   -0.83594203
 11.8999996   -0.966288865
 11.9499998   -1.09393525
 12.   -1.21870935
 12.0500002   -1.34044492
 12.1000004   -1.45898235
 12.1499996   -1.57416856
 12.1999998   -1.68586063
 12.25   -1.79392636
 12.3000002   -1.8982445
 12.3500004   -1.99870634
 12.3999996   -2.09521151
 12.4499998   -2.18767023
 12.5   -2.27600145
 12.5500002   -2.36013246
 12.6000004   -2.43999696
 12.6499996   -2.51554251
 12.6999998   -2.5867238
 12.75   -2.65350723
 12.8000002   -2.71587038
 12.8500004   -2.77380157
 12.8999996   -2.82729769
 12.9499998   -2.87636256
 13.   -2.92101264
 13.0500002   -2.96127415
 13.1000004   -2.99717903
 13.1499996   -3.02877307
 13.1999998   -3.05610585
 13.25   -3.07923555
 13.3000002   -3.09822488
 13.3500004   -3.11314392
 13.3999996   -3.12407398
 13.4499998   -3.1310966
 13.5   -3.13430595
 13.5500002   -3.13380122
 13.6000004   -3.12968683
 13.6499996   -3.12207317
 13.6999998   -3.11107016
 13.75   -3.09679365
 13.8000002   -3.0793612
 13.8500004   -3.05889845
 13.8999996   -3.03553319
 13.9499998   -3.00939345
 14.   -2.98061061
 14.0500002   -2.94931531
 14.1000004   -2.91563916
 14.1499996   -2.87971449
 14.1999998   -2.84167504
 14.25   -2.80165577
 14.3000002   -2.75979495
 14.3500004   -2.71622944
 14.3999996   -2.67109251
 14.4499998   -2.62451148
 14.5   -2.57661295
 14.5500002   -2.52752018
 14.6000004   -2.47735453
 14.6499996   -2.42624164
 14.6999998   -2.37430334
 14.75   -2.32166362
 14.8000002   -2.26844311
 14.8500004   -2.21475458
 14.8999996   -2.16070557
 14.9499998   -2.10639238
 15.   -2.05191088
 15.0500002   -1.9973551
 15.1000004   -1.94281578
 15.1499996   -1.88838732
 15.1999998   -1.83415914
 15.25   -1.78021741
 15.3000002   -1.72663796
 15.3500004   -1.67349374
 15.3999996   -1.6208483
 15.4499998   -1.56876206
 15.5   -1.51729321
 15.5500002   -1.46649706
 15.6000004   -1.4164263
 15.6499996   -1.36712933
 15.6999998   -1.31865048
 15.75   -1.27102971
 15.8000002   -1.22430515
 15.8500004   -1.1785121
 15.8999996   -1.13368368
 15.9499998   -1.08984792
 16.   -1.04702592
 16.0499992   -1.00523329
 16.1000004   -0.96447736
 16.1499996   -0.92476356
 16.2000008   -0.886097431
 16.25   -0.848487556
 16.2999992   -0.811945558
 16.3500004   -0.776482522
 16.3999996   -0.742105842
 16.4500008   -0.708814502
 16.5   -0.676598787
 16.5499992   -0.645442367
 16.6000004   -0.615326226
 16.6499996   -0.586234272
 16.7000008   -0.558155596
 16.75   -0.531083643
 16.7999992   -0.505013108
 16.8500004   -0.479933351
 16.8999996   -0.455826908
 16.9500008   -0.432669073
 17.   -0.41043213
 17.0499992   -0.389089227
 17.1000004   -0.368619502
 17.1499996   -0.349007577
 17.2000008   -0.330240339
 17.25   -0.31230256
 17.2999992   -0.295172453
 17.3500004   -0.278821081
 17.3999996   -0.263215363
 17.4500008   -0.248323262
 17.5   -0.234119058
 17.5499992   -0.220584348
 17.6000004   -0.207706019
 17.6499996   -0.195471093
 17.7000008   -0.18386136
 17.75   -0.172850803
 17.7999992   -0.162407547
 17.8500004   -0.152498141
 17.8999996   -0.143093869
 17.9500008   -0.134174213
 18.   -0.125726253
 18.0499992   -0.117741212
 18.1000004   -0.110208578
 18.1499996   -0.103111893
 18.2000008   -9.642780572E-2
 18.25   -9.012854844E-2
 18.2999992   -8.418684453E-2
 18.3500004   -7.858014107E-2
 18.3999996   -7.329253107E-2
 18.4500008   -6.831339747E-2
 18.5   -6.363407522E-2
 18.5499992   -5.924450979E-2
 18.6000004   -5.513158813E-2
 18.6499996   -5.127965286E-2
 18.7000008   -4.767265171E-2
 18.75   -4.429598525E-2
 18.7999992   -4.113704711E-2
 18.8500004   -3.818404302E-2
 18.8999996   -3.542428836E-2
 18.9500008   -3.284349665E-2
 19.   -3.042687289E-2
 19.0499992   -2.816164494E-2
 19.1000004   -2.603961341E-2
 19.1499996   -2.40577478E-2
 19.2000008   -2.221611142E-2
 19.25   -2.051369846E-2
 19.2999992   -1.894443296E-2
 19.3500004   -1.749560609E-2
 19.3999996   -1.614987291E-2
 19.4500008   -1.489023957E-2
 19.5   -1.370545942E-2
 19.5499992   -1.259302441E-2
 19.6000004   -1.155801769E-2
 19.6499996   -1.060814131E-2
 19.7000008   -9.747329168E-3
 19.75   -8.971157484E-3
 19.7999992   -8.266369812E-3
 19.8500004   -7.614801172E-3
 19.8999996   -6.999833509E-3
 19.9500008   -6.412127055E-3
 20.   -5.851979367E-3
 20.0499992   -5.327196792E-3
 20.1000004   -4.847738892E-3
 20.1499996   -4.41978965E-3
 20.2000008   -4.042096436E-3
 20.25   -3.706147894E-3
 20.2999992   -3.399769077E-3
 20.3500004   -3.112124978E-3
 20.3999996   -2.837604843E-3
 20.4500008   -2.576815663E-3
 20.5   -2.334517892E-3
 20.5499992   -2.115849406E-3
 20.6000004   -1.922898693E-3
 20.6499996   -1.753275981E-3
 20.7000008   -1.601137803E-3
 20.75   -1.459821011E-3
 20.7999992   -1.324526151E-3
 20.8500004   -1.193698612E-3
 20.8999996   -1.068670885E-3
 20.9500008   -9.521357715E-4
 21.   -8.46547191E-4
 21.0499992   -7.533133612E-4
 21.1000004   -6.729299203E-4
 21.1499996   -6.054706173E-4
 21.2000008   -5.506903399E-4
 21.25   -5.07419114E-4
 21.2999992   -4.726779589E-4
 21.3500004   -4.414175346E-4
 21.3999996   -4.075671604E-4
 21.4500008   -3.662584641E-4
 21.5   -3.161448694E-4
 21.5499992   -2.6037512E-4
 21.6000004   -2.05325603E-4
 21.6499996   -1.574541093E-4
 21.7000008   -1.198591344E-4
 21.75   -9.052703535E-5
 21.7999992   -6.345687871E-5
 21.8500004   -3.224051397E-5
 21.8999996   5.849096851E-6
 21.9500008   4.768617146E-5
 22.   8.552467625E-5
 22.0499992   1.112169048E-4
 22.1000004   1.212016359E-4
 22.1499996   1.194271172E-4
 22.2000008   1.16366311E-4
 22.25   1.243948354E-4
 22.2999992   1.518600184E-4
 22.3500004   1.99004935E-4
 22.3999996   2.580001601E-4
 22.4500008   3.171590506E-4
 22.5   3.671457525E-4
 22.5499992   4.058917111E-4
 22.6000004   4.39616153E-4
 22.6499996   4.794333363E-4
 22.7000008   5.35389001E-4
 22.75   6.111278781E-4
 22.7999992   7.020182093E-4
 22.8500004   7.976964698E-4
 22.8999996   8.876462234E-4
 22.9500008   9.668377461E-4
 23.   1.038498129E-3
 23.0499992   1.112643047E-3
 23.1000004   1.20126945E-3
 23.1499996   1.312834211E-3
 23.2000008   1.448938739E-3
 23.25   1.604849007E-3
 23.2999992   1.773349009E-3
 23.3500004   1.949633704E-3
 23.3999996   2.13441113E-3
 23.4500008   2.333504846E-3
 23.5   2.554269275E-3
 23.5499992   2.801020164E-3
 23.6000004   3.072288353E-3
 23.6499996   3.361733165E-3
 23.7000008   3.662368516E-3
 23.75   3.971801139E-3
 23.7999992   4.295412917E-3
 23.8500004   4.645417444E-3
 23.8999996   5.036044866E-3
 23.9500008   5.477289204E-3
 24.   5.970687605E-3
 24.0499992   6.509568077E-3
 24.1000004   7.08379643E-3
 24.1499996   7.686500903E-3
 24.2000008   8.319180459E-3
 24.25   8.992289193E-3
 24.2999992   9.720965289E-3
 24.3500004   1.051831804E-2
 24.3999996   1.138987113E-2
 24.4500008   1.233241986E-2
 24.5   1.33377742E-2
 24.5499992   1.439933479E-2
 24.6000004   1.551784109E-2
 24.6499996   1.670309901E-2
 24.7000008   1.797086932E-2
 24.75   1.93367973E-2
 24.7999992   2.081081271E-2
 24.8500004   2.239513397E-2
 24.8999996   2.40868032E-2
 24.9500008   2.588310093E-2
 25.   2.778666653E-2
 25.0499992   2.980726399E-2
 25.1000004   3.19593288E-2
 25.1499996   3.425682336E-2
 25.2000008   3.670844808E-2
 25.25   3.931606933E-2
 25.2999992   4.207760468E-2
 25.3500004   4.499234259E-2
 25.3999996   4.806624725E-2
 25.4500008   5.131363124E-2
 25.5   5.475443974E-2
 25.5499992   5.84082976E-2
 25.6000004   6.228835508E-2
 25.6499996   6.63985014E-2
 25.7000008   7.073542476E-2
 25.75   7.529459149E-2
 25.7999992   8.007728308E-2
 25.8500004   8.509476483E-2
 25.8999996   9.036760777E-2
 25.9500008   9.592048079E-2
 26.   0.101774774
 26.0499992   0.107943065
 26.1000004   0.114428297
 26.1499996   0.121227488
 26.2000008   0.128338575
 26.25   0.135766521
 26.2999992   0.143525615
 26.3500004   0.15163675
 26.3999996   0.160121292
 26.4500008   0.168995395
 26.5   0.178266525
 26.5499992   0.187935174
 26.6000004   0.197999597
 26.6499996   0.208461329
 26.7000008   0.219328493
 26.75   0.230614915
 26.7999992   0.242336646
 26.8500004   0.254506677
 26.8999996   0.26713255
 26.9500008   0.280216545
 27.   0.293758482
 27.0499992   0.307759792
 27.1000004   0.322225481
 27.1499996   0.337162465
 27.2000008   0.352577299
 27.25   0.368472368
 27.2999992   0.384844303
 27.3500004   0.401686192
 27.3999996   0.418990701
 27.4500008   0.436753392
 27.5   0.454974443
 27.5499992   0.473656505
 27.6000004   0.492801279
 27.6499996   0.512405217
 27.7000008   0.53245759
 27.75   0.552941859
 27.7999992   0.57383877
 27.8500004   0.595129788
 27.8999996   0.616799116
 27.9500008   0.638832867
 28.   0.66121763
 28.0499992   0.683936119
 28.1000004   0.706967473
 28.1499996   0.730287135
 28.2000008   0.753869176
 28.25   0.777688682
 28.2999992   0.801721156
 28.3500004   0.82594049
 28.3999996   0.85031724
 28.4500008   0.874816418
 28.5   0.899399221
 28.5499992   0.924024045
 28.6000004   0.948650599
 28.6499996   0.973242521
 28.7000008   0.997766137
 28.75   1.02218831
 28.7999992   1.04647231
 28.8500004   1.07057345
 28.8999996   1.09443927
 28.9500008   1.11801171
 29.   1.14123094
 29.0499992   1.16404414
 29.1000004   1.18640447
 29.1499996   1.20827198
 29.2000008   1.22960901
 29.25   1.25037587
 29.2999992   1.27052426
 29.3500004   1.28999794
 29.3999996   1.30873489
 29.4500008   1.326671
 29.5   1.34374702
 29.5499992   1.35990775
 29.6000004   1.37510562
 29.6499996   1.38929462
 29.7000008   1.40243101
 29.75   1.41446805
 29.7999992   1.42535877
 29.8500004   1.43505442
 29.8999996   1.44350922
 29.9500008   1.45067716
 30.   1.45651448
 30.0499992   1.46097791
 30.1000004   1.46402383
 30.1499996   1.46561337
 30.2000008   1.46570957
 30.25   1.46428454
 30.2999992   1.46131563
 30.3500004   1.45678329
 30.3999996   1.45066726
 30.4500008   1.44294202
 30.5   1.43358088
 30.5499992   1.42255569
 30.6000004   1.40984535
 30.6499996   1.3954401
 30.7000008   1.37934196
 30.75   1.36156309
 30.7999992   1.3421185
 30.8500004   1.32102072
 30.8999996   1.29827571
 30.9500008   1.27388728
 31.   1.24785805
 31.0499992   1.22019744
 31.1000004   1.19092512
 31.1499996   1.16007245
 31.2000008   1.12767804
 31.25   1.09378624
 31.2999992   1.05844212
 31.3500004   1.02168882
 31.3999996   0.983569205
 31.4500008   0.944126248
 31.5   0.903406501
 31.5499992   0.86146003
 31.6000004   0.818342507
 31.6499996   0.774115384
 31.7000008   0.728843808
 31.75   0.682597339
 31.7999992   0.635447741
 31.8500004   0.587469041
 31.8999996   0.538737059
 31.9500008   0.489326358
 32.   0.439311683
 32.0499992   0.388766497
 32.0999985   0.337764174
 32.1500015   0.286379874
 32.2000008   0.234692708
 32.25   0.182786629
 32.2999992   0.130750835
 32.3499985   7.867676765E-2
 32.4000015   2.665482089E-2
 32.4500008   -2.522957139E-2
 32.5   -7.689788193E-2
 32.5499992   -0.128277749
 32.5999985   -0.179299667
 32.6500015   -0.229892552
 32.7000008   -0.279980659
 32.75   -0.329482794
 32.7999992   -0.378314883
 32.8499985   -0.426394284
 32.9000015   -0.473643333
 32.9500008   -0.519991636
 33.   -0.56537497
 33.0499992   -0.609734714
 33.0999985   -0.653013647
 33.1500015   -0.695156455
 33.2000008   -0.736108959
 33.25   -0.775820255
 33.2999992   -0.814241588
 33.3499985   -0.851326585
 33.4000015   -0.887030184
 33.4500008   -0.921307743
 33.5   -0.954117417
 33.5499992   -0.985421181
 33.5999985   -1.01518989
 33.6500015   -1.04340267
 33.7000008   -1.07004702
 33.75   -1.0951134
 33.7999992   -1.11859345
 33.8499985   -1.14047468
 33.9000015   -1.16074228
 33.9500008   -1.17938292
 34.   -1.19638801
 34.0499992   -1.21175802
 34.0999985   -1.22550297
 34.1500015   -1.23763859
 34.2000008   -1.24818599
 34.25   -1.25716734
 34.2999992   -1.26460338
 34.3499985   -1.27051544
 34.4000015   -1.27492499
 34.4500008   -1.27785599
 34.5   -1.2793349
 34.5499992   -1.27939069
 34.5999985   -1.27805448
 34.6500015   -1.27536178
 34.7000008   -1.27135348
 34.75   -1.26607335
 34.7999992   -1.25956929
 34.8499985   -1.25188911
 34.9000015   -1.24308014
 34.9500008   -1.23318529
 35.   -1.22224426
 35.0499992   -1.21029663
 35.0999985   -1.19738364
 35.1500015   -1.18355334
 35.2000008   -1.1688596
 35.25   -1.15336287
 35.2999992   -1.13712478
 35.3499985   -1.12020278
 35.4000015   -1.10264611
 35.4500008   -1.08449423
 35.5   -1.06578338
 35.5499992   -1.0465492
 35.5999985   -1.02683508
 35.6500015   -1.00669289
 35.7000008   -0.986182094
 35.75   -0.965364397
 35.7999992   -0.944295108
 35.8499985   -0.923018456
 35.9000015   -0.901566803
 35.9500008   -0.879964709
 36.   -0.858235836
 36.0499992   -0.83641082
 36.0999985   -0.814530134
 36.1500015   -0.792641759
 36.2000008   -0.770795107
 36.25   -0.749034464
 36.2999992   -0.727396309
 36.3499985   -0.705908537
 36.4000015   -0.684592724
 36.4500008   -0.663469672
 36.5   -0.642559469
 36.5499992   -0.621881843
 36.5999985   -0.601455569
 36.6500015   -0.581297457
 36.7000008   -0.561424375
 36.75   -0.541855335
 36.7999992   -0.522613049
 36.8499985   -0.503723085
 36.9000015   -0.485209703
 36.9500008   -0.467089772
 37.   -0.449369133
 37.0499992   -0.432043701
 37.0999985   -0.415103823
 37.1500015   -0.398543656
 37.2000008   -0.38236627
 37.25   -0.366585463
 37.2999992   -0.351222664
 37.3499985   -0.336297959
 37.4000015   -0.321823418
 37.4500008   -0.307797849
 37.5   -0.294208735
 37.5499992   -0.281037301
 37.5999985   -0.268265724
 37.6500015   -0.255883843
 37.7000008   -0.243889898
 37.75   -0.232289031
 37.7999992   -0.221087843
 37.8499985   -0.210289687
 37.9000015   -0.19989185
 37.9500008   -0.189885154
 38.   -0.180256933
 38.0499992   -0.170993909
 38.0999985   -0.162084505
 38.1500015   -0.153519139
 38.2000008   -0.145288959
 38.25   -0.1373844
 38.2999992   -0.129794523
 38.3499985   -0.122508638
 38.4000015   -0.115517981
 38.4500008   -0.108817093
 38.5   -0.102403156
 38.5499992   -9.627277404E-2
 38.5999985   -9.041844308E-2
 38.6500015   -8.482617885E-2
 38.7000008   -7.947655767E-2
 38.75   -7.434885949E-2
 38.7999992   -6.942682713E-2
 38.8499985   -6.470247358E-2
 38.9000015   -6.017564237E-2
 38.9500008   -5.58495E-2
 39.   -5.172395334E-2
 39.0499992   -4.779070243E-2
 39.0999985   -4.403251037E-2
 39.1500015   -4.042722285E-2
 39.2000008   -3.695449606E-2
 39.25   -3.360117972E-2
 39.2999992   -3.036292456E-2
 39.3499985   -2.724115178E-2
 39.4000015   -2.42375005E-2
 39.4500008   -2.134888619E-2
 39.5   -1.85658671E-2
 39.5499992   -1.587462239E-2
 39.5999985   -1.32609494E-2
 39.6500015   -1.071370486E-2
 39.7000008   -8.225743659E-3
 39.75   -5.792310461E-3
 39.7999992   -3.40840267E-3
 39.8499985   -1.067129779E-3
 39.9000015   1.239859848E-3
 39.9500008   3.52029549E-3
 40.   5.779244006E-3
 40.0499992   8.018743247E-3
 40.0999985   1.023966726E-2
 40.1500015   1.244489104E-2
 40.2000008   1.464183349E-2
 40.25   1.684267074E-2
 40.2999992   1.906182803E-2
 40.3499985   2.131170593E-2
 40.4000015   2.359896153E-2
 40.4500008   2.592308074E-2
 40.5   2.827829309E-2
 40.5499992   3.065786697E-2
 40.5999985   3.305898607E-2
 40.6500015   3.548584506E-2
 40.7000008   3.794956207E-2
 40.75   4.046509042E-2
 40.7999992   4.304634407E-2