   0.00000000       0.00000000    
   2.49999994E-03   0.00000000    
   4.99999989E-03   0.00000000    
   7.49999983E-03   0.00000000    
   9.99999978E-03   0.00000000    
   1.25000002E-02   0.00000000    
   1.49999997E-02   0.00000000    
   1.75000001E-02   0.00000000    
   1.99999996E-02   0.00000000    
   2.25000009E-02   0.00000000    
   2.50000004E-02   0.00000000    
   2.74999999E-02   0.00000000    
   2.99999993E-02   0.00000000    
   3.24999988E-02   0.00000000    
   3.50000001E-02   0.00000000    
   3.75000015E-02  -3.88720194E-42
   3.99999991E-02   4.35131199E-41
   4.25000004E-02  -2.73705820E-40
   4.50000018E-02  -1.63051586E-39
   4.74999994E-02   4.53152178E-39
   5.00000007E-02   2.40924320E-38
   5.24999984E-02  -3.19591142E-38
   5.49999997E-02  -2.23013646E-37
   5.75000010E-02   6.08364816E-38
   5.99999987E-02   1.27867835E-36
   6.25000000E-02   2.13175074E-37
   6.49999976E-02  -5.47340490E-36
   6.75000027E-02   5.62745500E-37
   7.00000003E-02   3.09294834E-35
   7.24999979E-02   3.34668996E-37
   7.50000030E-02  -2.01807079E-34
   7.75000006E-02  -2.29610276E-34
   7.99999982E-02   7.58039986E-34
   8.25000033E-02   2.16861590E-33
   8.50000009E-02  -1.41648325E-36
   8.74999985E-02  -8.40525187E-33
   9.00000036E-02  -1.28344147E-32
   9.25000012E-02   7.96954607E-33
   9.49999988E-02   5.16337245E-32
   9.74999964E-02   5.71239120E-32
  0.100000001      -5.01108305E-32
  0.102499999      -2.23632064E-31
  0.104999997      -2.33519076E-31
  0.107500002       1.37002315E-31
  0.109999999       7.35254601E-31
  0.112499997       9.40890411E-31
  0.115000002       1.05996324E-31
  0.117500000      -1.73520307E-30
  0.119999997      -3.44970390E-30
  0.122500002      -2.99771692E-30
  0.125000000       1.58805469E-30
  0.127499998       1.00089691E-29
  0.129999995       1.66913141E-29
  0.132499993       1.04439525E-29
  0.135000005      -1.76284626E-29
  0.137500003      -5.79961483E-29
  0.140000001      -7.24455641E-29
  0.142499998      -1.23410258E-29
  0.144999996       1.28671127E-28
  0.147499993       2.63461583E-28
  0.150000006       2.28406625E-28
  0.152500004      -9.40991737E-29
  0.155000001      -6.06180817E-28
  0.157499999      -9.30030607E-28
  0.159999996      -5.86933699E-28
  0.162499994       6.03983764E-28
  0.165000007       2.15339440E-27
  0.167500004       2.90629685E-27
  0.170000002       1.62635578E-27
  0.172499999      -2.00858970E-27
  0.174999997      -6.56791261E-27
  0.177499995      -8.91947923E-27
  0.180000007      -5.63558148E-27
  0.182500005       4.51106796E-27
  0.185000002       1.81834349E-26
  0.187500000       2.71208253E-26
  0.189999998       2.13047387E-26
  0.192499995      -4.58320867E-27
  0.194999993      -4.43059876E-26
  0.197500005      -7.76948304E-26
  0.200000003      -7.69632729E-26
  0.202500001      -2.17764776E-26
  0.204999998       8.29445950E-26
  0.207499996       1.96911490E-25
  0.209999993       2.51674510E-25
  0.212500006       1.77943133E-25
  0.215000004      -5.41984050E-26
  0.217500001      -3.97928360E-25
  0.219999999      -7.14498784E-25
  0.222499996      -7.97385780E-25
  0.224999994      -4.45284864E-25
  0.227500007       4.21305021E-25
  0.230000004       1.63009784E-24
  0.232500002       2.67731404E-24
  0.234999999       2.78900511E-24
  0.237499997       1.20404451E-24
  0.239999995      -2.32143088E-24
  0.242500007      -6.94705781E-24
  0.245000005      -1.04622528E-23
  0.247500002      -9.71395746E-24
  0.250000000      -2.02312905E-24
  0.252499998       1.26263743E-23
  0.254999995       2.95688481E-23
  0.257499993       3.91559756E-23
  0.259999990       2.96705859E-23
  0.262499988      -6.21042423E-24
  0.264999986      -6.33107261E-23
  0.267500013      -1.18604656E-22
  0.270000011      -1.34180595E-22
  0.272500008      -7.22052843E-23
  0.275000006       8.00355240E-23
  0.277500004       2.84903313E-22
  0.280000001       4.45334271E-22
  0.282499999       4.28104438E-22
  0.284999996       1.24910659E-22
  0.287499994      -4.63801492E-22
  0.289999992      -1.16043201E-21
  0.292499989      -1.60817502E-21
  0.294999987      -1.37521614E-21
  0.297500014      -1.64184825E-22
  0.300000012       1.93610932E-21
  0.302500010       4.27722493E-21
  0.305000007       5.69450803E-21
  0.307500005       4.85564026E-21
  0.310000002       8.80499431E-22
  0.312500000      -5.96062836E-21
  0.314999998      -1.37911558E-20
  0.317499995      -1.92532734E-20
  0.319999993      -1.84100661E-20
  0.322499990      -8.32939292E-21
  0.324999988       1.10988752E-20
  0.327499986       3.58342784E-20
  0.330000013       5.76161928E-20
  0.332500011       6.56614678E-20
  0.335000008       5.00857182E-20
  0.337500006       6.30297046E-21
  0.340000004      -6.09687558E-20
  0.342500001      -1.35775119E-19
  0.344999999      -1.92542082E-19
  0.347499996      -2.01929328E-19
  0.349999994      -1.40323604E-19
  0.352499992      -8.49684530E-22
  0.354999989       1.97564942E-19
  0.357499987       4.07166086E-19
  0.360000014       5.57865908E-19
  0.362500012       5.74535097E-19
  0.365000010       4.02711718E-19
  0.367500007       3.60341071E-20
  0.370000005      -4.64745275E-19
  0.372500002      -9.71926260E-19
  0.375000000      -1.31716829E-18
  0.377499998      -1.34241673E-18
  0.379999995      -9.62677346E-19
  0.382499993      -2.18022501E-19
  0.384999990       7.10954292E-19
  0.387499988       1.54238703E-18
  0.389999986       1.98639669E-18
  0.392500013       1.86665072E-18
  0.395000011       1.22310958E-18
  0.397500008       3.42525902E-19
  0.400000006      -3.20141515E-19
  0.402500004      -3.27198969E-19
  0.405000001       5.01904244E-19
  0.407499999       1.89078847E-18
  0.409999996       3.05354488E-18
  0.412499994       2.86582596E-18
  0.414999992       2.63683052E-19
  0.417499989      -5.22089892E-18
  0.419999987      -1.29635522E-17
  0.422500014      -2.10042846E-17
  0.425000012      -2.62378365E-17
  0.427500010      -2.51084967E-17
  0.430000007      -1.47185987E-17
  0.432500005       5.90833688E-18
  0.435000002       3.47878218E-17
  0.437500000       6.65586049E-17
  0.439999998       9.29931929E-17
  0.442499995       1.04526619E-16
  0.444999993       9.26145957E-17
  0.447499990       5.24455636E-17
  0.449999988      -1.46818371E-17
  0.452499986      -1.00073131E-16
  0.455000013      -1.88069452E-16
  0.457500011      -2.58476948E-16
  0.460000008      -2.90758909E-16
  0.462500006      -2.69175503E-16
  0.465000004      -1.87581322E-16
  0.467500001      -5.24115202E-17
  0.469999999       1.17348328E-16
  0.472499996       2.93668043E-16
  0.474999994       4.45833833E-16
  0.477499992       5.47939737E-16
  0.479999989       5.85078003E-16
  0.482499987       5.55863148E-16
  0.485000014       4.69930491E-16
  0.487500012       3.40831341E-16
  0.490000010       1.76784471E-16
  0.492500007      -2.67341713E-17
  0.495000005      -2.88306934E-16
  0.497500002      -6.32960352E-16
  0.500000000      -1.07577854E-15
  0.502499998      -1.60068454E-15
  0.504999995      -2.14164509E-15
  0.507499993      -2.57498249E-15
  0.509999990      -2.73004987E-15
  0.512499988      -2.42107808E-15
  0.514999986      -1.49646179E-15
  0.517499983       1.04961041E-16
  0.519999981       2.30575074E-15
  0.522499979       4.86562872E-15
  0.524999976       7.39288493E-15
  0.527499974       9.39501755E-15
  0.529999971       1.03621013E-14
  0.532500029       9.86725028E-15
  0.535000026       7.66294953E-15
  0.537500024       3.75180962E-15
  0.540000021      -1.58445517E-15
  0.542500019      -7.80503253E-15
  0.545000017      -1.41754343E-14
  0.547500014      -1.98653773E-14
  0.550000012      -2.40600911E-14
  0.552500010      -2.60647115E-14
  0.555000007      -2.53844526E-14
  0.557500005      -2.17704069E-14
  0.560000002      -1.52297523E-14
  0.562500000      -6.00841678E-15
  0.564999998       5.43888072E-15
  0.567499995       1.84737920E-14
  0.569999993       3.22808186E-14
  0.572499990       4.58512961E-14
  0.574999988       5.79564066E-14
  0.577499986       6.71366310E-14
  0.579999983       7.17454186E-14
  0.582499981       7.00841227E-14
  0.584999979       6.06470576E-14
  0.587499976       4.24620191E-14
  0.589999974       1.54694508E-14
  0.592499971      -1.91544676E-14
  0.595000029      -5.88430604E-14
  0.597500026      -9.97492426E-14
  0.600000024      -1.37165141E-13
  0.602500021      -1.66217992E-13
  0.605000019      -1.82724224E-13
  0.607500017      -1.84022285E-13
  0.610000014      -1.69587204E-13
  0.612500012      -1.41268399E-13
  0.615000010      -1.03079478E-13
  0.617500007      -6.05776415E-14
  0.620000005      -1.99680767E-14
  0.622500002       1.28730865E-14
  0.625000000       3.32641189E-14
  0.627499998       3.83308565E-14
  0.629999995       2.73047830E-14
  0.632499993       1.52177209E-15
  0.634999990      -3.58184551E-14
  0.637499988      -8.00725046E-14
  0.639999986      -1.25723311E-13
  0.642499983      -1.67117283E-13
  0.644999981      -1.99421290E-13
  0.647499979      -2.19856536E-13
  0.649999976      -2.29243165E-13
  0.652499974      -2.33818363E-13
  0.654999971      -2.47214738E-13
  0.657500029      -2.92379727E-13
  0.660000026      -4.03101001E-13
  0.662500024      -6.24693710E-13
  0.665000021      -1.01327757E-12
  0.667500019      -1.63304092E-12
  0.670000017      -2.55094036E-12
  0.672500014      -3.82835170E-12
  0.675000012      -5.50951472E-12
  0.677500010      -7.60698796E-12
  0.680000007      -1.00847629E-11
  0.682500005      -1.28400034E-11
  0.685000002      -1.56849325E-11
  0.687500000      -1.83301846E-11
  0.689999998      -2.03717026E-11
  0.692499995      -2.12825244E-11
  0.694999993      -2.04108518E-11
  0.697499990      -1.69855831E-11
  0.699999988      -1.01300322E-11
  0.702499986       1.11458932E-12
  0.704999983       1.77569192E-11
  0.707499981       4.08127351E-11
  0.709999979       7.12531423E-11
  0.712499976       1.09945254E-10
  0.714999974       1.57589289E-10
  0.717499971       2.14659790E-10
  0.720000029       2.81358464E-10
  0.722500026       3.57593039E-10
  0.725000024       4.42988785E-10
  0.727500021       5.36952871E-10
  0.730000019       6.38795461E-10
  0.732500017       7.47928719E-10
  0.735000014       8.64153193E-10
  0.737500012       9.88043980E-10
  0.740000010       1.12145659E-09
  0.742500007       1.26812871E-09
  0.745000005       1.43439094E-09
  0.747500002       1.62996017E-09
  0.750000000       1.86879490E-09
  0.752499998       2.16996887E-09
  0.754999995       2.55855270E-09
  0.757499993       3.06645642E-09
  0.759999990       3.73312714E-09
  0.762499988       4.60606353E-09
  0.764999986       5.74106540E-09
  0.767499983       7.20209226E-09
  0.769999981       9.06073172E-09
  0.772499979       1.13951266E-08
  0.774999976       1.42885757E-08
  0.777499974       1.78273716E-08
  0.779999971       2.20982361E-08
  0.782500029       2.71851519E-08
  0.785000026       3.31656977E-08
  0.787500024       4.01070288E-08
  0.790000021       4.80617466E-08
  0.792500019       5.70640992E-08
  0.795000017       6.71262654E-08
  0.797500014       7.82353524E-08
  0.800000012       9.03514277E-08
  0.802500010       1.03406457E-07
  0.805000007       1.17305305E-07
  0.807500005       1.31929511E-07
  0.810000002       1.47142600E-07
  0.812500000       1.62799893E-07
  0.814999998       1.78760303E-07
  0.817499995       1.94902029E-07
  0.819999993       2.11141256E-07
  0.822499990       2.27454123E-07
  0.824999988       2.43903003E-07
  0.827499986       2.60664279E-07
  0.829999983       2.78059190E-07
  0.832499981       2.96587842E-07
  0.834999979       3.16963053E-07
  0.837499976       3.40144140E-07
  0.839999974       3.67369836E-07
  0.842499971       4.00187787E-07
  0.845000029       4.40481045E-07
  0.847500026       4.90495040E-07
  0.850000024       5.52849428E-07
  0.852500021       6.30542672E-07
  0.855000019       7.26957637E-07
  0.857500017       8.45857073E-07
  0.860000014       9.91364914E-07
  0.862500012       1.16795059E-06
  0.865000010       1.38039411E-06
  0.867500007       1.63373318E-06
  0.870000005       1.93322694E-06
  0.872500002       2.28428530E-06
  0.875000000       2.69244447E-06
  0.877499998       3.16331057E-06
  0.879999995       3.70250791E-06
  0.882499993       4.31560011E-06
  0.884999990       5.00804754E-06
  0.887499988       5.78519393E-06
  0.889999986       6.65220023E-06
  0.892499983       7.61405181E-06
  0.894999981       8.67556810E-06
  0.897499979       9.84141843E-06
  0.899999976       1.11160871E-05
  0.902499974       1.25039423E-05
  0.904999971       1.40092325E-05
  0.907500029       1.56360911E-05
  0.910000026       1.73886965E-05
  0.912500024       1.92712723E-05
  0.915000021       2.12880786E-05
  0.917500019       2.34435392E-05
  0.920000017       2.57421761E-05
  0.922500014       2.81886460E-05
  0.925000012       3.07876326E-05
  0.927500010       3.35439618E-05
  0.930000007       3.64625193E-05
  0.932500005       3.95482275E-05
  0.935000002       4.28057465E-05
  0.937500000       4.62396492E-05
  0.939999998       4.98541085E-05
  0.942499995       5.36529769E-05
  0.944999993       5.76395032E-05
  0.947499990       6.18161939E-05
  0.949999988       6.61848972E-05
  0.952499986       7.07466170E-05
  0.954999983       7.55015062E-05
  0.957499981       8.04485826E-05
  0.959999979       8.55861072E-05
  0.962499976       9.09113660E-05
  0.964999974       9.64208666E-05
  0.967499971       1.02110367E-04
  0.970000029       1.07975058E-04
  0.972500026       1.14009665E-04
  0.975000024       1.20208671E-04
  0.977500021       1.26566592E-04
  0.980000019       1.33077934E-04
  0.982500017       1.39737327E-04
  0.985000014       1.46539809E-04
  0.987500012       1.53480709E-04
  0.990000010       1.60556490E-04
  0.992500007       1.67764068E-04
  0.995000005       1.75100111E-04
  0.997500002       1.82562027E-04
   1.00000000       1.90147286E-04
   1.00250006       1.97853456E-04
   1.00500000       2.05677643E-04
   1.00750005       2.13616964E-04
   1.00999999       2.21666720E-04
   1.01250005       2.29820536E-04
   1.01499999       2.38070046E-04
   1.01750004       2.46404292E-04
   1.01999998       2.54811021E-04
   1.02250004       2.63274269E-04
   1.02499998       2.71775993E-04
   1.02750003       2.80295149E-04
   1.02999997       2.88806536E-04
   1.03250003       2.97281862E-04
   1.03499997       3.05688765E-04
   1.03750002       3.13993572E-04
   1.03999996       3.22160224E-04
   1.04250002       3.30152165E-04
   1.04499996       3.37931211E-04
   1.04750001       3.45459266E-04
   1.04999995       3.52697738E-04
   1.05250001       3.59610043E-04
   1.05499995       3.66160530E-04
   1.05750000       3.72315204E-04
   1.05999994       3.78044671E-04
   1.06250000       3.83323844E-04
   1.06500006       3.88131739E-04
   1.06750000       3.92451184E-04
   1.07000005       3.96270945E-04
   1.07249999       3.99583136E-04
   1.07500005       4.02386155E-04
   1.07749999       4.04683204E-04
   1.08000004       4.06481704E-04
   1.08249998       4.07793152E-04
   1.08500004       4.08633641E-04
   1.08749998       4.09022177E-04
   1.09000003       4.08978201E-04
   1.09249997       4.08525259E-04
   1.09500003       4.07686835E-04
   1.09749997       4.06488340E-04
   1.10000002       4.04954830E-04
   1.10249996       4.03111131E-04
   1.10500002       4.00982564E-04
   1.10749996       3.98590782E-04
   1.11000001       3.95957089E-04
   1.11249995       3.93100665E-04
   1.11500001       3.90039029E-04
   1.11749995       3.86788044E-04
   1.12000000       3.83361767E-04
   1.12249994       3.79774167E-04
   1.12500000       3.76034877E-04
   1.12750006       3.72155453E-04
   1.13000000       3.68143810E-04
   1.13250005       3.64008825E-04
   1.13499999       3.59756115E-04
   1.13750005       3.55394062E-04
   1.13999999       3.50927847E-04
   1.14250004       3.46362242E-04
   1.14499998       3.41705483E-04
   1.14750004       3.36963742E-04
   1.14999998       3.32146010E-04
   1.15250003       3.27257614E-04
   1.15499997       3.22305335E-04
   1.15750003       3.17295780E-04
   1.15999997       3.12235934E-04
   1.16250002       3.07134207E-04
   1.16499996       3.01996130E-04
   1.16750002       2.96829559E-04
   1.16999996       2.91641889E-04
   1.17250001       2.86441355E-04
   1.17499995       2.81232322E-04
   1.17750001       2.76021427E-04
   1.17999995       2.70813820E-04
   1.18250000       2.65613984E-04
   1.18499994       2.60428758E-04
   1.18750000       2.55262101E-04
   1.19000006       2.50117824E-04
   1.19250000       2.45000352E-04
   1.19500005       2.39910820E-04
   1.19749999       2.34852938E-04
   1.20000005       2.29831800E-04
   1.20249999       2.24849719E-04
   1.20500004       2.19909183E-04
   1.20749998       2.15013060E-04
   1.21000004       2.10162427E-04
   1.21249998       2.05358927E-04
   1.21500003       2.00605136E-04
   1.21749997       1.95902481E-04
   1.22000003       1.91253930E-04
   1.22249997       1.86663732E-04
   1.22500002       1.82135045E-04
   1.22749996       1.77671114E-04
   1.23000002       1.73274937E-04
   1.23249996       1.68949424E-04
   1.23500001       1.64697136E-04
   1.23749995       1.60522119E-04
   1.24000001       1.56429698E-04
   1.24249995       1.52424051E-04
   1.24500000       1.48509600E-04
   1.24749994       1.44690901E-04
   1.25000000       1.40971519E-04
   1.25250006       1.37353243E-04
   1.25500000       1.33838548E-04
   1.25750005       1.30429762E-04
   1.25999999       1.27129795E-04
   1.26250005       1.23940583E-04
   1.26499999       1.20863617E-04
   1.26750004       1.17898126E-04
   1.26999998       1.15041963E-04
   1.27250004       1.12292546E-04
   1.27499998       1.09647808E-04
   1.27750003       1.07105712E-04
   1.27999997       1.04663406E-04
   1.28250003       1.02317608E-04
   1.28499997       1.00065969E-04
   1.28750002       9.79043689E-05
   1.28999996       9.58277669E-05
   1.29250002       9.38309749E-05
   1.29499996       9.19105150E-05
   1.29750001       9.00638042E-05
   1.29999995       8.82883032E-05
   1.30250001       8.65829788E-05
   1.30499995       8.49454154E-05
   1.30750000       8.33746744E-05
   1.30999994       8.18676563E-05
   1.31250000       8.04218507E-05
   1.31500006       7.90357808E-05
   1.31750000       7.77080713E-05
   1.32000005       7.64392389E-05
   1.32249999       7.52284468E-05
   1.32500005       7.40741307E-05
   1.32749999       7.29742605E-05
   1.33000004       7.19249001E-05
   1.33249998       7.09221349E-05
   1.33500004       6.99629672E-05
   1.33749998       6.90432498E-05
   1.34000003       6.81602323E-05
   1.34249997       6.73103932E-05
   1.34500003       6.64903564E-05
   1.34749997       6.56952834E-05
   1.35000002       6.49215872E-05
   1.35249996       6.41642910E-05
   1.35500002       6.34199896E-05
   1.35749996       6.26850742E-05
   1.36000001       6.19573329E-05
   1.36249995       6.12366857E-05
   1.36500001       6.05219793E-05
   1.36749995       5.98140759E-05
   1.37000000       5.91125608E-05
   1.37249994       5.84180707E-05
   1.37500000       5.77316459E-05
   1.37750006       5.70545672E-05
   1.38000000       5.63891444E-05
   1.38250005       5.57375424E-05
   1.38499999       5.51035046E-05
   1.38750005       5.44884060E-05
   1.38999999       5.38949462E-05
   1.39250004       5.33241619E-05
   1.39499998       5.27759403E-05
   1.39750004       5.22501396E-05
   1.39999998       5.17478438E-05
   1.40250003       5.12693769E-05
   1.40499997       5.08138182E-05
   1.40750003       5.03806805E-05
   1.40999997       4.99672278E-05
   1.41250002       4.95710374E-05
   1.41499996       4.91885585E-05
   1.41750002       4.88176629E-05
   1.41999996       4.84570373E-05
   1.42250001       4.81056086E-05
   1.42499995       4.77627327E-05
   1.42750001       4.74259505E-05
   1.42999995       4.70937266E-05
   1.43250000       4.67648606E-05
   1.43499994       4.64398072E-05
   1.43750000       4.61182317E-05
   1.44000006       4.58012109E-05
   1.44250000       4.54904293E-05
   1.44500005       4.51871601E-05
   1.44749999       4.48929677E-05
   1.45000005       4.46093909E-05
   1.45249999       4.43379868E-05
   1.45500004       4.40790318E-05
   1.45749998       4.38344578E-05
   1.46000004       4.36060982E-05
   1.46249998       4.33948517E-05
   1.46500003       4.32017223E-05
   1.46749997       4.30269829E-05
   1.47000003       4.28714411E-05
   1.47249997       4.27342093E-05
   1.47500002       4.26150254E-05
   1.47749996       4.25131002E-05
   1.48000002       4.24273530E-05
   1.48249996       4.23569618E-05
   1.48500001       4.23009187E-05
   1.48749995       4.22582161E-05
   1.49000001       4.22282828E-05
   1.49249995       4.22100929E-05
   1.49500000       4.22011253E-05
   1.49749994       4.22011253E-05
   1.50000000       4.22094927E-05
   1.50250006       4.22253324E-05
   1.50500000       4.22497687E-05
   1.50750005       4.22823505E-05
   1.50999999       4.23232996E-05
   1.51250005       4.23722959E-05
   1.51499999       4.24287718E-05
   1.51750004       4.24931313E-05
   1.51999998       4.25654434E-05
   1.52250004       4.26471379E-05
   1.52499998       4.27374034E-05
   1.52750003       4.28378335E-05
   1.52999997       4.29480351E-05
   1.53250003       4.30673681E-05
   1.53499997       4.31951121E-05
   1.53750002       4.33304740E-05
   1.53999996       4.34720023E-05
   1.54250002       4.36187802E-05
   1.54499996       4.37706803E-05
   1.54750001       4.39266478E-05
   1.54999995       4.40852345E-05
   1.55250001       4.42454257E-05
   1.55499995       4.44055040E-05
   1.55750000       4.45636215E-05
   1.55999994       4.47182283E-05
   1.56250000       4.48688152E-05
   1.56500006       4.50145271E-05
   1.56750000       4.51554770E-05
   1.57000005       4.52913082E-05
   1.57249999       4.54217588E-05
   1.57500005       4.55468871E-05
   1.57749999       4.56662201E-05
   1.58000004       4.57799179E-05
   1.58249998       4.58887116E-05
   1.58500004       4.59928415E-05
   1.58749998       4.60931988E-05
   1.59000003       4.61899290E-05
   1.59249997       4.62833923E-05
   1.59500003       4.63737888E-05
   1.59749997       4.64614786E-05
   1.60000002       4.65463854E-05
   1.60249996       4.66284146E-05
   1.60500002       4.67077916E-05
   1.60749996       4.67842510E-05
   1.61000001       4.68565668E-05
   1.61249995       4.69240258E-05
   1.61500001       4.69848710E-05
   1.61749995       4.70382402E-05
   1.62000000       4.70830382E-05
   1.62249994       4.71196145E-05
   1.62500000       4.71480671E-05
   1.62750006       4.71679050E-05
   1.63000000       4.71787243E-05
   1.63250005       4.71795829E-05
   1.63499999       4.71698331E-05
   1.63750005       4.71481617E-05
   1.63999999       4.71147578E-05
   1.64250004       4.70701707E-05
   1.64499998       4.70153354E-05
   1.64750004       4.69520091E-05
   1.64999998       4.68807229E-05
   1.65250003       4.68027465E-05
   1.65499997       4.67184182E-05
   1.65750003       4.66281890E-05
   1.65999997       4.65323938E-05
   1.66250002       4.64311779E-05
   1.66499996       4.63251090E-05
   1.66750002       4.62152057E-05
   1.66999996       4.61019772E-05
   1.67250001       4.59863986E-05
   1.67499995       4.58689283E-05
   1.67750001       4.57494098E-05
   1.67999995       4.56270463E-05
   1.68250000       4.55017725E-05
   1.68499994       4.53731518E-05
   1.68750000       4.52405875E-05
   1.69000006       4.51035448E-05
   1.69250000       4.49617000E-05
   1.69500005       4.48141727E-05
   1.69749999       4.46604463E-05
   1.70000005       4.45008918E-05
   1.70249999       4.43351673E-05
   1.70500004       4.41638804E-05
   1.70749998       4.39871947E-05
   1.71000004       4.38054230E-05
   1.71249998       4.36182600E-05
   1.71500003       4.34260292E-05
   1.71749997       4.32284214E-05
   1.72000003       4.30263099E-05
   1.72249997       4.28204585E-05
   1.72500002       4.26122788E-05
   1.72749996       4.24027494E-05
   1.73000002       4.21925506E-05
   1.73249996       4.19819553E-05
   1.73500001       4.17706542E-05
   1.73749995       4.15586765E-05
   1.74000001       4.13453927E-05
   1.74249995       4.11315887E-05
   1.74500000       4.09177446E-05
   1.74749994       4.07043117E-05
   1.75000000       4.04911007E-05
   1.75250006       4.02777114E-05
   1.75500000       4.00630815E-05
   1.75750005       3.98468110E-05
   1.75999999       3.96289033E-05
   1.76250005       3.94091840E-05
   1.76499999       3.91876056E-05
   1.76750004       3.89644229E-05
   1.76999998       3.87392683E-05
   1.77250004       3.85123858E-05
   1.77499998       3.82837825E-05
   1.77750003       3.80536330E-05
   1.77999997       3.78224868E-05
   1.78250003       3.75904965E-05
   1.78499997       3.73579423E-05
   1.78750002       3.71254828E-05
   1.78999996       3.68936016E-05
   1.79250002       3.66628010E-05
   1.79499996       3.64331900E-05
   1.79750001       3.62048777E-05
   1.79999995       3.59779842E-05
   1.80250001       3.57527715E-05
   1.80499995       3.55299235E-05
   1.80750000       3.53101968E-05
   1.80999994       3.50940645E-05
   1.81250000       3.48813701E-05
   1.81500006       3.46712259E-05
   1.81750000       3.44625405E-05
   1.82000005       3.42547355E-05
   1.82249999       3.40477782E-05
   1.82500005       3.38423852E-05
   1.82749999       3.36395024E-05
   1.83000004       3.34396391E-05
   1.83249998       3.32426462E-05
   1.83500004       3.30475013E-05
   1.83749998       3.28527494E-05
   1.84000003       3.26578520E-05
   1.84249997       3.24627254E-05
   1.84500003       3.22679844E-05
   1.84749997       3.20741747E-05
   1.85000002       3.18814346E-05
   1.85249996       3.16895130E-05
   1.85500002       3.14976751E-05
   1.85749996       3.13055389E-05
   1.86000001       3.11129916E-05
   1.86249995       3.09200732E-05
   1.86500001       3.07271148E-05
   1.86749995       3.05341746E-05
   1.87000000       3.03414417E-05
   1.87249994       3.01487071E-05
   1.87500000       2.99557596E-05
   1.87750006       2.97623992E-05
   1.88000000       2.95689606E-05
   1.88250005       2.93756893E-05
   1.88499999       2.91826764E-05
   1.88750005       2.89902418E-05
   1.88999999       2.87988660E-05
   1.89250004       2.86086306E-05
   1.89499998       2.84199177E-05
   1.89750004       2.82325964E-05
   1.89999998       2.80464683E-05
   1.90250003       2.78614116E-05
   1.90499997       2.76774299E-05
   1.90750003       2.74949325E-05
   1.90999997       2.73146688E-05
   1.91250002       2.71375538E-05
   1.91499996       2.69641678E-05
   1.91750002       2.67946980E-05
   1.91999996       2.66291681E-05
   1.92250001       2.64672999E-05
   1.92499995       2.63090005E-05
   1.92750001       2.61545483E-05
   1.92999995       2.60046199E-05
   1.93250000       2.58596683E-05
   1.93499994       2.57197862E-05
   1.93750000       2.55848208E-05
   1.94000006       2.54542210E-05
   1.94250000       2.53274793E-05
   1.94500005       2.52043610E-05
   1.94749999       2.50848207E-05
   1.95000005       2.49687582E-05
   1.95249999       2.48559791E-05
   1.95500004       2.47461885E-05
   1.95749998       2.46389391E-05
   1.96000004       2.45338269E-05
   1.96249998       2.44307157E-05
   1.96500003       2.43294780E-05
   1.96749997       2.42301685E-05
   1.97000003       2.41327416E-05
   1.97249997       2.40371955E-05
   1.97500002       2.39437068E-05
   1.97749996       2.38527482E-05
   1.98000002       2.37650074E-05
   1.98249996       2.36810865E-05
   1.98500001       2.36011692E-05
   1.98749995       2.35250191E-05
   1.99000001       2.34520467E-05
   1.99249995       2.33818864E-05
   1.99500000       2.33146930E-05
   1.99749994       2.32512066E-05
   2.00000000       2.31923314E-05
   2.00250006       2.31385402E-05
   2.00500011       2.30894111E-05
   2.00749993       2.30437327E-05
   2.00999999       2.30000333E-05
   2.01250005       2.29573070E-05
   2.01500010       2.29153902E-05
   2.01749992       2.28748522E-05
   2.01999998       2.28364370E-05
   2.02250004       2.28003755E-05
   2.02500010       2.27661239E-05
   2.02749991       2.27326782E-05
   2.02999997       2.26991524E-05
   2.03250003       2.26653447E-05
   2.03500009       2.26318843E-05
   2.03749990       2.25998356E-05
   2.03999996       2.25701606E-05
   2.04250002       2.25432887E-05
   2.04500008       2.25190652E-05
   2.04749990       2.24972082E-05
   2.04999995       2.24778760E-05
   2.05250001       2.24618234E-05
   2.05500007       2.24503001E-05
   2.05749989       2.24446176E-05
   2.05999994       2.24456326E-05
   2.06250000       2.24534833E-05
   2.06500006       2.24677733E-05
   2.06750011       2.24879150E-05
   2.06999993       2.25134791E-05
   2.07249999       2.25445783E-05
   2.07500005       2.25817730E-05
   2.07750010       2.26258380E-05
   2.07999992       2.26772154E-05
   2.08249998       2.27358905E-05
   2.08500004       2.28010686E-05
   2.08750010       2.28714362E-05
   2.08999991       2.29454708E-05
   2.09249997       2.30219957E-05
   2.09500003       2.31005270E-05
   2.09750009       2.31813701E-05
   2.09999990       2.32654529E-05
   2.10249996       2.33536230E-05
   2.10500002       2.34462605E-05
   2.10750008       2.35428597E-05
   2.10999990       2.36423275E-05
   2.11249995       2.37434579E-05
   2.11500001       2.38457560E-05
   2.11750007       2.39496931E-05
   2.11999989       2.40564368E-05
   2.12249994       2.41671951E-05
   2.12500000       2.42827136E-05
   2.12750006       2.44030016E-05
   2.13000011       2.45275860E-05
   2.13249993       2.46562013E-05
   2.13499999       2.47889366E-05
   2.13750005       2.49263212E-05
   2.14000010       2.50687808E-05