   0.00000000       0.00000000    
   2.49999994E-03   0.00000000    
   4.99999989E-03   0.00000000    
   7.49999983E-03   0.00000000    
   9.99999978E-03   0.00000000    
   1.25000002E-02   0.00000000    
   1.49999997E-02   0.00000000    
   1.75000001E-02   0.00000000    
   1.99999996E-02   0.00000000    
   2.25000009E-02   0.00000000    
   2.50000004E-02  -6.19136711E-27
   2.74999999E-02   9.43917124E-26
   2.99999993E-02  -8.12092957E-25
   3.24999988E-02   4.81669348E-25
   3.50000001E-02   1.05366857E-23
   3.75000015E-02  -1.46281791E-23
   3.99999991E-02  -7.58482061E-23
   4.25000004E-02   1.14622663E-22
   4.50000018E-02   3.77204558E-22
   4.74999994E-02  -5.97476333E-22
   5.00000007E-02  -1.41454731E-21
   5.24999984E-02   2.79667746E-21
   5.49999997E-02   4.85387160E-21
   5.75000010E-02  -1.23751228E-20
   5.99999987E-02  -2.02933334E-20
   6.25000000E-02   4.35464871E-20
   6.49999976E-02   9.37460073E-20
   6.75000027E-02  -9.26346773E-20
   7.00000003E-02  -3.52450104E-19
   7.24999979E-02  -2.47606702E-22
   7.50000030E-02   9.13827472E-19
   7.75000006E-02   7.53419883E-19
   7.99999982E-02  -1.36192672E-18
   8.25000033E-02  -2.68706541E-18
   8.50000009E-02   1.73579005E-19
   8.74999985E-02   4.66457818E-18
   9.00000036E-02   3.77134430E-18
   9.25000012E-02  -3.07381970E-18
   9.49999988E-02  -6.86985782E-18
   9.74999964E-02  -2.40459791E-18
  0.100000001       2.47568788E-18
  0.102499999       6.49830194E-19
  0.104999997       1.29511172E-18
  0.107500002       1.45599752E-17
  0.109999999       2.33837970E-17
  0.112499997      -3.84264148E-18
  0.115000002      -5.98073950E-17
  0.117500000      -7.97405750E-17
  0.119999997      -6.37385924E-18
  0.122500002       1.25261350E-16
  0.125000000       1.91395763E-16
  0.127499998       8.86352614E-17
  0.129999995      -1.50978395E-16
  0.132499993      -3.52770482E-16
  0.135000005      -3.23409594E-16
  0.137500003      -1.56249471E-17
  0.140000001       4.07528330E-16
  0.142499998       6.74468407E-16
  0.144999996       5.79149778E-16
  0.147499993       7.67857800E-17
  0.150000006      -7.07235665E-16
  0.152500004      -1.44455011E-15
  0.155000001      -1.58586252E-15
  0.157499999      -5.99201589E-16
  0.159999996       1.48235890E-15
  0.162499994       3.63967305E-15
  0.165000007       4.15715935E-15
  0.167500004       1.71290962E-15
  0.170000002      -3.33012867E-15
  0.172499999      -8.37275297E-15
  0.174999997      -9.53915715E-15
  0.177499995      -4.15123182E-15
  0.180000007       6.59017637E-15
  0.182500005       1.69561817E-14
  0.185000002       1.94475986E-14
  0.187500000       9.72006475E-15
  0.189999998      -9.65074358E-15
  0.192499995      -2.93042398E-14
  0.194999993      -3.72467085E-14
  0.197500005      -2.49875329E-14
  0.200000003       6.89631568E-15
  0.202500001       4.62199249E-14
  0.204999998       7.20019747E-14
  0.207499996       6.35653029E-14
  0.209999993       1.32421667E-14
  0.212500006      -6.40708325E-14
  0.215000004      -1.32179356E-13
  0.217500001      -1.48850360E-13
  0.219999999      -8.95840273E-14
  0.222499996       3.34774966E-14
  0.224999994       1.71540855E-13
  0.227500007       2.62095006E-13
  0.230000004       2.62732409E-13
  0.232500002       1.73420184E-13
  0.234999999       3.05406809E-14
  0.237499997      -1.23421130E-13
  0.239999995      -2.70204405E-13
  0.242500007      -4.19197446E-13
  0.245000005      -5.77325297E-13
  0.247500002      -7.07512228E-13
  0.250000000      -7.11813150E-13
  0.252499998      -4.62253879E-13
  0.254999995       1.28306260E-13
  0.257499993       1.02909586E-12
  0.259999990       2.04769405E-12
  0.262499988       2.84651339E-12
  0.264999986       3.02788285E-12
  0.267500013       2.27837259E-12
  0.270000011       5.39448206E-13
  0.272500008      -1.86341242E-12
  0.275000006      -4.22941326E-12
  0.277500004      -5.70379247E-12
  0.280000001      -5.68382667E-12
  0.282499999      -4.22859490E-12
  0.284999996      -2.19378465E-12
  0.287499994      -8.84809370E-13
  0.289999992      -1.28225349E-12
  0.292499989      -3.21174879E-12
  0.294999987      -4.98620459E-12
  0.297500014      -3.88871877E-12
  0.300000012       2.56687358E-12
  0.302500010       1.51260254E-11
  0.305000007       3.17791418E-11
  0.307500005       4.78199945E-11
  0.310000002       5.70961368E-11
  0.312500000       5.40687460E-11
  0.314999998       3.59795388E-11
  0.317499995       4.37070562E-12
  0.319999993      -3.46223952E-11
  0.322499990      -7.14562159E-11
  0.324999988      -9.56500018E-11
  0.327499986      -9.88527246E-11
  0.330000013      -7.74259684E-11
  0.332500011      -3.34405108E-11
  0.335000008       2.64869585E-11
  0.337500006       9.41231329E-11
  0.340000004       1.62988720E-10
  0.342500001       2.30540170E-10
  0.344999999       2.98145370E-10
  0.347499996       3.69076991E-10
  0.349999994       4.45844417E-10
  0.352499992       5.28406430E-10
  0.354999989       6.13989193E-10
  0.357499987       6.97946256E-10
  0.360000014       7.74268705E-10
  0.362500012       8.34568414E-10
  0.365000010       8.65441385E-10
  0.367500007       8.45314541E-10
  0.370000005       7.42244433E-10
  0.372500002       5.13480036E-10
  0.375000000       1.06357159E-10
  0.377499998      -5.41105272E-10
  0.379999995      -1.50177071E-09
  0.382499993      -2.86477397E-09
  0.384999990      -4.74558259E-09
  0.387499988      -7.30087812E-09
  0.389999986      -1.07478995E-08
  0.392500013      -1.53870303E-08
  0.395000011      -2.16260059E-08
  0.397500008      -3.00038039E-08
  0.400000006      -4.12146619E-08
  0.402500004      -5.61343896E-08
  0.405000001      -7.58547429E-08
  0.407499999      -1.01733377E-07
  0.409999996      -1.35463907E-07
  0.412499994      -1.79169191E-07
  0.414999992      -2.35512871E-07
  0.417499989      -3.07826838E-07
  0.419999987      -4.00249462E-07
  0.422500014      -5.17874128E-07
  0.425000012      -6.66911433E-07
  0.427500010      -8.54868460E-07
  0.430000007      -1.09075211E-06
  0.432500005      -1.38529697E-06
  0.435000002      -1.75121420E-06
  0.437500000      -2.20346124E-06
  0.439999998      -2.75952038E-06
  0.442499995      -3.43966849E-06
  0.444999993      -4.26723682E-06
  0.447499990      -5.26882332E-06
  0.449999988      -6.47446223E-06
  0.452499986      -7.91773164E-06
  0.455000013      -9.63580351E-06
  0.457500011      -1.16694100E-05
  0.460000008      -1.40627526E-05
  0.462500006      -1.68633142E-05
  0.465000004      -2.01215771E-05
  0.467500001      -2.38906214E-05
  0.469999999      -2.82255569E-05
  0.472499996      -3.31828305E-05
  0.474999994      -3.88193948E-05
  0.477499992      -4.51917876E-05
  0.479999989      -5.23550516E-05
  0.482499987      -6.03616827E-05
  0.485000014      -6.92603790E-05
  0.487500012      -7.90949634E-05
  0.490000010      -8.99031293E-05
  0.492500007      -1.01715348E-04
  0.495000005      -1.14553841E-04
  0.497500002      -1.28431479E-04
  0.500000000      -1.43351121E-04
  0.502499998      -1.59305186E-04
  0.504999995      -1.76274611E-04
  0.507499993      -1.94229448E-04
  0.509999990      -2.13128471E-04
  0.512499988      -2.32919658E-04
  0.514999986      -2.53540988E-04
  0.517499983      -2.74920370E-04
  0.519999981      -2.96978164E-04
  0.522499979      -3.19626793E-04
  0.524999976      -3.42773797E-04
  0.527499974      -3.66321969E-04
  0.529999971      -3.90171714E-04
  0.532500029      -4.14221577E-04
  0.535000026      -4.38370247E-04
  0.537500024      -4.62517230E-04
  0.540000021      -4.86563658E-04
  0.542500019      -5.10412327E-04
  0.545000017      -5.33968909E-04
  0.547500014      -5.57140505E-04
  0.550000012      -5.79836546E-04
  0.552500010      -6.01968204E-04
  0.555000007      -6.23443979E-04
  0.557500005      -6.44171378E-04
  0.560000002      -6.64051506E-04
  0.562500000      -6.82978658E-04
  0.564999998      -7.00837176E-04
  0.567499995      -7.17499643E-04
  0.569999993      -7.32826011E-04
  0.572499990      -7.46655860E-04
  0.574999988      -7.58813054E-04
  0.577499986      -7.69099977E-04
  0.579999983      -7.77298701E-04
  0.582499981      -7.83169118E-04
  0.584999979      -7.86451972E-04
  0.587499976      -7.86869088E-04
  0.589999974      -7.84127158E-04
  0.592499971      -7.77920650E-04
  0.595000029      -7.67941820E-04
  0.597500026      -7.53879722E-04
  0.600000024      -7.35434296E-04
  0.602500021      -7.12320267E-04
  0.605000019      -6.84274710E-04
  0.607500017      -6.51069451E-04
  0.610000014      -6.12516131E-04
  0.612500012      -5.68485993E-04
  0.615000010      -5.18912624E-04
  0.617500007      -4.63800621E-04
  0.620000005      -4.03234706E-04
  0.622500002      -3.37380567E-04
  0.625000000      -2.66495888E-04
  0.627499998      -1.90921070E-04
  0.629999995      -1.11094996E-04
  0.632499993      -2.75421498E-05
  0.634999990       5.91246462E-05
  0.637499988       1.48217863E-04
  0.639999986       2.38978886E-04
  0.642499983       3.30602576E-04
  0.644999981       4.22245153E-04
  0.647499979       5.13035629E-04
  0.649999976       6.02095737E-04
  0.652499974       6.88553962E-04
  0.654999971       7.71566120E-04
  0.657500029       8.50331155E-04
  0.660000026       9.24116001E-04
  0.662500024       9.92264948E-04
  0.665000021       1.05421350E-03
  0.667500019       1.10949401E-03
  0.670000017       1.15774723E-03
  0.672500014       1.19872368E-03
  0.675000012       1.23229227E-03
  0.677500010       1.25843647E-03
  0.680000007       1.27725373E-03
  0.682500005       1.28894404E-03
  0.685000002       1.29380147E-03
  0.687500000       1.29219994E-03
  0.689999998       1.28458475E-03
  0.692499995       1.27145741E-03
  0.694999993       1.25336414E-03
  0.697499990       1.23087782E-03
  0.699999988       1.20458659E-03
  0.702499986       1.17507635E-03
  0.704999983       1.14291615E-03
  0.707499981       1.10865571E-03
  0.709999979       1.07281108E-03
  0.712499976       1.03586423E-03
  0.714999974       9.98252421E-04
  0.717499971       9.60364006E-04
  0.720000029       9.22536186E-04
  0.722500026       8.85048590E-04
  0.725000024       8.48138006E-04
  0.727500021       8.12000770E-04
  0.730000019       7.76793750E-04
  0.732500017       7.42639357E-04
  0.735000014       7.09623098E-04
  0.737500012       6.77801960E-04
  0.740000010       6.47201901E-04
  0.742500007       6.17830316E-04
  0.745000005       5.89685398E-04
  0.747500002       5.62753819E-04
  0.750000000       5.37018175E-04
  0.752499998       5.12461585E-04
  0.754999995       4.89056052E-04
  0.757499993       4.66766214E-04
  0.759999990       4.45555866E-04
  0.762499988       4.25387232E-04
  0.764999986       4.06230305E-04
  0.767499983       3.88058252E-04
  0.769999981       3.70848749E-04
  0.772499979       3.54562420E-04
  0.774999976       3.39174294E-04
  0.777499974       3.24649067E-04
  0.779999971       3.10950127E-04
  0.782500029       2.98055355E-04
  0.785000026       2.85940274E-04
  0.787500024       2.74579070E-04
  0.790000021       2.63942813E-04
  0.792500019       2.53990060E-04
  0.795000017       2.44691182E-04
  0.797500014       2.36006905E-04
  0.800000012       2.27911674E-04
  0.802500010       2.20370086E-04
  0.805000007       2.13353575E-04
  0.807500005       2.06833327E-04
  0.810000002       2.00767929E-04
  0.812500000       1.95133965E-04
  0.814999998       1.89898084E-04
  0.817499995       1.85034325E-04
  0.819999993       1.80513787E-04
  0.822499990       1.76311936E-04
  0.824999988       1.72391214E-04
  0.827499986       1.68725441E-04
  0.829999983       1.65283389E-04
  0.832499981       1.62056996E-04
  0.834999979       1.59029689E-04
  0.837499976       1.56191556E-04
  0.839999974       1.53522546E-04
  0.842499971       1.51000582E-04
  0.845000029       1.48603562E-04
  0.847500026       1.46316757E-04
  0.850000024       1.44127611E-04
  0.852500021       1.42038101E-04
  0.855000019       1.40049073E-04
  0.857500017       1.38157950E-04
  0.860000014       1.36349976E-04
  0.862500012       1.34617338E-04
  0.865000010       1.32950445E-04
  0.867500007       1.31335124E-04
  0.870000005       1.29771361E-04
  0.872500002       1.28261614E-04
  0.875000000       1.26807630E-04
  0.877499998       1.25412742E-04
  0.879999995       1.24074868E-04
  0.882499993       1.22788115E-04
  0.884999990       1.21542449E-04
  0.887499988       1.20331766E-04
  0.889999986       1.19157536E-04
  0.892499983       1.18025382E-04
  0.894999981       1.16941053E-04
  0.897499979       1.15906492E-04
  0.899999976       1.14916533E-04
  0.902499974       1.13962153E-04
  0.904999971       1.13032424E-04
  0.907500029       1.12117494E-04
  0.910000026       1.11224013E-04
  0.912500024       1.10357578E-04
  0.915000021       1.09524473E-04
  0.917500019       1.08717002E-04
  0.920000017       1.07924992E-04
  0.922500014       1.07135224E-04
  0.925000012       1.06329768E-04
  0.927500010       1.05501000E-04
  0.930000007       1.04650404E-04
  0.932500005       1.03779937E-04
  0.935000002       1.02890714E-04
  0.937500000       1.01981088E-04
  0.939999998       1.01041049E-04
  0.942499995       1.00067758E-04
  0.944999993       9.90549379E-05
  0.947499990       9.80055847E-05
  0.949999988       9.69191606E-05
  0.952499986       9.58009041E-05
  0.954999983       9.46543296E-05
  0.957499981       9.34840646E-05
  0.959999979       9.22942199E-05
  0.962499976       9.10949602E-05
  0.964999974       8.98948856E-05
  0.967499971       8.87040005E-05
  0.970000029       8.75226760E-05
  0.972500026       8.63561436E-05
  0.975000024       8.52045705E-05
  0.977500021       8.40712892E-05
  0.980000019       8.29611818E-05
  0.982500017       8.18855187E-05
  0.985000014       8.08404875E-05
  0.987500012       7.98307374E-05
  0.990000010       7.88558755E-05
  0.992500007       7.79059046E-05
  0.995000005       7.69804392E-05
  0.997500002       7.60823241E-05
   1.00000000       7.52128981E-05
   1.00250006       7.43702258E-05
   1.00500000       7.35480280E-05
   1.00750005       7.27395163E-05
   1.00999999       7.19415984E-05
   1.01250005       7.11584871E-05
   1.01499999       7.03918849E-05
   1.01750004       6.96485949E-05
   1.01999998       6.89282533E-05
   1.02250004       6.82284517E-05
   1.02499998       6.75437477E-05
   1.02750003       6.68727225E-05
   1.02999997       6.62168604E-05
   1.03250003       6.55866315E-05
   1.03499997       6.49862995E-05
   1.03750002       6.44248212E-05
   1.03999996       6.38991260E-05
   1.04250002       6.34118478E-05
   1.04499996       6.29577480E-05
   1.04750001       6.25358516E-05
   1.04999995       6.21466097E-05
   1.05250001       6.17924889E-05
   1.05499995       6.14746823E-05
   1.05750000       6.11940923E-05
   1.05999994       6.09473536E-05
   1.06250000       6.07316215E-05
   1.06500006       6.05409987E-05
   1.06750000       6.03742883E-05
   1.07000005       6.02284999E-05
   1.07249999       6.01058746E-05
   1.07500005       5.99969280E-05
   1.07749999       5.98979204E-05
   1.08000004       5.98057086E-05
   1.08249998       5.97208928E-05
   1.08500004       5.96501304E-05
   1.08749998       5.95982710E-05
   1.09000003       5.95713354E-05
   1.09249997       5.95686834E-05
   1.09500003       5.95889687E-05
   1.09749997       5.96257705E-05
   1.10000002       5.96799073E-05
   1.10249996       5.97527287E-05
   1.10500002       5.98467705E-05
   1.10749996       5.99619198E-05
   1.11000001       6.00973945E-05
   1.11249995       6.02457258E-05
   1.11500001       6.04040288E-05
   1.11749995       6.05708155E-05
   1.12000000       6.07517941E-05
   1.12249994       6.09502640E-05
   1.12500000       6.11616269E-05
   1.12750006       6.13757147E-05
   1.13000000       6.15816170E-05
   1.13250005       6.17733967E-05
   1.13499999       6.19495258E-05
   1.13750005       6.21186628E-05
   1.13999999       6.22921725E-05
   1.14250004       6.24713211E-05
   1.14499998       6.26544788E-05
   1.14750004       6.28339258E-05
   1.14999998       6.29994829E-05
   1.15250003       6.31530056E-05
   1.15499997       6.33011441E-05
   1.15750003       6.34540338E-05
   1.15999997       6.36171535E-05
   1.16250002       6.37902922E-05
   1.16499996       6.39626087E-05
   1.16750002       6.41269289E-05
   1.16999996       6.42790692E-05
   1.17250001       6.44248576E-05
   1.17499995       6.45715772E-05
   1.17750001       6.47281267E-05
   1.17999995       6.48951682E-05
   1.18250000       6.50683069E-05
   1.18499994       6.52390154E-05
   1.18750000       6.54020259E-05
   1.19000006       6.55548429E-05
   1.19250000       6.57003256E-05
   1.19500005       6.58393183E-05
   1.19749999       6.59764701E-05
   1.20000005       6.61139347E-05
   1.20249999       6.62531456E-05
   1.20500004       6.63954197E-05
   1.20749998       6.65422485E-05
   1.21000004       6.66909182E-05
   1.21249998       6.68372304E-05
   1.21500003       6.69767396E-05
   1.21749997       6.71071757E-05
   1.22000003       6.72314418E-05
   1.22249997       6.73547329E-05
   1.22500002       6.74837793E-05
   1.22749996       6.76197087E-05
   1.23000002       6.77588469E-05
   1.23249996       6.78935758E-05
   1.23500001       6.80210942E-05
   1.23749995       6.81443125E-05
   1.24000001       6.82711907E-05
   1.24249995       6.84086554E-05
   1.24500000       6.85590348E-05
   1.24749994       6.87143911E-05
   1.25000000       6.88629079E-05
   1.25250006       6.89956141E-05
   1.25500000       6.91121459E-05
   1.25750005       6.92245303E-05
   1.25999999       6.93492839E-05
   1.26250005       6.94979099E-05
   1.26499999       6.96678762E-05
   1.26750004       6.98431759E-05
   1.26999998       7.00073870E-05
   1.27250004       7.01491808E-05
   1.27499998       7.02718389E-05
   1.27750003       7.03877013E-05
   1.27999997       7.05123821E-05
   1.28250003       7.06546562E-05
   1.28499997       7.08114239E-05
   1.28750002       7.09727901E-05
   1.28999996       7.11257599E-05
   1.29250002       7.12656038E-05
   1.29499996       7.13936461E-05
   1.29750001       7.15214192E-05
   1.29999995       7.16548093E-05
   1.30250001       7.17970834E-05
   1.30499995       7.19453019E-05
   1.30750000       7.20909375E-05
   1.30999994       7.22296609E-05
   1.31250000       7.23582998E-05
   1.31500006       7.24776401E-05
   1.31750000       7.25861028E-05
   1.32000005       7.26829458E-05
   1.32249999       7.27687293E-05
   1.32500005       7.28472296E-05
   1.32749999       7.29208696E-05
   1.33000004       7.29942476E-05
   1.33249998       7.30636675E-05
   1.33500004       7.31234104E-05
   1.33749998       7.31693654E-05
   1.34000003       7.32026165E-05
   1.34249997       7.32321350E-05
   1.34500003       7.32659901E-05
   1.34749997       7.33153356E-05
   1.35000002       7.33781853E-05
   1.35249996       7.34490168E-05
   1.35500002       7.35193753E-05
   1.35749996       7.35879366E-05
   1.36000001       7.36625807E-05
   1.36249995       7.37536029E-05
   1.36500001       7.38720046E-05
   1.36749995       7.40139440E-05
   1.37000000       7.41668264E-05
   1.37249994       7.43121709E-05
   1.37500000       7.44396093E-05
   1.37750006       7.45509897E-05
   1.38000000       7.46593796E-05
   1.38250005       7.47767335E-05
   1.38499999       7.49068640E-05
   1.38750005       7.50390464E-05
   1.38999999       7.51566331E-05
   1.39250004       7.52439082E-05
   1.39499998       7.52950655E-05
   1.39750004       7.53169152E-05
   1.39999998       7.53197164E-05
   1.40250003       7.53128843E-05
   1.40499997       7.52982014E-05
   1.40750003       7.52706619E-05
   1.40999997       7.52287451E-05
   1.41250002       7.51761763E-05
   1.41499996       7.51189364E-05
   1.41750002       7.50664331E-05
   1.41999996       7.50205218E-05
   1.42250001       7.49788232E-05
   1.42499995       7.49361570E-05
   1.42750001       7.48884486E-05
   1.42999995       7.48430903E-05
   1.43250000       7.48076636E-05
   1.43499994       7.47914164E-05
   1.43750000       7.47933591E-05
   1.44000006       7.48084567E-05
   1.44250000       7.48247767E-05
   1.44500005       7.48360981E-05
   1.44749999       7.48456659E-05
   1.45000005       7.48597449E-05
   1.45249999       7.48807142E-05
   1.45500004       7.49054816E-05
   1.45749998       7.49244937E-05
   1.46000004       7.49258834E-05
   1.46249998       7.49071260E-05
   1.46500003       7.48703242E-05
   1.46749997       7.48277671E-05
   1.47000003       7.47875238E-05
   1.47249997       7.47534868E-05
   1.47500002       7.47176236E-05
   1.47749996       7.46711448E-05
   1.48000002       7.46118822E-05
   1.48249996       7.45437792E-05
   1.48500001       7.44788777E-05
   1.48749995       7.44259742E-05
   1.49000001       7.43938435E-05
   1.49249995       7.43796409E-05
   1.49500000       7.43820201E-05
   1.49749994       7.44003046E-05
   1.50000000       7.44371428E-05
   1.50250006       7.44964927E-05
   1.50500000       7.45802827E-05
   1.50750005       7.46820006E-05
   1.50999999       7.47935846E-05
   1.51250005       7.49074024E-05
   1.51499999       7.50242543E-05
   1.51750004       7.51457555E-05
   1.51999998       7.52751293E-05
   1.52250004       7.54100984E-05
   1.52499998       7.55393557E-05
   1.52750003       7.56497902E-05
   1.52999997       7.57325906E-05
   1.53250003       7.57899834E-05
   1.53499997       7.58287788E-05
   1.53750002       7.58555834E-05
   1.53999996       7.58727765E-05
   1.54250002       7.58731258E-05
   1.54499996       7.58437745E-05
   1.54750001       7.57796151E-05
   1.54999995       7.56878871E-05
   1.55250001       7.55822985E-05
   1.55499995       7.54798748E-05
   1.55750000       7.53893401E-05
   1.55999994       7.53047862E-05
   1.56250000       7.52155756E-05
   1.56500006       7.51097396E-05
   1.56750000       7.49893734E-05
   1.57000005       7.48676830E-05
   1.57249999       7.47614540E-05
   1.57500005       7.46810038E-05
   1.57749999       7.46250007E-05
   1.58000004       7.45800789E-05
   1.58249998       7.45302532E-05
   1.58500004       7.44669014E-05
   1.58749998       7.43917699E-05
   1.59000003       7.43152123E-05
   1.59249997       7.42441625E-05
   1.59500003       7.41818803E-05
   1.59749997       7.41227632E-05
   1.60000002       7.40615942E-05
   1.60249996       7.39910174E-05
   1.60500002       7.39081079E-05
   1.60749996       7.38125018E-05
   1.61000001       7.37045630E-05
   1.61249995       7.35842550E-05
   1.61500001       7.34542700E-05
   1.61749995       7.33199922E-05
   1.62000000       7.31886248E-05
   1.62249994       7.30657193E-05
   1.62500000       7.29525273E-05
   1.62750006       7.28444429E-05
   1.63000000       7.27321167E-05
   1.63250005       7.26154904E-05
   1.63499999       7.24989368E-05
   1.63750005       7.23931444E-05
   1.63999999       7.23100675E-05
   1.64250004       7.22510886E-05
   1.64499998       7.22093537E-05
   1.64750004       7.21718461E-05
   1.64999998       7.21289398E-05
   1.65250003       7.20800817E-05
   1.65499997       7.20347816E-05
   1.65750003       7.20016033E-05
   1.65999997       7.19852396E-05
   1.66250002       7.19807213E-05
   1.66499996       7.19708551E-05
   1.66750002       7.19439704E-05
   1.66999996       7.18948941E-05
   1.67250001       7.18306546E-05
   1.67499995       7.17632138E-05
   1.67750001       7.17042567E-05
   1.67999995       7.16550348E-05
   1.68250000       7.16077338E-05
   1.68499994       7.15541100E-05
   1.68750000       7.14917551E-05
   1.69000006       7.14244525E-05
   1.69250000       7.13616973E-05
   1.69500005       7.13121917E-05
   1.69749999       7.12800611E-05
   1.70000005       7.12611727E-05
   1.70249999       7.12501715E-05
   1.70500004       7.12457622E-05
   1.70749998       7.12502515E-05
   1.71000004       7.12688343E-05
   1.71249998       7.13026093E-05
   1.71500003       7.13463669E-05
   1.71749997       7.13921472E-05
   1.72000003       7.14332346E-05
   1.72249997       7.14648559E-05
   1.72500002       7.14910129E-05
   1.72749996       7.15157657E-05
   1.73000002       7.15394854E-05
   1.73249996       7.15568967E-05
   1.73500001       7.15592687E-05
   1.73749995       7.15403512E-05
   1.74000001       7.15005226E-05
   1.74249995       7.14452399E-05
   1.74500000       7.13809641E-05
   1.74749994       7.13119007E-05
   1.75000000       7.12381443E-05
   1.75250006       7.11567118E-05
   1.75500000       7.10664099E-05
   1.75750005       7.09699016E-05
   1.75999999       7.08717853E-05
   1.76250005       7.07784711E-05
   1.76499999       7.06921855E-05
   1.76750004       7.06128048E-05
   1.76999998       7.05379498E-05
   1.77250004       7.04670238E-05
   1.77499998       7.04028353E-05
   1.77750003       7.03476981E-05
   1.77999997       7.03029000E-05
   1.78250003       7.02652396E-05
   1.78499997       7.02317702E-05
   1.78750002       7.02002144E-05
   1.78999996       7.01715981E-05
   1.79250002       7.01486933E-05
   1.79499996       7.01352401E-05
   1.79750001       7.01291283E-05
   1.79999995       7.01261597E-05
   1.80250001       7.01201134E-05
   1.80499995       7.01077661E-05
   1.80750000       7.00938035E-05
   1.80999994       7.00871969E-05
   1.81250000       7.00964738E-05
   1.81500006       7.01245590E-05
   1.81750000       7.01637473E-05
   1.82000005       7.02014295E-05
   1.82249999       7.02277102E-05
   1.82500005       7.02423204E-05
   1.82749999       7.02555844E-05
   1.83000004       7.02825637E-05
   1.83249998       7.03334154E-05
   1.83500004       7.04101549E-05
   1.83749998       7.05021230E-05
   1.84000003       7.05933926E-05
   1.84249997       7.06731153E-05
   1.84500003       7.07393556E-05
   1.84749997       7.07982763E-05
   1.85000002       7.08584121E-05
   1.85249996       7.09250453E-05
   1.85500002       7.09967790E-05
   1.85749996       7.10665554E-05
   1.86000001       7.11239772E-05
   1.86249995       7.11632892E-05
   1.86500001       7.11834073E-05
   1.86749995       7.11845787E-05
   1.87000000       7.11697285E-05
   1.87249994       7.11404573E-05
   1.87500000       7.10956665E-05
   1.87750006       7.10343520E-05
   1.88000000       7.09569431E-05
   1.88250005       7.08637017E-05
   1.88499999       7.07564832E-05
   1.88750005       7.06382634E-05
   1.88999999       7.05135244E-05
   1.89250004       7.03893675E-05
   1.89499998       7.02735779E-05
   1.89750004       7.01716708E-05
   1.89999998       7.00850869E-05
   1.90250003       7.00099263E-05
   1.90499997       6.99395387E-05
   1.90750003       6.98724543E-05
   1.90999997       6.98108706E-05
   1.91250002       6.97636351E-05
   1.91499996       6.97402356E-05
   1.91750002       6.97456999E-05
   1.91999996       6.97761498E-05
   1.92250001       6.98216827E-05
   1.92499995       6.98709555E-05
   1.92750001       6.99178490E-05
   1.92999995       6.99611919E-05
   1.93250000       7.00054006E-05
   1.93499994       7.00552482E-05
   1.93750000       7.01112076E-05
   1.94000006       7.01690151E-05
   1.94250000       7.02228863E-05
   1.94500005       7.02673933E-05
   1.94749999       7.03026526E-05
   1.95000005       7.03312908E-05
   1.95249999       7.03578626E-05
   1.95500004       7.03838450E-05
   1.95749998       7.04083068E-05
   1.96000004       7.04292543E-05
   1.96249998       7.04483100E-05
   1.96500003       7.04678168E-05
   1.96749997       7.04911072E-05
   1.97000003       7.05212224E-05
   1.97249997       7.05562270E-05
   1.97500002       7.05953935E-05
   1.97749996       7.06376813E-05
   1.98000002       7.06867577E-05
   1.98249996       7.07465369E-05
   1.98500001       7.08181833E-05
   1.98749995       7.08979496E-05
   1.99000001       7.09768865E-05
   1.99249995       7.10474123E-05
   1.99500000       7.11060566E-05
   1.99749994       7.11569592E-05
   2.00000000       7.12104084E-05
   2.00250006       7.12729088E-05
   2.00500011       7.13448317E-05
   2.00749993       7.14176349E-05
   2.00999999       7.14804337E-05
   2.01250005       7.15235001E-05
   2.01500010       7.15486967E-05
   2.01749992       7.15642600E-05
   2.01999998       7.15815841E-05
   2.02250004       7.16067661E-05
   2.02500010       7.16393115E-05
   2.02749991       7.16722498E-05
   2.02999997       7.16990689E-05
   2.03250003       7.17180665E-05
   2.03500009       7.17336879E-05
   2.03749990       7.17531584E-05
   2.03999996       7.17830844E-05
   2.04250002       7.18252850E-05
   2.04500008       7.18784431E-05
   2.04749990       7.19364398E-05
   2.04999995       7.19958407E-05
   2.05250001       7.20545868E-05
   2.05500007       7.21122633E-05
   2.05749989       7.21711767E-05
   2.05999994       7.22319819E-05
   2.06250000       7.22949189E-05
   2.06500006       7.23608609E-05
   2.06750011       7.24292113E-05
   2.06999993       7.24969650E-05
   2.07249999       7.25594437E-05
   2.07500005       7.26123326E-05
   2.07750010       7.26534854E-05
   2.07999992       7.26860526E-05
   2.08249998       7.27172446E-05
   2.08500004       7.27531078E-05
   2.08750010       7.27961888E-05
   2.08999991       7.28406885E-05
   2.09249997       7.28764207E-05
   2.09500003       7.28965679E-05
   2.09750009       7.29036183E-05
   2.09999990       7.29082458E-05
   2.10249996       7.29254534E-05
   2.10500002       7.29650201E-05
   2.10750008       7.30254396E-05
   2.10999990       7.30943866E-05
   2.11249995       7.31551991E-05
   2.11500001       7.32002009E-05
   2.11750007       7.32324334E-05
   2.11999989       7.32660556E-05
   2.12249994       7.33174384E-05
   2.12500000       7.33930210E-05
   2.12750006       7.34855275E-05
   2.13000011       7.35782960E-05
   2.13249993       7.36555885E-05
   2.13499999       7.37098817E-05
   2.13750005       7.37466398E-05
   2.14000010       7.37779847E-05