   0.00000000       0.00000000    
   2.49999994E-03   0.00000000    
   4.99999989E-03   0.00000000    
   7.49999983E-03   0.00000000    
   9.99999978E-03   0.00000000    
   1.25000002E-02   0.00000000    
   1.49999997E-02   0.00000000    
   1.75000001E-02   0.00000000    
   1.99999996E-02   0.00000000    
   2.25000009E-02   0.00000000    
   2.50000004E-02   0.00000000    
   2.74999999E-02  -1.00841842E-29
   2.99999993E-02   1.46419474E-28
   3.24999988E-02  -1.43423271E-27
   3.50000001E-02   2.87777989E-28
   3.75000015E-02   2.24336033E-26
   3.99999991E-02  -2.05320618E-26
   4.25000004E-02  -2.04932665E-25
   4.50000018E-02   1.59126692E-25
   4.74999994E-02   1.34732828E-24
   5.00000007E-02  -4.84028091E-25
   5.24999984E-02  -6.64718653E-24
   5.49999997E-02  -6.53619874E-25
   5.75000010E-02   2.49635633E-23
   5.99999987E-02   1.31318141E-23
   6.25000000E-02  -7.27677611E-23
   6.49999976E-02  -6.82824557E-23
   6.75000027E-02   1.71205586E-22
   7.00000003E-02   2.39335880E-22
   7.24999979E-02  -3.45387361E-22
   7.50000030E-02  -7.06389171E-22
   7.75000006E-02   5.93241526E-22
   7.99999982E-02   1.97099833E-21
   8.25000033E-02  -5.13713189E-22
   8.50000009E-02  -5.02350138E-21
   8.74999985E-02  -1.99262680E-21
   9.00000036E-02   9.94539607E-21
   9.25000012E-02   1.19899369E-20
   9.49999988E-02  -1.07637233E-20
   9.74999964E-02  -3.29889516E-20
  0.100000001      -9.23151174E-21
  0.102499999       5.08141703E-20
  0.104999997       6.37668494E-20
  0.107500002      -2.20318716E-20
  0.109999999      -1.21439691E-19
  0.112499997      -8.68589145E-20
  0.115000002       8.78520094E-20
  0.117500000       2.07637029E-19
  0.119999997       9.31549932E-20
  0.122500002      -1.68239980E-19
  0.125000000      -2.79900264E-19
  0.127499998      -8.20867932E-20
  0.129999995       2.23080375E-19
  0.132499993       2.81802340E-19
  0.135000005       2.74483278E-20
  0.137500003      -1.99737532E-19
  0.140000001      -8.44444518E-20
  0.142499998       1.69989972E-19
  0.144999996       2.69159030E-20
  0.147499993      -5.51042237E-19
  0.150000006      -7.09345477E-19
  0.152500004       3.58671692E-19
  0.155000001       1.95930074E-18
  0.157499999       1.97207365E-18
  0.159999996      -8.52662066E-19
  0.162499994      -4.57257212E-18
  0.165000007      -4.85377548E-18
  0.167500004       7.62459572E-19
  0.170000002       8.87244513E-18
  0.172499999       1.12976196E-17
  0.174999997       2.16255576E-18
  0.177499995      -1.43703490E-17
  0.180000007      -2.40009631E-17
  0.182500005      -1.32213753E-17
  0.185000002       1.60862293E-17
  0.187500000       4.26049400E-17
  0.189999998       3.98996458E-17
  0.192499995       3.70179125E-20
  0.194999993      -5.41141292E-17
  0.197500005      -8.14503640E-17
  0.200000003      -5.26676716E-17
  0.202500001       2.50480679E-17
  0.204999998       1.07483796E-16
  0.207499996       1.37736530E-16
  0.209999993       8.05533958E-17
  0.212500006      -5.15966017E-17
  0.215000004      -1.93767575E-16
  0.217500001      -2.51565980E-16
  0.219999999      -1.50538970E-16
  0.222499996       1.04117965E-16
  0.224999994       3.93247539E-16
  0.227500007       5.17367936E-16
  0.230000004       3.11141857E-16
  0.232500002      -2.14318500E-16
  0.234999999      -8.10295699E-16
  0.237499997      -1.09804438E-15
  0.239999995      -8.13490019E-16
  0.242500007      -1.80081455E-17
  0.245000005       9.18461118E-16
  0.247500002       1.59157883E-15
  0.250000000       1.87492797E-15
  0.252499998       1.95123145E-15
  0.254999995       1.95225043E-15
  0.257499993       1.50329089E-15
  0.259999990      -2.91894039E-16
  0.262499988      -4.13522882E-15
  0.264999986      -9.45362546E-15
  0.267500013      -1.38679749E-14
  0.270000011      -1.39834204E-14
  0.272500008      -7.35007250E-15
  0.275000006       5.61846356E-15
  0.277500004       2.12420549E-14
  0.280000001       3.41981150E-14
  0.282499999       4.01239948E-14
  0.284999996       3.72878777E-14
  0.287499994       2.61416712E-14
  0.289999992       7.43167819E-15
  0.292499989      -1.90274788E-14
  0.294999987      -5.32217093E-14
  0.297500014      -9.18873538E-14
  0.300000012      -1.26096833E-13
  0.302500010      -1.42181202E-13
  0.305000007      -1.26496686E-13
  0.307500005      -7.16660956E-14
  0.310000002       1.92536891E-14
  0.312500000       1.32774705E-13
  0.314999998       2.48485694E-13
  0.317499995       3.43701738E-13
  0.319999993       3.97403193E-13
  0.322499990       3.93219691E-13
  0.324999988       3.21868454E-13
  0.327499986       1.82546700E-13
  0.330000013      -1.80149729E-14
  0.332500011      -2.68635754E-13
  0.335000008      -5.55416824E-13
  0.337500006      -8.57265105E-13
  0.340000004      -1.13472361E-12
  0.342500001      -1.32049265E-12
  0.344999999      -1.32599107E-12
  0.347499996      -1.07272936E-12
  0.349999994      -5.39082505E-13
  0.352499992       2.06315366E-13
  0.354999989       1.01653527E-12
  0.357499987       1.73228695E-12
  0.360000014       2.27091219E-12
  0.362500012       2.67888424E-12
  0.365000010       3.09804634E-12
  0.367500007       3.64725177E-12
  0.370000005       4.28554848E-12
  0.372500002       4.75425645E-12
  0.375000000       4.66259149E-12
  0.377499998       3.69624643E-12
  0.379999995       1.84127431E-12
  0.382499993      -5.11980486E-13
  0.384999990      -2.66305294E-12
  0.387499988      -3.85810351E-12
  0.389999986      -3.57368584E-12
  0.392500013      -1.66852155E-12
  0.395000011       1.68505476E-12
  0.397500008       6.25574332E-12
  0.400000006       1.20607161E-11
  0.402500004       1.95685898E-11
  0.405000001       2.96990314E-11
  0.407499999       4.36244270E-11
  0.409999996       6.24646515E-11
  0.412499994       8.69930447E-11
  0.414999992       1.17440321E-10
  0.417499989       1.53418542E-10
  0.419999987       1.93923141E-10
  0.422500014       2.37336734E-10
  0.425000012       2.81376533E-10
  0.427500010       3.22963711E-10
  0.430000007       3.58052588E-10
  0.432500005       3.81457421E-10
  0.435000002       3.86648019E-10
  0.437500000       3.65341674E-10
  0.439999998       3.06634357E-10
  0.442499995       1.95343769E-10
  0.444999993       9.60112805E-12
  0.447499990      -2.82112556E-10
  0.449999988      -7.23823390E-10
  0.452499986      -1.37456158E-09
  0.455000013      -2.31063324E-09
  0.457500011      -3.62840047E-09
  0.460000008      -5.44896261E-09
  0.462500006      -7.92623478E-09
  0.465000004      -1.12592540E-08
  0.467500001      -1.57083537E-08
  0.469999999      -2.16136993E-08
  0.472499996      -2.94161442E-08
  0.474999994      -3.96797688E-08
  0.477499992      -5.31174607E-08
  0.479999989      -7.06228818E-08
  0.482499987      -9.33113711E-08
  0.485000014      -1.22572075E-07
  0.487500012      -1.60131648E-07
  0.490000010      -2.08130359E-07
  0.492500007      -2.69206851E-07
  0.495000005      -3.46590326E-07
  0.497500002      -4.44204261E-07
  0.500000000      -5.66778112E-07
  0.502499998      -7.19969080E-07
  0.504999995      -9.10503957E-07
  0.507499993      -1.14633121E-06
  0.509999990      -1.43677983E-06
  0.512499988      -1.79273320E-06
  0.514999986      -2.22679887E-06
  0.517499983      -2.75346770E-06
  0.519999981      -3.38926884E-06
  0.522499979      -4.15291925E-06
  0.524999976      -5.06545712E-06
  0.527499974      -6.15034605E-06
  0.529999971      -7.43360579E-06
  0.532500029      -8.94380810E-06
  0.535000026      -1.07121168E-05
  0.537500024      -1.27722360E-05
  0.540000021      -1.51603508E-05
  0.542500019      -1.79149392E-05
  0.545000017      -2.10766411E-05
  0.547500014      -2.46879190E-05
  0.550000012      -2.87927996E-05
  0.552500010      -3.34364522E-05
  0.555000007      -3.86648499E-05
  0.557500005      -4.45239966E-05
  0.560000002      -5.10596255E-05
  0.562500000      -5.83166620E-05
  0.564999998      -6.63384490E-05
  0.567499995      -7.51663683E-05
  0.569999993      -8.48390482E-05
  0.572499990      -9.53916460E-05
  0.574999988      -1.06855652E-04
  0.577499986      -1.19257922E-04
  0.579999983      -1.32620611E-04
  0.582499981      -1.46960941E-04
  0.584999979      -1.62289696E-04
  0.587499976      -1.78612594E-04
  0.589999974      -1.95929155E-04
  0.592499971      -2.14232394E-04
  0.595000029      -2.33510087E-04
  0.597500026      -2.53743870E-04
  0.600000024      -2.74910388E-04
  0.602500021      -2.96980346E-04
  0.605000019      -3.19919694E-04
  0.607500017      -3.43689782E-04
  0.610000014      -3.68247478E-04
  0.612500012      -3.93547642E-04
  0.615000010      -4.19542019E-04
  0.617500007      -4.46178106E-04
  0.620000005      -4.73402761E-04
  0.622500002      -5.01160161E-04
  0.625000000      -5.29390934E-04
  0.627499998      -5.58037020E-04
  0.629999995      -5.87037415E-04
  0.632499993      -6.16331759E-04
  0.634999990      -6.45855383E-04
  0.637499988      -6.75541000E-04
  0.639999986      -7.05321319E-04
  0.642499983      -7.35122419E-04
  0.644999981      -7.64870259E-04
  0.647499979      -7.94484862E-04
  0.649999976      -8.23885435E-04
  0.652499974      -8.52981466E-04
  0.654999971      -8.81679473E-04
  0.657500029      -9.09878640E-04
  0.660000026      -9.37472971E-04
  0.662500024      -9.64349834E-04
  0.665000021      -9.90392291E-04
  0.667500019      -1.01547735E-03
  0.670000017      -1.03947846E-03
  0.672500014      -1.06226455E-03
  0.675000012      -1.08369929E-03
  0.677500010      -1.10364857E-03
  0.680000007      -1.12197862E-03
  0.682500005      -1.13855337E-03
  0.685000002      -1.15324662E-03
  0.687500000      -1.16593542E-03
  0.689999998      -1.17651129E-03
  0.692499995      -1.18487328E-03
  0.694999993      -1.19093247E-03
  0.697499990      -1.19461713E-03
  0.699999988      -1.19587057E-03
  0.702499986      -1.19465543E-03
  0.704999983      -1.19095494E-03
  0.707499981      -1.18477619E-03
  0.709999979      -1.17615040E-03
  0.712499976      -1.16512948E-03
  0.714999974      -1.15178607E-03
  0.717499971      -1.13621680E-03
  0.720000029      -1.11853820E-03
  0.722500026      -1.09888567E-03
  0.725000024      -1.07741228E-03
  0.727500021      -1.05428696E-03
  0.730000019      -1.02968956E-03
  0.732500017      -1.00380974E-03
  0.735000014      -9.76842828E-04
  0.737500012      -9.48988600E-04
  0.740000010      -9.20448219E-04
  0.742500007      -8.91421805E-04
  0.745000005      -8.62104760E-04
  0.747500002      -8.32682534E-04
  0.750000000      -8.03330913E-04
  0.752499998      -7.74211017E-04
  0.754999995      -7.45470345E-04
  0.757499993      -7.17238639E-04
  0.759999990      -6.89632492E-04
  0.762499988      -6.62751205E-04
  0.764999986      -6.36679295E-04
  0.767499983      -6.11485739E-04
  0.769999981      -5.87221992E-04
  0.772499979      -5.63922978E-04
  0.774999976      -5.41612681E-04
  0.777499974      -5.20296860E-04
  0.779999971      -4.99974005E-04
  0.782500029      -4.80633607E-04
  0.785000026      -4.62255353E-04
  0.787500024      -4.44815931E-04
  0.790000021      -4.28287574E-04
  0.792500019      -4.12642781E-04
  0.795000017      -3.97850119E-04
  0.797500014      -3.83880018E-04
  0.800000012      -3.70699941E-04
  0.802500010      -3.58276651E-04
  0.805000007      -3.46576679E-04
  0.807500005      -3.35575576E-04
  0.810000002      -3.25245637E-04
  0.812500000      -3.15567886E-04
  0.814999998      -3.06521542E-04
  0.817499995      -2.98090978E-04
  0.819999993      -2.90256838E-04
  0.822499990      -2.83002562E-04
  0.824999988      -2.76315608E-04
  0.827499986      -2.70184100E-04
  0.829999983      -2.64589762E-04
  0.832499981      -2.59521214E-04
  0.834999979      -2.54958228E-04
  0.837499976      -2.50880636E-04
  0.839999974      -2.47272634E-04
  0.842499971      -2.44117444E-04
  0.845000029      -2.41395974E-04
  0.847500026      -2.39085930E-04
  0.850000024      -2.37159824E-04
  0.852500021      -2.35585525E-04
  0.855000019      -2.34335690E-04
  0.857500017      -2.33384591E-04
  0.860000014      -2.32708335E-04
  0.862500012      -2.32280756E-04
  0.865000010      -2.32067789E-04
  0.867500007      -2.32038044E-04
  0.870000005      -2.32157749E-04
  0.872500002      -2.32397622E-04
  0.875000000      -2.32735838E-04
  0.877499998      -2.33149956E-04
  0.879999995      -2.33622952E-04
  0.882499993      -2.34132589E-04
  0.884999990      -2.34651176E-04
  0.887499988      -2.35153770E-04
  0.889999986      -2.35620639E-04
  0.892499983      -2.36037609E-04
  0.894999981      -2.36399734E-04
  0.897499979      -2.36698470E-04
  0.899999976      -2.36927430E-04
  0.902499974      -2.37076427E-04
  0.904999971      -2.37132190E-04
  0.907500029      -2.37085245E-04
  0.910000026      -2.36935506E-04
  0.912500024      -2.36686377E-04
  0.915000021      -2.36346663E-04
  0.917500019      -2.35924177E-04
  0.920000017      -2.35418309E-04
  0.922500014      -2.34830659E-04
  0.925000012      -2.34158739E-04
  0.927500010      -2.33410436E-04
  0.930000007      -2.32590406E-04
  0.932500005      -2.31710161E-04
  0.935000002      -2.30781327E-04
  0.937500000      -2.29812445E-04
  0.939999998      -2.28808000E-04
  0.942499995      -2.27768425E-04
  0.944999993      -2.26700155E-04
  0.947499990      -2.25604701E-04
  0.949999988      -2.24493546E-04
  0.952499986      -2.23375813E-04
  0.954999983      -2.22261966E-04
  0.957499981      -2.21154100E-04
  0.959999979      -2.20052505E-04
  0.962499976      -2.18954796E-04
  0.964999974      -2.17866065E-04
  0.967499971      -2.16787477E-04
  0.970000029      -2.15724009E-04
  0.972500026      -2.14678003E-04
  0.975000024      -2.13652340E-04
  0.977500021      -2.12647879E-04
  0.980000019      -2.11666891E-04
  0.982500017      -2.10708022E-04
  0.985000014      -2.09770078E-04
  0.987500012      -2.08848272E-04
  0.990000010      -2.07943798E-04
  0.992500007      -2.07058911E-04
  0.995000005      -2.06199431E-04
  0.997500002      -2.05370583E-04
   1.00000000      -2.04578217E-04
   1.00250006      -2.03821837E-04
   1.00500000      -2.03097006E-04
   1.00750005      -2.02397292E-04
   1.00999999      -2.01721021E-04
   1.01250005      -2.01073461E-04
   1.01499999      -2.00461174E-04
   1.01750004      -1.99893417E-04
   1.01999998      -1.99370785E-04
   1.02250004      -1.98886570E-04
   1.02499998      -1.98430746E-04
   1.02750003      -1.97997055E-04
   1.02999997      -1.97587549E-04
   1.03250003      -1.97208254E-04
   1.03499997      -1.96869005E-04
   1.03750002      -1.96568464E-04
   1.03999996      -1.96303648E-04
   1.04250002      -1.96059744E-04
   1.04499996      -1.95826156E-04
   1.04750001      -1.95598244E-04
   1.04999995      -1.95383487E-04
   1.05250001      -1.95185465E-04
   1.05499995      -1.95013141E-04
   1.05750000      -1.94866530E-04
   1.05999994      -1.94735316E-04
   1.06250000      -1.94615757E-04
   1.06500006      -1.94501583E-04
   1.06750000      -1.94396373E-04
   1.07000005      -1.94301916E-04
   1.07249999      -1.94224500E-04
   1.07500005      -1.94165317E-04
   1.07749999      -1.94122578E-04
   1.08000004      -1.94094930E-04
   1.08249998      -1.94081469E-04
   1.08500004      -1.94084758E-04
   1.08749998      -1.94103748E-04
   1.09000003      -1.94140652E-04
   1.09249997      -1.94191321E-04
   1.09500003      -1.94249456E-04
   1.09749997      -1.94314169E-04
   1.10000002      -1.94388151E-04
   1.10249996      -1.94471984E-04
   1.10500002      -1.94564796E-04
   1.10749996      -1.94665074E-04
   1.11000001      -1.94764158E-04
   1.11249995      -1.94860855E-04
   1.11500001      -1.94955457E-04
   1.11749995      -1.95053639E-04
   1.12000000      -1.95160508E-04
   1.12249994      -1.95275134E-04
   1.12500000      -1.95392146E-04
   1.12750006      -1.95500645E-04
   1.13000000      -1.95597793E-04
   1.13250005      -1.95683344E-04
   1.13499999      -1.95768313E-04
   1.13750005      -1.95862609E-04
   1.13999999      -1.95970075E-04
   1.14250004      -1.96088731E-04
   1.14499998      -1.96206936E-04
   1.14750004      -1.96314999E-04
   1.14999998      -1.96411303E-04
   1.15250003      -1.96503082E-04
   1.15499997      -1.96600828E-04
   1.15750003      -1.96710665E-04
   1.15999997      -1.96826033E-04
   1.16250002      -1.96936933E-04
   1.16499996      -1.97030779E-04
   1.16750002      -1.97106550E-04
   1.16999996      -1.97169022E-04
   1.17250001      -1.97229849E-04
   1.17499995      -1.97294416E-04
   1.17750001      -1.97360321E-04
   1.17999995      -1.97419417E-04
   1.18250000      -1.97464935E-04
   1.18499994      -1.97494533E-04
   1.18750000      -1.97516347E-04
   1.19000006      -1.97540416E-04
   1.19250000      -1.97570596E-04
   1.19500005      -1.97607063E-04
   1.19749999      -1.97642323E-04
   1.20000005      -1.97669317E-04
   1.20249999      -1.97688816E-04
   1.20500004      -1.97712812E-04
   1.20749998      -1.97749934E-04
   1.21000004      -1.97807633E-04
   1.21249998      -1.97880698E-04
   1.21500003      -1.97960806E-04
   1.21749997      -1.98034788E-04
   1.22000003      -1.98101450E-04
   1.22249997      -1.98165639E-04
   1.22500002      -1.98237656E-04
   1.22749996      -1.98323978E-04
   1.23000002      -1.98425070E-04
   1.23249996      -1.98533424E-04
   1.23500001      -1.98640279E-04
   1.23749995      -1.98740265E-04
   1.24000001      -1.98834256E-04
   1.24249995      -1.98926777E-04
   1.24500000      -1.99017566E-04
   1.24749994      -1.99107235E-04
   1.25000000      -1.99191752E-04
   1.25250006      -1.99271104E-04
   1.25500000      -1.99345974E-04
   1.25750005      -1.99424583E-04
   1.25999999      -1.99512171E-04
   1.26250005      -1.99608185E-04
   1.26499999      -1.99709437E-04
   1.26750004      -1.99808070E-04
   1.26999998      -1.99902075E-04
   1.27250004      -1.99996910E-04
   1.27499998      -2.00099064E-04
   1.27750003      -2.00213166E-04
   1.27999997      -2.00339811E-04
   1.28250003      -2.00470153E-04
   1.28499997      -2.00599199E-04
   1.28750002      -2.00725553E-04
   1.28999996      -2.00856011E-04
   1.29250002      -2.00997849E-04
   1.29499996      -2.01154762E-04
   1.29750001      -2.01321702E-04
   1.29999995      -2.01484756E-04
   1.30250001      -2.01632938E-04
   1.30499995      -2.01761839E-04
   1.30750000      -2.01878327E-04
   1.30999994      -2.01998773E-04
   1.31250000      -2.02133131E-04
   1.31500006      -2.02279596E-04
   1.31750000      -2.02423747E-04
   1.32000005      -2.02548763E-04
   1.32249999      -2.02646130E-04
   1.32500005      -2.02720475E-04
   1.32749999      -2.02786687E-04
   1.33000004      -2.02858879E-04
   1.33249998      -2.02940166E-04
   1.33500004      -2.03022893E-04
   1.33749998      -2.03090211E-04
   1.34000003      -2.03134972E-04
   1.34249997      -2.03158881E-04
   1.34500003      -2.03175921E-04
   1.34749997      -2.03201780E-04
   1.35000002      -2.03240925E-04
   1.35249996      -2.03288539E-04
   1.35500002      -2.03330914E-04
   1.35749996      -2.03356685E-04
   1.36000001      -2.03365431E-04
   1.36249995      -2.03363335E-04
   1.36500001      -2.03362739E-04
   1.36749995      -2.03369462E-04
   1.37000000      -2.03384843E-04
   1.37249994      -2.03400778E-04
   1.37500000      -2.03411910E-04
   1.37750006      -2.03415198E-04
   1.38000000      -2.03416537E-04
   1.38250005      -2.03418997E-04
   1.38499999      -2.03421616E-04
   1.38750005      -2.03421849E-04
   1.38999999      -2.03414733E-04
   1.39250004      -2.03402189E-04
   1.39499998      -2.03389922E-04
   1.39750004      -2.03384698E-04
   1.39999998      -2.03388889E-04
   1.40250003      -2.03397256E-04
   1.40499997      -2.03404124E-04
   1.40750003      -2.03403833E-04
   1.40999997      -2.03397707E-04
   1.41250002      -2.03392468E-04
   1.41499996      -2.03396587E-04
   1.41750002      -2.03408606E-04
   1.41999996      -2.03420946E-04
   1.42250001      -2.03424075E-04
   1.42499995      -2.03413016E-04
   1.42750001      -2.03391726E-04
   1.42999995      -2.03373274E-04
   1.43250000      -2.03368269E-04
   1.43499994      -2.03377611E-04
   1.43750000      -2.03391886E-04
   1.44000006      -2.03394928E-04
   1.44250000      -2.03376709E-04
   1.44500005      -2.03338452E-04
   1.44749999      -2.03294650E-04
   1.45000005      -2.03261487E-04
   1.45249999      -2.03245785E-04
   1.45500004      -2.03244213E-04
   1.45749998      -2.03240852E-04
   1.46000004      -2.03222473E-04
   1.46249998      -2.03187068E-04
   1.46500003      -2.03144533E-04
   1.46749997      -2.03110088E-04
   1.47000003      -2.03093878E-04
   1.47249997      -2.03091782E-04
   1.47500002      -2.03092393E-04
   1.47749996      -2.03084011E-04
   1.48000002      -2.03063842E-04
   1.48249996      -2.03039628E-04
   1.48500001      -2.03026400E-04
   1.48749995      -2.03033429E-04
   1.49000001      -2.03060321E-04
   1.49249995      -2.03097836E-04
   1.49500000      -2.03132804E-04
   1.49749994      -2.03157921E-04
   1.50000000      -2.03175543E-04
   1.50250006      -2.03196483E-04
   1.50500000      -2.03228308E-04
   1.50750005      -2.03274627E-04
   1.50999999      -2.03331423E-04
   1.51250005      -2.03392847E-04
   1.51499999      -2.03454634E-04
   1.51750004      -2.03517411E-04
   1.51999998      -2.03584525E-04
   1.52250004      -2.03657444E-04
   1.52499998      -2.03733158E-04
   1.52750003      -2.03808027E-04
   1.52999997      -2.03881689E-04
   1.53250003      -2.03959484E-04
   1.53499997      -2.04045878E-04
   1.53750002      -2.04142707E-04
   1.53999996      -2.04246579E-04
   1.54250002      -2.04348878E-04
   1.54499996      -2.04444907E-04
   1.54750001      -2.04534939E-04
   1.54999995      -2.04624608E-04
   1.55250001      -2.04722135E-04
   1.55499995      -2.04832497E-04
   1.55750000      -2.04951386E-04
   1.55999994      -2.05070275E-04
   1.56250000      -2.05180942E-04
   1.56500006      -2.05284290E-04
   1.56750000      -2.05387187E-04
   1.57000005      -2.05500386E-04
   1.57249999      -2.05628763E-04
   1.57500005      -2.05768491E-04
   1.57749999      -2.05905686E-04
   1.58000004      -2.06028912E-04
   1.58249998      -2.06135694E-04
   1.58500004      -2.06235898E-04
   1.58749998      -2.06344252E-04
   1.59000003      -2.06470839E-04
   1.59249997      -2.06617595E-04
   1.59500003      -2.06772413E-04
   1.59749997      -2.06919329E-04
   1.60000002      -2.07049496E-04
   1.60249996      -2.07166828E-04
   1.60500002      -2.07282195E-04
   1.60749996      -2.07408171E-04
   1.61000001      -2.07550009E-04
   1.61249995      -2.07704172E-04
   1.61500001      -2.07859965E-04
   1.61749995      -2.08008962E-04
   1.62000000      -2.08149155E-04
   1.62249994      -2.08286860E-04
   1.62500000      -2.08429890E-04
   1.62750006      -2.08580313E-04
   1.63000000      -2.08734928E-04
   1.63250005      -2.08887650E-04
   1.63499999      -2.09035832E-04
   1.63750005      -2.09182079E-04
   1.63999999      -2.09333317E-04
   1.64250004      -2.09494261E-04
   1.64499998      -2.09664940E-04
   1.64750004      -2.09839433E-04
   1.64999998      -2.10008453E-04
   1.65250003      -2.10168510E-04
   1.65499997      -2.10322003E-04
   1.65750003      -2.10476152E-04
   1.65999997      -2.10636354E-04
   1.66250002      -2.10803599E-04
   1.66499996      -2.10972546E-04
   1.66750002      -2.11138977E-04
   1.66999996      -2.11298946E-04
   1.67250001      -2.11455350E-04
   1.67499995      -2.11611681E-04
   1.67750001      -2.11771956E-04
   1.67999995      -2.11935607E-04
   1.68250000      -2.12097453E-04
   1.68499994      -2.12252518E-04
   1.68750000      -2.12399900E-04
   1.69000006      -2.12544081E-04
   1.69250000      -2.12690473E-04
   1.69500005      -2.12842700E-04
   1.69749999      -2.12999759E-04
   1.70000005      -2.13158433E-04
   1.70249999      -2.13314124E-04
   1.70500004      -2.13466599E-04
   1.70749998      -2.13617735E-04
   1.71000004      -2.13771491E-04
   1.71249998      -2.13927618E-04
   1.71500003      -2.14084910E-04
   1.71749997      -2.14241009E-04
   1.72000003      -2.14396772E-04
   1.72249997      -2.14556727E-04
   1.72500002      -2.14726388E-04
   1.72749996      -2.14907544E-04
   1.73000002      -2.15095381E-04
   1.73249996      -2.15279753E-04
   1.73500001      -2.15453008E-04
   1.73749995      -2.15613996E-04
   1.74000001      -2.15772598E-04
   1.74249995      -2.15941734E-04
   1.74500000      -2.16131259E-04
   1.74749994      -2.16339045E-04
   1.75000000      -2.16552842E-04
   1.75250006      -2.16755754E-04
   1.75500000      -2.16935019E-04
   1.75750005      -2.17092995E-04
   1.75999999      -2.17242618E-04
   1.76250005      -2.17400520E-04
   1.76499999      -2.17576991E-04
   1.76750004      -2.17770634E-04
   1.76999998      -2.17968161E-04
   1.77250004      -2.18154761E-04
   1.77499998      -2.18321584E-04
   1.77750003      -2.18472269E-04
   1.77999997      -2.18618821E-04
   1.78250003      -2.18773712E-04
   1.78499997      -2.18941641E-04
   1.78750002      -2.19117705E-04
   1.78999996      -2.19291847E-04
   1.79250002      -2.19455454E-04
   1.79499996      -2.19606984E-04
   1.79750001      -2.19752634E-04
   1.79999995      -2.19902417E-04
   1.80250001      -2.20061949E-04
   1.80499995      -2.20230912E-04
   1.80750000      -2.20403745E-04
   1.80999994      -2.20574046E-04
   1.81250000      -2.20736867E-04
   1.81500006      -2.20892747E-04
   1.81750000      -2.21045440E-04
   1.82000005      -2.21200273E-04
   1.82249999      -2.21360926E-04
   1.82500005      -2.21529204E-04
   1.82749999      -2.21703056E-04
   1.83000004      -2.21879003E-04
   1.83249998      -2.22051051E-04
   1.83500004      -2.22213057E-04
   1.83749998      -2.22360788E-04
   1.84000003      -2.22494069E-04
   1.84249997      -2.22617309E-04
   1.84500003      -2.22738789E-04
   1.84749997      -2.22867428E-04
   1.85000002      -2.23006413E-04
   1.85249996      -2.23151888E-04
   1.85500002      -2.23292256E-04
   1.85749996      -2.23416195E-04
   1.86000001      -2.23519019E-04
   1.86249995      -2.23604351E-04
   1.86500001      -2.23684008E-04
   1.86749995      -2.23769981E-04
   1.87000000      -2.23869167E-04
   1.87249994      -2.23978524E-04
   1.87500000      -2.24089352E-04
   1.87750006      -2.24192088E-04
   1.88000000      -2.24283387E-04
   1.88250005      -2.24367031E-04
   1.88499999      -2.24452146E-04
   1.88750005      -2.24546369E-04
   1.88999999      -2.24653268E-04
   1.89250004      -2.24770178E-04
   1.89499998      -2.24891264E-04
   1.89750004      -2.25012394E-04
   1.89999998      -2.25132928E-04
   1.90250003      -2.25254043E-04
   1.90499997      -2.25377458E-04
   1.90750003      -2.25503944E-04
   1.90999997      -2.25632190E-04
   1.91250002      -2.25760974E-04
   1.91499996      -2.25890704E-04
   1.91750002      -2.26023185E-04
   1.91999996      -2.26157776E-04
   1.92250001      -2.26292352E-04
   1.92499995      -2.26421136E-04
   1.92750001      -2.26540433E-04
   1.92999995      -2.26649645E-04
   1.93250000      -2.26753327E-04
   1.93499994      -2.26858421E-04
   1.93750000      -2.26969481E-04
   1.94000006      -2.27083656E-04
   1.94250000      -2.27192606E-04
   1.94500005      -2.27285738E-04
   1.94749999      -2.27358483E-04
   1.95000005      -2.27416662E-04
   1.95249999      -2.27474040E-04
   1.95500004      -2.27544733E-04
   1.95749998      -2.27634257E-04
   1.96000004      -2.27735509E-04
   1.96249998      -2.27832046E-04
   1.96500003      -2.27909026E-04
   1.96749997      -2.27960583E-04
   1.97000003      -2.27996003E-04
   1.97249997      -2.28033925E-04
   1.97500002      -2.28092133E-04
   1.97749996      -2.28178062E-04
   1.98000002      -2.28283054E-04
   1.98249996      -2.28389530E-04
   1.98500001      -2.28479141E-04
   1.98749995      -2.28543635E-04
   1.99000001      -2.28588688E-04
   1.99249995      -2.28628967E-04
   1.99500000      -2.28679404E-04
   1.99749994      -2.28747886E-04
   2.00000000      -2.28831806E-04
   2.00250006      -2.28920413E-04
   2.00500011      -2.29001234E-04
   2.00749993      -2.29067635E-04
   2.00999999      -2.29119105E-04
   2.01250005      -2.29162310E-04
   2.01500010      -2.29205791E-04
   2.01749992      -2.29256388E-04
   2.01999998      -2.29316312E-04
   2.02250004      -2.29382102E-04
   2.02500010      -2.29448051E-04
   2.02749991      -2.29506812E-04
   2.02999997      -2.29554833E-04
   2.03250003      -2.29593468E-04
   2.03500009      -2.29629441E-04
   2.03749990      -2.29672820E-04
   2.03999996      -2.29730431E-04
   2.04250002      -2.29802550E-04
   2.04500008      -2.29881494E-04
   2.04749990      -2.29953861E-04
   2.04999995      -2.30009726E-04
   2.05250001      -2.30047110E-04
   2.05500007      -2.30075704E-04
   2.05749989      -2.30110294E-04
   2.05999994      -2.30163030E-04
   2.06250000      -2.30235615E-04
   2.06500006      -2.30316888E-04
   2.06750011      -2.30389065E-04
   2.06999993      -2.30439240E-04
   2.07249999      -2.30466103E-04
   2.07500005      -2.30481499E-04
   2.07750010      -2.30503530E-04
   2.07999992      -2.30544334E-04
   2.08249998      -2.30603735E-04
   2.08500004      -2.30669233E-04
   2.08750010      -2.30724661E-04
   2.08999991      -2.30759222E-04
   2.09249997      -2.30775200E-04
   2.09500003      -2.30784179E-04
   2.09750009      -2.30800826E-04
   2.09999990      -2.30832768E-04
   2.10249996      -2.30878999E-04
   2.10500002      -2.30929960E-04
   2.10750008      -2.30976802E-04
   2.10999990      -2.31015729E-04
   2.11249995      -2.31049286E-04
   2.11500001      -2.31080820E-04
   2.11750007      -2.31112805E-04
   2.11999989      -2.31144717E-04
   2.12249994      -2.31174228E-04
   2.12500000      -2.31202110E-04
   2.12750006      -2.31232596E-04
   2.13000011      -2.31270242E-04
   2.13249993      -2.31316284E-04
   2.13499999      -2.31366532E-04
   2.13750005      -2.31410668E-04
   2.14000010      -2.31440630E-04