   0.00000000       0.00000000    
   2.49999994E-03   0.00000000    
   4.99999989E-03   0.00000000    
   7.49999983E-03   0.00000000    
   9.99999978E-03   0.00000000    
   1.25000002E-02   0.00000000    
   1.49999997E-02   0.00000000    
   1.75000001E-02   0.00000000    
   1.99999996E-02   0.00000000    
   2.25000009E-02   0.00000000    
   2.50000004E-02   0.00000000    
   2.74999999E-02   0.00000000    
   2.99999993E-02   0.00000000    
   3.24999988E-02   0.00000000    
   3.50000001E-02   0.00000000    
   3.75000015E-02   3.62557952E-40
   3.99999991E-02  -2.17087336E-39
   4.25000004E-02   1.40920179E-40
   4.50000018E-02   8.69084467E-38
   4.74999994E-02   1.00098124E-37
   5.00000007E-02  -9.63627260E-37
   5.24999984E-02  -1.99897069E-36
   5.49999997E-02   5.09548282E-36
   5.75000010E-02   1.71356785E-35
   5.99999987E-02  -1.03686759E-35
   6.25000000E-02  -7.36436478E-35
   6.49999976E-02   2.92816274E-35
   6.75000027E-02   2.83326074E-34
   7.00000003E-02  -3.30372664E-34
   7.24999979E-02  -2.12769363E-33
   7.50000030E-02  -1.60783784E-34
   7.75000006E-02   1.16959117E-32
   7.99999982E-02   1.87769486E-32
   8.25000033E-02  -2.04376943E-32
   8.50000009E-02  -1.05104570E-31
   8.74999985E-02  -9.74526077E-32
   9.00000036E-02   1.80261118E-31
   9.25000012E-02   5.77372638E-31
   9.49999988E-02   4.30317214E-31
   9.74999964E-02  -7.90840156E-31
  0.100000001      -2.31208680E-30
  0.102499999      -1.96376901E-30
  0.104999997       1.73881118E-30
  0.107500002       6.93113223E-30
  0.109999999       8.45516949E-30
  0.112499997       1.68416104E-30
  0.115000002      -1.29277521E-29
  0.117500000      -2.81807185E-29
  0.119999997      -3.13807805E-29
  0.122500002      -7.24935303E-30
  0.125000000       5.38428142E-29
  0.127499998       1.35918148E-28
  0.129999995       1.72948232E-28
  0.132499993       5.52396430E-29
  0.135000005      -2.87941573E-28
  0.137500003      -7.36087054E-28
  0.140000001      -8.76810229E-28
  0.142499998      -1.62129802E-28
  0.144999996       1.57610990E-27
  0.147499993       3.50213874E-27
  0.150000006       3.68435021E-27
  0.152500004       1.50305290E-28
  0.155000001      -7.05476690E-27
  0.157499999      -1.41330533E-26
  0.159999996      -1.40917382E-26
  0.162499994      -7.18085724E-28
  0.165000007       2.52160544E-26
  0.167500004       5.12409963E-26
  0.170000002       5.47034732E-26
  0.172499999       1.35724181E-26
  0.174999997      -7.49635166E-26
  0.177499995      -1.76345812E-25
  0.180000007      -2.15760434E-25
  0.182500005      -1.06409719E-25
  0.185000002       1.87049472E-25
  0.187500000       5.73774923E-25
  0.189999998       8.07188511E-25
  0.192499995       5.65922552E-25
  0.194999993      -3.34654000E-25
  0.197500005      -1.68084841E-24
  0.200000003      -2.73390258E-24
  0.202500001      -2.44032405E-24
  0.204999998      -4.05372785E-26
  0.207499996       4.14104801E-24
  0.209999993       8.21404652E-24
  0.212500006       9.09619969E-24
  0.215000004       3.98569211E-24
  0.217500001      -7.46299493E-24
  0.219999999      -2.13575523E-23
  0.222499996      -2.96257249E-23
  0.224999994      -2.29482540E-23
  0.227500007       3.70398791E-24
  0.230000004       4.50693527E-23
  0.232500002       8.28274920E-23
  0.234999999       8.98015904E-23
  0.237499997       4.24684373E-23
  0.239999995      -6.15710165E-23
  0.242500007      -1.89675407E-22
  0.245000005      -2.74790949E-22
  0.247500002      -2.38288399E-22
  0.250000000      -3.26513378E-23
  0.252499998       3.12038387E-22
  0.254999995       6.64427576E-22
  0.257499993       8.17051790E-22
  0.259999990       5.69853478E-22
  0.262499988      -1.48245644E-22
  0.264999986      -1.17173981E-21
  0.267500013      -2.07335628E-21
  0.270000011      -2.27504072E-21
  0.272500008      -1.29779791E-21
  0.275000006       9.22164110E-22
  0.277500004       3.79275599E-21
  0.280000001       6.06648364E-21
  0.282499999       6.19457305E-21
  0.284999996       3.01201745E-21
  0.287499994      -3.45197535E-21
  0.289999992      -1.14019246E-20
  0.292499989      -1.73508145E-20
  0.294999987      -1.71102407E-20
  0.297500014      -7.62744778E-21
  0.300000012       1.08591722E-20
  0.302500010       3.32894928E-20
  0.305000007       4.99643715E-20
  0.307500005       4.91997496E-20
  0.310000002       2.23297536E-20
  0.312500000      -3.03232166E-20
  0.314999998      -9.50777358E-20
  0.317499995      -1.45141957E-19
  0.319999993      -1.47619867E-19
  0.322499990      -7.70053645E-20
  0.324999988       6.85204237E-20
  0.327499986       2.54793032E-19
  0.330000013       4.11280094E-19
  0.332500011       4.48172556E-19
  0.335000008       2.90436684E-19
  0.337500006      -8.00685694E-20
  0.340000004      -5.90849476E-19
  0.342500001      -1.07267769E-18
  0.344999999      -1.29533775E-18
  0.347499996      -1.04583723E-18
  0.349999994      -2.30559173E-19
  0.352499992       1.03515905E-18
  0.354999989       2.39481154E-18
  0.357499987       3.31180577E-18
  0.360000014       3.23153430E-18
  0.362500012       1.81021425E-18
  0.365000010      -8.65130522E-19
  0.367500007      -4.16331169E-18
  0.370000005      -6.98630955E-18
  0.372500002      -8.06638988E-18
  0.375000000      -6.42721652E-18
  0.377499998      -1.86659488E-18
  0.379999995       4.73259311E-18
  0.382499993       1.14404596E-17
  0.384999990       1.57496678E-17
  0.387499988       1.54046408E-17
  0.389999986       9.35362685E-18
  0.392500013      -1.52459634E-18
  0.395000011      -1.42670044E-17
  0.397500008      -2.44540877E-17
  0.400000006      -2.75717645E-17
  0.402500004      -2.07600678E-17
  0.405000001      -4.36392905E-18
  0.407499999       1.73672840E-17
  0.409999996       3.69199559E-17
  0.412499994       4.55958861E-17
  0.414999992       3.66147263E-17
  0.417499989       8.33910471E-18
  0.419999987      -3.35490494E-17
  0.422500014      -7.60133918E-17
  0.425000012      -1.01383967E-16
  0.427500010      -9.26437786E-17
  0.430000007      -4.01382543E-17
  0.432500005       5.22699763E-17
  0.435000002       1.63993652E-16
  0.437500000       2.59579388E-16
  0.439999998       2.96644623E-16
  0.442499995       2.39042915E-16
  0.444999993       7.21924593E-17
  0.447499990      -1.84363722E-16
  0.449999988      -4.72732423E-16
  0.452499986      -7.05046244E-16
  0.455000013      -7.85277522E-16
  0.457500011      -6.40457758E-16
  0.460000008      -2.52487313E-16
  0.462500006       3.21010479E-16
  0.465000004       9.47250921E-16
  0.467500001       1.44532069E-15
  0.469999999       1.63601206E-15
  0.472499996       1.40152814E-15
  0.474999994       7.35792004E-16
  0.477499992      -2.34182693E-16
  0.479999989      -1.26845640E-15
  0.482499987      -2.07559050E-15
  0.485000014      -2.40024256E-15
  0.487500012      -2.11035675E-15
  0.490000010      -1.25384223E-15
  0.492500007      -6.15451956E-17
  0.495000005       1.11086328E-15
  0.497500002       1.88924050E-15
  0.500000000       2.00506399E-15
  0.502499998       1.39785360E-15
  0.504999995       2.59971485E-16
  0.507499993      -9.96736809E-16
  0.509999990      -1.85027020E-15
  0.512499988      -1.82813279E-15
  0.514999986      -6.74569151E-16
  0.517499983       1.52336991E-15
  0.519999981       4.29302302E-15
  0.522499979       6.84045512E-15
  0.524999976       8.22012780E-15
  0.527499974       7.58005549E-15
  0.529999971       4.42793546E-15
  0.532500029      -1.15081729E-15
  0.535000026      -8.39211276E-15
  0.537500024      -1.59186358E-14
  0.540000021      -2.19842133E-14
  0.542500019      -2.48597411E-14
  0.545000017      -2.32749492E-14
  0.547500014      -1.67968920E-14
  0.550000012      -6.02500507E-15
  0.552500010       7.47957960E-15
  0.555000007       2.15389908E-14
  0.557500005       3.38957581E-14
  0.560000002       4.27814183E-14
  0.562500000       4.73213963E-14
  0.564999998       4.76137176E-14
  0.567499995       4.44209048E-14
  0.569999993       3.85582069E-14
  0.572499990       3.02014849E-14
  0.574999988       1.84159837E-14
  0.577499986       1.17823257E-15
  0.579999983      -2.39773191E-14
  0.582499981      -5.87812676E-14
  0.584999979      -1.02845128E-13
  0.587499976      -1.52544183E-13
  0.589999974      -2.00638619E-13
  0.592499971      -2.36931053E-13
  0.595000029      -2.49951616E-13
  0.597500026      -2.29329197E-13
  0.600000024      -1.68257240E-13
  0.602500021      -6.54033373E-14
  0.605000019       7.42366102E-14
  0.607500017       2.39721518E-13
  0.610000014       4.15599548E-13
  0.612500012       5.83932696E-13
  0.615000010       7.26368943E-13
  0.617500007       8.25850185E-13
  0.620000005       8.67805773E-13
  0.622500002       8.40985268E-13
  0.625000000       7.38222417E-13
  0.627499998       5.57439240E-13
  0.629999995       3.03011305E-13
  0.632499993      -1.25753535E-14
  0.634999990      -3.66996147E-13
  0.637499988      -7.26505336E-13
  0.639999986      -1.04457502E-12
  0.642499983      -1.26081643E-12
  0.644999981      -1.30018099E-12
  0.647499979      -1.07250211E-12
  0.649999976      -4.72711226E-13
  0.652499974       6.17963092E-13
  0.654999971       2.32952438E-12
  0.657500029       4.79958868E-12
  0.660000026       8.16896377E-12
  0.662500024       1.25770947E-11
  0.665000021       1.81579942E-11
  0.667500019       2.50362318E-11
  0.670000017       3.33224871E-11
  0.672500014       4.31063067E-11
  0.675000012       5.44425095E-11
  0.677500010       6.73279280E-11
  0.680000007       8.16654661E-11
  0.682500005       9.72117942E-11
  0.685000002       1.13506551E-10
  0.687500000       1.29778660E-10
  0.689999998       1.44828052E-10
  0.692499995       1.56880134E-10
  0.694999993       1.63401945E-10
  0.697499990       1.60872010E-10
  0.699999988       1.44495707E-10
  0.702499986       1.07833603E-10
  0.704999983       4.23248346E-11
  0.707499981      -6.33259140E-11
  0.709999979      -2.23948110E-10
  0.712499976      -4.58918931E-10
  0.714999974      -7.93469013E-10
  0.717499971      -1.26037936E-09
  0.720000029      -1.90214711E-09
  0.722500026      -2.77376655E-09
  0.725000024      -3.94624289E-09
  0.727500021      -5.51105561E-09
  0.730000019      -7.58576579E-09
  0.732500017      -1.03208482E-08
  0.735000014      -1.39082115E-08
  0.737500012      -1.85913649E-08
  0.740000010      -2.46777390E-08
  0.742500007      -3.25533343E-08
  0.745000005      -4.27000266E-08
  0.747500002      -5.57154713E-08
  0.750000000      -7.23363556E-08
  0.752499998      -9.34640028E-08
  0.754999995      -1.20193661E-07
  0.757499993      -1.53846869E-07
  0.759999990      -1.96007576E-07
  0.762499988      -2.48559559E-07
  0.764999986      -3.13727895E-07
  0.767499983      -3.94119127E-07
  0.769999981      -4.92767015E-07
  0.772499979      -6.13173540E-07
  0.774999976      -7.59352872E-07
  0.777499974      -9.35873459E-07
  0.779999971      -1.14789214E-06
  0.782500029      -1.40119096E-06
  0.785000026      -1.70219914E-06
  0.787500024      -2.05801143E-06
  0.790000021      -2.47639014E-06
  0.792500019      -2.96577628E-06
  0.795000017      -3.53525570E-06
  0.797500014      -4.19454273E-06
  0.800000012      -4.95393124E-06
  0.802500010      -5.82422945E-06
  0.805000007      -6.81668371E-06
  0.807500005      -7.94287098E-06
  0.810000002      -9.21461469E-06
  0.812500000      -1.06438256E-05
  0.814999998      -1.22423880E-05
  0.817499995      -1.40220054E-05
  0.819999993      -1.59940028E-05
  0.822499990      -1.81692085E-05
  0.824999988      -2.05577544E-05
  0.827499986      -2.31688937E-05
  0.829999983      -2.60108282E-05
  0.832499981      -2.90906119E-05
  0.834999979      -3.24138928E-05
  0.837499976      -3.59849073E-05
  0.839999974      -3.98061638E-05
  0.842499971      -4.38784955E-05
  0.845000029      -4.82010655E-05
  0.847500026      -5.27711527E-05
  0.850000024      -5.75842496E-05
  0.852500021      -6.26340698E-05
  0.855000019      -6.79125442E-05
  0.857500017      -7.34098649E-05
  0.860000014      -7.91145358E-05
  0.862500012      -8.50136639E-05
  0.865000010      -9.10930539E-05
  0.867500007      -9.73372807E-05
  0.870000005      -1.03729835E-04
  0.872500002      -1.10253204E-04
  0.875000000      -1.16889212E-04
  0.877499998      -1.23618840E-04
  0.879999995      -1.30422530E-04
  0.882499993      -1.37280149E-04
  0.884999990      -1.44171237E-04
  0.887499988      -1.51075001E-04
  0.889999986      -1.57970018E-04
  0.892499983      -1.64834404E-04
  0.894999981      -1.71645166E-04
  0.897499979      -1.78378876E-04
  0.899999976      -1.85011086E-04
  0.902499974      -1.91516549E-04
  0.904999971      -1.97868416E-04
  0.907500029      -2.04038137E-04
  0.910000026      -2.09995633E-04
  0.912500024      -2.15708642E-04
  0.915000021      -2.21143098E-04
  0.917500019      -2.26262986E-04
  0.920000017      -2.31030572E-04
  0.922500014      -2.35405401E-04
  0.925000012      -2.39345798E-04
  0.927500010      -2.42808004E-04
  0.930000007      -2.45746953E-04
  0.932500005      -2.48117984E-04
  0.935000002      -2.49874662E-04
  0.937500000      -2.50972342E-04
  0.939999998      -2.51367543E-04
  0.942499995      -2.51017365E-04
  0.944999993      -2.49881850E-04
  0.947499990      -2.47926044E-04
  0.949999988      -2.45118368E-04
  0.952499986      -2.41434347E-04
  0.954999983      -2.36855136E-04
  0.957499981      -2.31370170E-04
  0.959999979      -2.24975331E-04
  0.962499976      -2.17673805E-04
  0.964999974      -2.09479098E-04
  0.967499971      -2.00414710E-04
  0.970000029      -1.90512248E-04
  0.972500026      -1.79815252E-04
  0.975000024      -1.68374172E-04
  0.977500021      -1.56248017E-04
  0.980000019      -1.43504047E-04
  0.982500017      -1.30215849E-04
  0.985000014      -1.16465540E-04
  0.987500012      -1.02338759E-04
  0.990000010      -8.79261133E-05
  0.992500007      -7.33213965E-05
  0.995000005      -5.86181086E-05
  0.997500002      -4.39108408E-05
   1.00000000      -2.92891764E-05
   1.00250006      -1.48444215E-05
   1.00500000      -6.64414870E-07
   1.00750005       1.31716897E-05
   1.00999999       2.65891485E-05
   1.01250005       3.95215138E-05
   1.01499999       5.19114146E-05
   1.01750004       6.37085977E-05
   1.01999998       7.48700186E-05
   1.02250004       8.53631063E-05
   1.02499998       9.51638795E-05
   1.02750003       1.04254999E-04
   1.02999997       1.12631009E-04
   1.03250003       1.20295073E-04
   1.03499997       1.27257343E-04
   1.03750002       1.33534690E-04
   1.03999996       1.39147611E-04
   1.04250002       1.44120801E-04
   1.04499996       1.48484658E-04
   1.04750001       1.52274370E-04
   1.04999995       1.55525820E-04
   1.05250001       1.58281342E-04
   1.05499995       1.60579730E-04
   1.05750000       1.62458979E-04
   1.05999994       1.63957695E-04
   1.06250000       1.65113495E-04
   1.06500006       1.65962148E-04
   1.06750000       1.66540078E-04
   1.07000005       1.66879676E-04
   1.07249999       1.67012753E-04
   1.07500005       1.66968151E-04
   1.07749999       1.66772195E-04
   1.08000004       1.66449317E-04
   1.08249998       1.66021026E-04
   1.08500004       1.65507678E-04
   1.08749998       1.64928410E-04
   1.09000003       1.64300422E-04
   1.09249997       1.63637029E-04
   1.09500003       1.62950440E-04
   1.09749997       1.62249431E-04
   1.10000002       1.61545118E-04
   1.10249996       1.60847703E-04
   1.10500002       1.60168798E-04
   1.10749996       1.59519157E-04
   1.11000001       1.58905299E-04
   1.11249995       1.58331153E-04
   1.11500001       1.57799790E-04
   1.11749995       1.57312636E-04
   1.12000000       1.56874448E-04
   1.12249994       1.56489972E-04
   1.12500000       1.56162787E-04
   1.12750006       1.55894275E-04
   1.13000000       1.55684596E-04
   1.13250005       1.55531103E-04
   1.13499999       1.55434478E-04
   1.13750005       1.55393675E-04
   1.13999999       1.55409347E-04
   1.14250004       1.55478512E-04
   1.14499998       1.55596368E-04
   1.14750004       1.55758418E-04
   1.14999998       1.55958493E-04
   1.15250003       1.56192182E-04
   1.15499997       1.56453520E-04
   1.15750003       1.56740381E-04
   1.15999997       1.57049653E-04
   1.16250002       1.57375776E-04
   1.16499996       1.57714661E-04
   1.16750002       1.58059935E-04
   1.16999996       1.58408497E-04
   1.17250001       1.58753624E-04
   1.17499995       1.59090414E-04
   1.17750001       1.59415446E-04
   1.17999995       1.59724281E-04
   1.18250000       1.60015261E-04
   1.18499994       1.60284937E-04
   1.18750000       1.60531548E-04
   1.19000006       1.60754324E-04
   1.19250000       1.60953001E-04
   1.19500005       1.61125077E-04
   1.19749999       1.61269447E-04
   1.20000005       1.61383054E-04
   1.20249999       1.61462740E-04
   1.20500004       1.61509612E-04
   1.20749998       1.61524833E-04
   1.21000004       1.61512435E-04
   1.21249998       1.61472402E-04
   1.21500003       1.61407297E-04
   1.21749997       1.61317002E-04
   1.22000003       1.61202683E-04
   1.22249997       1.61063726E-04
   1.22500002       1.60901895E-04
   1.22749996       1.60717827E-04
   1.23000002       1.60511801E-04
   1.23249996       1.60284006E-04
   1.23500001       1.60037103E-04
   1.23749995       1.59772811E-04
   1.24000001       1.59495001E-04
   1.24249995       1.59205796E-04
   1.24500000       1.58906158E-04
   1.24749994       1.58595300E-04
   1.25000000       1.58272436E-04
   1.25250006       1.57938208E-04
   1.25500000       1.57593429E-04
   1.25750005       1.57241477E-04
   1.25999999       1.56882787E-04
   1.26250005       1.56518858E-04
   1.26499999       1.56149326E-04
   1.26750004       1.55772766E-04
   1.26999998       1.55387548E-04
   1.27250004       1.54993410E-04
   1.27499998       1.54590598E-04
   1.27750003       1.54181369E-04
   1.27999997       1.53766174E-04
   1.28250003       1.53343572E-04
   1.28499997       1.52911307E-04
   1.28750002       1.52466979E-04
   1.28999996       1.52011984E-04
   1.29250002       1.51546366E-04
   1.29499996       1.51074419E-04
   1.29750001       1.50596679E-04
   1.29999995       1.50112683E-04
   1.30250001       1.49618718E-04
   1.30499995       1.49111220E-04
   1.30750000       1.48589388E-04
   1.30999994       1.48053135E-04
   1.31250000       1.47504368E-04
   1.31500006       1.46947292E-04
   1.31750000       1.46384002E-04
   1.32000005       1.45814993E-04
   1.32249999       1.45239275E-04
   1.32500005       1.44655787E-04
   1.32749999       1.44063291E-04
   1.33000004       1.43460784E-04
   1.33249998       1.42850753E-04
   1.33500004       1.42234552E-04
   1.33749998       1.41615252E-04
   1.34000003       1.40994802E-04
   1.34249997       1.40373697E-04
   1.34500003       1.39751195E-04
   1.34749997       1.39126496E-04
   1.35000002       1.38497970E-04
   1.35249996       1.37865412E-04
   1.35500002       1.37228897E-04
   1.35749996       1.36590257E-04
   1.36000001       1.35950744E-04
   1.36249995       1.35312977E-04
   1.36500001       1.34676186E-04
   1.36749995       1.34038841E-04
   1.37000000       1.33399095E-04
   1.37249994       1.32756322E-04
   1.37500000       1.32110523E-04
   1.37750006       1.31462322E-04
   1.38000000       1.30813991E-04
   1.38250005       1.30165892E-04
   1.38499999       1.29516702E-04
   1.38750005       1.28865635E-04
   1.38999999       1.28210173E-04
   1.39250004       1.27550113E-04
   1.39499998       1.26886996E-04
   1.39750004       1.26222047E-04
   1.39999998       1.25556166E-04
   1.40250003       1.24890081E-04
   1.40499997       1.24222410E-04
   1.40750003       1.23552512E-04
   1.40999997       1.22879763E-04
   1.41250002       1.22205354E-04
   1.41499996       1.21530938E-04
   1.41750002       1.20857920E-04
   1.41999996       1.20187018E-04
   1.42250001       1.19518292E-04
   1.42499995       1.18850592E-04
   1.42750001       1.18184405E-04
   1.42999995       1.17518881E-04
   1.43250000       1.16853800E-04
   1.43499994       1.16189156E-04
   1.43750000       1.15524963E-04
   1.44000006       1.14862705E-04
   1.44250000       1.14203103E-04
   1.44500005       1.13546383E-04
   1.44749999       1.12893998E-04
   1.45000005       1.12243928E-04
   1.45249999       1.11596324E-04
   1.45500004       1.10950532E-04
   1.45749998       1.10305868E-04
   1.46000004       1.09662658E-04
   1.46249998       1.09020781E-04
   1.46500003       1.08381173E-04
   1.46749997       1.07744658E-04
   1.47000003       1.07111089E-04
   1.47249997       1.06481435E-04
   1.47500002       1.05855186E-04
   1.47749996       1.05232015E-04
   1.48000002       1.04611201E-04
   1.48249996       1.03992003E-04
   1.48500001       1.03374230E-04
   1.48749995       1.02758480E-04
   1.49000001       1.02144455E-04
   1.49249995       1.01532270E-04
   1.49500000       1.00923615E-04
   1.49749994       1.00319223E-04
   1.50000000       9.97181996E-05
   1.50250006       9.91198322E-05
   1.50500000       9.85234510E-05
   1.50750005       9.79286633E-05
   1.50999999       9.73349452E-05
   1.51250005       9.67425294E-05
   1.51499999       9.61514306E-05
   1.51750004       9.55620781E-05
   1.51999998       9.49747700E-05
   1.52250004       9.43886698E-05
   1.52499998       9.38049561E-05
   1.52750003       9.32249095E-05
   1.52999997       9.26493158E-05
   1.53250003       9.20792081E-05
   1.53499997       9.15130004E-05
   1.53750002       9.09504161E-05
   1.53999996       9.03894688E-05
   1.54250002       8.98299040E-05
   1.54499996       8.92718381E-05
   1.54750001       8.87171118E-05
   1.54999995       8.81675733E-05
   1.55250001       8.76233462E-05
   1.55499995       8.70844960E-05
   1.55750000       8.65482216E-05
   1.55999994       8.60136061E-05
   1.56250000       8.54793834E-05
   1.56500006       8.49452772E-05
   1.56750000       8.44127353E-05
   1.57000005       8.38845153E-05
   1.57249999       8.33617887E-05
   1.57500005       8.28457196E-05
   1.57749999       8.23351293E-05
   1.58000004       8.18279223E-05
   1.58249998       8.13211882E-05
   1.58500004       8.08139594E-05
   1.58749998       8.03072035E-05
   1.59000003       7.98030233E-05
   1.59249997       7.93041982E-05
   1.59500003       7.88107282E-05
   1.59749997       7.83219512E-05
   1.60000002       7.78359899E-05
   1.60249996       7.73517313E-05
   1.60500002       7.68693062E-05
   1.60749996       7.63898279E-05
   1.61000001       7.59159084E-05
   1.61249995       7.54492648E-05
   1.61500001       7.49896353E-05
   1.61749995       7.45353755E-05
   1.62000000       7.40843752E-05
   1.62249994       7.36352158E-05
   1.62500000       7.31879627E-05
   1.62750006       7.27451625E-05
   1.63000000       7.23083431E-05
   1.63250005       7.18779484E-05
   1.63499999       7.14537018E-05
   1.63750005       7.10337845E-05
   1.63999999       7.06168648E-05
   1.64250004       7.02020116E-05
   1.64499998       6.97899886E-05
   1.64750004       6.93821712E-05
   1.64999998       6.89791414E-05
   1.65250003       6.85811610E-05
   1.65499997       6.81880192E-05
   1.65750003       6.77989156E-05
   1.65999997       6.74137918E-05
   1.66250002       6.70321242E-05
   1.66499996       6.66542983E-05
   1.66750002       6.62802413E-05
   1.66999996       6.59099242E-05
   1.67250001       6.55433687E-05
   1.67499995       6.51813898E-05
   1.67750001       6.48244022E-05
   1.67999995       6.44735264E-05
   1.68250000       6.41282386E-05
   1.68499994       6.37881894E-05
   1.68750000       6.34523021E-05
   1.69000006       6.31209114E-05
   1.69250000       6.27934860E-05
   1.69500005       6.24708409E-05
   1.69749999       6.21530635E-05
   1.70000005       6.18393969E-05
   1.70249999       6.15291574E-05
   1.70500004       6.12211297E-05
   1.70749998       6.09156195E-05
   1.71000004       6.06141220E-05
   1.71249998       6.03180379E-05
   1.71500003       6.00282401E-05
   1.71749997       5.97436556E-05
   1.72000003       5.94627745E-05
   1.72249997       5.91837088E-05
   1.72500002       5.89060728E-05
   1.72749996       5.86310161E-05
   1.73000002       5.83610090E-05
   1.73249996       5.80976157E-05
   1.73500001       5.78406616E-05
   1.73749995       5.75883932E-05
   1.74000001       5.73379475E-05
   1.74249995       5.70875236E-05
   1.74500000       5.68377764E-05
   1.74749994       5.65906703E-05
   1.75000000       5.63484173E-05
   1.75250006       5.61131164E-05
   1.75500000       5.58839092E-05
   1.75750005       5.56595405E-05
   1.75999999       5.54378894E-05
   1.76250005       5.52181918E-05
   1.76499999       5.50008044E-05
   1.76750004       5.47870732E-05
   1.76999998       5.45775438E-05
   1.77250004       5.43725364E-05
   1.77499998       5.41715781E-05
   1.77750003       5.39744251E-05
   1.77999997       5.37817032E-05
   1.78250003       5.35944964E-05
   1.78499997       5.34131177E-05
   1.78750002       5.32362938E-05
   1.78999996       5.30612015E-05
   1.79250002       5.28856763E-05
   1.79499996       5.27087323E-05
   1.79750001       5.25325049E-05
   1.79999995       5.23605813E-05
   1.80250001       5.21966103E-05
   1.80499995       5.20416506E-05
   1.80750000       5.18938432E-05
   1.80999994       5.17488406E-05
   1.81250000       5.16030996E-05
   1.81500006       5.14549502E-05
   1.81750000       5.13054874E-05
   1.82000005       5.11586040E-05
   1.82249999       5.10171812E-05
   1.82500005       5.08825615E-05
   1.82749999       5.07538498E-05
   1.83000004       5.06285105E-05
   1.83249998       5.05043608E-05
   1.83500004       5.03809024E-05
   1.83749998       5.02586990E-05
   1.84000003       5.01385293E-05
   1.84249997       5.00210954E-05
   1.84500003       4.99059497E-05
   1.84749997       4.97924739E-05
   1.85000002       4.96804278E-05
   1.85249996       4.95701024E-05
   1.85500002       4.94623200E-05
   1.85749996       4.93574589E-05
   1.86000001       4.92555046E-05
   1.86249995       4.91558967E-05
   1.86500001       4.90579150E-05
   1.86749995       4.89615559E-05
   1.87000000       4.88669502E-05
   1.87249994       4.87743964E-05
   1.87500000       4.86835852E-05
   1.87750006       4.85940036E-05
   1.88000000       4.85059063E-05
   1.88250005       4.84204138E-05
   1.88499999       4.83389922E-05
   1.88750005       4.82626128E-05
   1.88999999       4.81907991E-05
   1.89250004       4.81213610E-05
   1.89499998       4.80517083E-05
   1.89750004       4.79805713E-05
   1.89999998       4.79090777E-05
   1.90250003       4.78402180E-05
   1.90499997       4.77769972E-05
   1.90750003       4.77202339E-05
   1.90999997       4.76678724E-05
   1.91250002       4.76158712E-05
   1.91499996       4.75610104E-05
   1.91750002       4.75028974E-05
   1.91999996       4.74449334E-05
   1.92250001       4.73918917E-05
   1.92499995       4.73470718E-05
   1.92750001       4.73097462E-05
   1.92999995       4.72753200E-05
   1.93250000       4.72380016E-05
   1.93499994       4.71940912E-05
   1.93750000       4.71447529E-05
   1.94000006       4.70953310E-05
   1.94250000       4.70524137E-05
   1.94500005       4.70198502E-05
   1.94749999       4.69967781E-05
   1.95000005       4.69783263E-05
   1.95249999       4.69585102E-05
   1.95500004       4.69334373E-05
   1.95749998       4.69032238E-05
   1.96000004       4.68714388E-05
   1.96249998       4.68428625E-05
   1.96500003       4.68206999E-05
   1.96749997       4.68055623E-05
   1.97000003       4.67956925E-05
   1.97249997       4.67882928E-05
   1.97500002       4.67810569E-05
   1.97749996       4.67728969E-05
   1.98000002       4.67638347E-05
   1.98249996       4.67544232E-05
   1.98500001       4.67453865E-05
   1.98749995       4.67375503E-05
   1.99000001       4.67315622E-05
   1.99249995       4.67277750E-05
   1.99500000       4.67259015E-05
   1.99749994       4.67250429E-05
   2.00000000       4.67243226E-05
   2.00250006       4.67233258E-05
   2.00500011       4.67227692E-05
   2.00749993       4.67237551E-05
   2.00999999       4.67270256E-05
   2.01250005       4.67319987E-05
   2.01500010       4.67366845E-05
   2.01749992       4.67389800E-05
   2.01999998       4.67383834E-05
   2.02250004       4.67365389E-05
   2.02500010       4.67368845E-05
   2.02749991       4.67424943E-05
   2.02999997       4.67539066E-05
   2.03250003       4.67684731E-05
   2.03500009       4.67813952E-05
   2.03749990       4.67886421E-05
   2.03999996       4.67894861E-05
   2.04250002       4.67870559E-05
   2.04500008       4.67866994E-05
   2.04749990       4.67928257E-05
   2.04999995       4.68065155E-05
   2.05250001       4.68250655E-05
   2.05500007       4.68439976E-05
   2.05749989       4.68597718E-05
   2.05999994       4.68717772E-05
   2.06250000       4.68823164E-05
   2.06500006       4.68947910E-05
   2.06750011       4.69115475E-05
   2.06999993       4.69328297E-05
   2.07249999       4.69573097E-05
   2.07500005       4.69836123E-05
   2.07750010       4.70113337E-05
   2.07999992       4.70412160E-05
   2.08249998       4.70740961E-05
   2.08500004       4.71099738E-05
   2.08750010       4.71476160E-05
   2.08999991       4.71854983E-05
   2.09249997       4.72229003E-05
   2.09500003       4.72604588E-05
   2.09750009       4.72997890E-05
   2.09999990       4.73421314E-05
   2.10249996       4.73873988E-05
   2.10500002       4.74340959E-05
   2.10750008       4.74803819E-05
   2.10999990       4.75253401E-05
   2.11249995       4.75693632E-05
   2.11500001       4.76134956E-05
   2.11750007       4.76582172E-05
   2.11999989       4.77026879E-05
   2.12249994       4.77450667E-05
   2.12500000       4.77840440E-05
   2.12750006       4.78200091E-05
   2.13000011       4.78552574E-05
   2.13249993       4.78925249E-05
   2.13499999       4.79329465E-05
   2.13750005       4.79747614E-05
   2.14000010       4.80137714E-05