   0.00000000       0.00000000    
   2.49999994E-03   0.00000000    
   4.99999989E-03   0.00000000    
   7.49999983E-03   0.00000000    
   9.99999978E-03   0.00000000    
   1.25000002E-02   0.00000000    
   1.49999997E-02   0.00000000    
   1.75000001E-02   0.00000000    
   1.99999996E-02   0.00000000    
   2.25000009E-02   0.00000000    
   2.50000004E-02   0.00000000    
   2.74999999E-02  -8.94033137E-31
   2.99999993E-02   1.29933285E-29
   3.24999988E-02  -1.06397639E-28
   3.50000001E-02  -3.07302375E-29
   3.75000015E-02   1.62595037E-27
   3.99999991E-02  -7.59861263E-28
   4.25000004E-02  -1.34498658E-26
   4.50000018E-02   6.50134168E-27
   4.74999994E-02   7.47906205E-26
   5.00000007E-02  -3.46328550E-26
   5.24999984E-02  -3.16319270E-25
   5.49999997E-02   2.11418692E-25
   5.75000010E-02   1.26935095E-24
   5.99999987E-02  -1.13419068E-24
   6.25000000E-02  -5.77239343E-24
   6.49999976E-02   2.94881137E-24
   6.75000027E-02   2.50211233E-23
   7.00000003E-02   6.97362901E-24
   7.24999979E-02  -7.91966682E-23
   7.50000030E-02  -9.23564585E-23
   7.75000006E-02   1.38334787E-22
   7.99999982E-02   3.76564583E-22
   8.25000033E-02   4.35535249E-23
   8.50000009E-02  -7.92850901E-22
   8.74999985E-02  -9.09538095E-22
   9.00000036E-02   5.45253690E-22
   9.25000012E-02   2.15105814E-21
   9.49999988E-02   1.44129568E-21
   9.74999964E-02  -1.47560095E-21
  0.100000001      -3.42736592E-21
  0.102499999      -2.44974829E-21
  0.104999997      -1.92310695E-22
  0.107500002       2.07782762E-21
  0.109999999       6.50874416E-21
  0.112499997       1.22882963E-20
  0.115000002       8.54388150E-21
  0.117500000      -1.55255936E-20
  0.119999997      -4.71870835E-20
  0.122500002      -4.63398890E-20
  0.125000000       1.66988152E-20
  0.127499998       1.11373562E-19
  0.129999995       1.46603844E-19
  0.132499993       4.44981164E-20
  0.135000005      -1.66430678E-19
  0.137500003      -3.32857556E-19
  0.140000001      -2.76450611E-19
  0.142499998       5.17930416E-20
  0.144999996       4.90831915E-19
  0.147499993       7.40811738E-19
  0.150000006       5.42055850E-19
  0.152500004      -1.53219298E-19
  0.155000001      -1.09395949E-18
  0.157499999      -1.75002652E-18
  0.159999996      -1.48200450E-18
  0.162499994       7.94249518E-20
  0.165000007       2.54101757E-18
  0.167500004       4.51924958E-18
  0.170000002       4.13457875E-18
  0.172499999       2.88607141E-19
  0.174999997      -5.94231621E-18
  0.177499995      -1.09702579E-17
  0.180000007      -1.02881556E-17
  0.182500005      -1.62048146E-18
  0.185000002       1.22679107E-17
  0.187500000       2.35494929E-17
  0.189999998       2.31766710E-17
  0.192499995       6.92954966E-18
  0.194999993      -2.01162070E-17
  0.197500005      -4.41573198E-17
  0.200000003      -4.89455606E-17
  0.202500001      -2.50687524E-17
  0.204999998       2.24986923E-17
  0.207499996       7.30998632E-17
  0.209999993       9.76383746E-17
  0.212500006       7.28626410E-17
  0.215000004      -3.18050263E-18
  0.217500001      -1.03277741E-16
  0.219999999      -1.78118257E-16
  0.222499996      -1.78619899E-16
  0.224999994      -8.37619433E-17
  0.227500007       8.23679124E-17
  0.230000004       2.56986329E-16
  0.232500002       3.66872786E-16
  0.234999999       3.60754138E-16
  0.237499997       2.23813554E-16
  0.239999995      -3.30193659E-17
  0.242500007      -3.91489523E-16
  0.245000005      -8.21317503E-16
  0.247500002      -1.23781393E-15
  0.250000000      -1.44872947E-15
  0.252499998      -1.15375978E-15
  0.254999995      -5.48784309E-17
  0.257499993       1.92474177E-15
  0.259999990       4.40426893E-15
  0.262499988       6.44483187E-15
  0.264999986       6.72599937E-15
  0.267500013       4.03878650E-15
  0.270000011      -2.02338193E-15
  0.272500008      -1.04483344E-14
  0.275000006      -1.86151177E-14
  0.277500004      -2.28214867E-14
  0.280000001      -1.95835864E-14
  0.282499999      -7.37868866E-15
  0.284999996       1.18927475E-14
  0.287499994       3.26185917E-14
  0.289999992       4.69670858E-14
  0.292499989       4.79839557E-14
  0.294999987       3.31279498E-14
  0.297500014       6.43718909E-15
  0.300000012      -2.22345725E-14
  0.302500010      -4.12198216E-14
  0.305000007      -4.28296111E-14
  0.307500005      -2.81714925E-14
  0.310000002      -8.20398335E-15
  0.312500000       2.80485987E-16
  0.314999998      -1.73203957E-14
  0.317499995      -6.45792895E-14
  0.319999993      -1.28419126E-13
  0.322499990      -1.79881297E-13
  0.324999988      -1.82194903E-13
  0.327499986      -1.04246019E-13
  0.330000013       6.48485646E-14
  0.332500011       3.05461900E-13
  0.335000008       5.66115243E-13
  0.337500006       7.73037287E-13
  0.340000004       8.48691614E-13
  0.342500001       7.33735284E-13
  0.344999999       4.05329416E-13
  0.347499996      -1.13735925E-13
  0.349999994      -7.56665401E-13
  0.352499992      -1.42247488E-12
  0.354999989      -1.98976122E-12
  0.357499987      -2.33193217E-12
  0.360000014      -2.33485735E-12
  0.362500012      -1.91957973E-12
  0.365000010      -1.06987357E-12
  0.367500007       1.42292862E-13
  0.370000005       1.54663836E-12
  0.372500002       2.89317507E-12
  0.375000000       3.90404419E-12
  0.377499998       4.34774482E-12
  0.379999995       4.11059598E-12
  0.382499993       3.23538548E-12
  0.384999990       1.90595608E-12
  0.387499988       3.76675362E-13
  0.389999986      -1.13095460E-12
  0.392500013      -2.52562533E-12
  0.395000011      -3.89590226E-12
  0.397500008      -5.48401212E-12
  0.400000006      -7.58134614E-12
  0.402500004      -1.03742735E-11
  0.405000001      -1.37940458E-11
  0.407499999      -1.74334002E-11
  0.409999996      -2.05773662E-11
  0.412499994      -2.23570780E-11
  0.414999992      -2.19852539E-11
  0.417499989      -1.89897993E-11
  0.419999987      -1.33508603E-11
  0.422500014      -5.47437529E-12
  0.425000012       4.00382201E-12
  0.427500010       1.45253436E-11
  0.430000007       2.59263739E-11
  0.432500005       3.86669897E-11
  0.435000002       5.39176273E-11
  0.437500000       7.35128486E-11
  0.439999998       9.98387276E-11
  0.442499995       1.35747732E-10
  0.444999993       1.84588470E-10
  0.447499990       2.50401089E-10
  0.449999988       3.38281431E-10
  0.452499986       4.54861010E-10
  0.455000013       6.08822215E-10
  0.457500011       8.11372969E-10
  0.460000008       1.07663756E-09
  0.462500006       1.42196366E-09
  0.465000004       1.86827109E-09
  0.467500001       2.44055376E-09
  0.469999999       3.16871196E-09
  0.472499996       4.08879597E-09
  0.474999994       5.24461896E-09
  0.477499992       6.68969369E-09
  0.479999989       8.48926618E-09
  0.482499987       1.07223146E-08
  0.485000014       1.34833318E-08
  0.487500012       1.68838934E-08
  0.490000010       2.10536086E-08
  0.492500007       2.61406399E-08
  0.495000005       3.23113234E-08
  0.497500002       3.97484214E-08
  0.500000000       4.86480012E-08
  0.502499998       5.92145817E-08
  0.504999995       7.16537869E-08
  0.507499993       8.61629488E-08
  0.509999990       1.02919167E-07
  0.512499988       1.22064421E-07
  0.514999986       1.43687927E-07
  0.517499983       1.67805851E-07
  0.519999981       1.94336224E-07
  0.522499979       2.23070543E-07
  0.524999976       2.53642753E-07
  0.527499974       2.85494764E-07
  0.529999971       3.17837362E-07
  0.532500029       3.49615021E-07
  0.535000026       3.79462847E-07
  0.537500024       4.05667180E-07
  0.540000021       4.26120323E-07
  0.542500019       4.38284218E-07
  0.545000017       4.39135050E-07
  0.547500014       4.25126132E-07
  0.550000012       3.92141374E-07
  0.552500010       3.35437960E-07
  0.555000007       2.49612100E-07
  0.557500005       1.28562149E-07
  0.560000002      -3.45748496E-08
  0.562500000      -2.47451823E-07
  0.564999998      -5.18573188E-07
  0.567499995      -8.57310397E-07
  0.569999993      -1.27396822E-06
  0.572499990      -1.77982236E-06
  0.574999988      -2.38710550E-06
  0.577499986      -3.10910877E-06
  0.579999983      -3.96008318E-06
  0.582499981      -4.95542099E-06
  0.584999979      -6.11147152E-06
  0.587499976      -7.44560839E-06
  0.589999974      -8.97616610E-06
  0.592499971      -1.07223013E-05
  0.595000029      -1.27039375E-05
  0.597500026      -1.49415573E-05
  0.600000024      -1.74559700E-05
  0.602500021      -2.02681804E-05
  0.605000019      -2.33989958E-05
  0.607500017      -2.68686126E-05
  0.610000014      -3.06964539E-05
  0.612500012      -3.49007823E-05
  0.615000010      -3.94980452E-05
  0.617500007      -4.45022706E-05
  0.620000005      -4.99250236E-05
  0.622500002      -5.57744715E-05
  0.625000000      -6.20551364E-05
  0.627499998      -6.87674183E-05
  0.629999995      -7.59071263E-05
  0.632499993      -8.34653256E-05
  0.634999990      -9.14271513E-05
  0.637499988      -9.97727257E-05
  0.639999986      -1.08475950E-04
  0.642499983      -1.17505035E-04
  0.644999981      -1.26823012E-04
  0.647499979      -1.36386821E-04
  0.649999976      -1.46148421E-04
  0.652499974      -1.56054288E-04
  0.654999971      -1.66046171E-04
  0.657500029      -1.76061862E-04
  0.660000026      -1.86035162E-04
  0.662500024      -1.95896937E-04
  0.665000021      -2.05575954E-04
  0.667500019      -2.14998727E-04
  0.670000017      -2.24090065E-04
  0.672500014      -2.32773265E-04
  0.675000012      -2.40971640E-04
  0.677500010      -2.48608645E-04
  0.680000007      -2.55607767E-04
  0.682500005      -2.61892827E-04
  0.685000002      -2.67387193E-04
  0.687500000      -2.72014062E-04
  0.689999998      -2.75696104E-04
  0.692499995      -2.78356456E-04
  0.694999993      -2.79917120E-04
  0.697499990      -2.80299835E-04
  0.699999988      -2.79424450E-04
  0.702499986      -2.77208543E-04
  0.704999983      -2.73568789E-04
  0.707499981      -2.68420612E-04
  0.709999979      -2.61678098E-04
  0.712499976      -2.53254781E-04
  0.714999974      -2.43062896E-04
  0.717499971      -2.31016747E-04
  0.720000029      -2.17033652E-04
  0.722500026      -2.01035757E-04
  0.725000024      -1.82952164E-04
  0.727500021      -1.62722616E-04
  0.730000019      -1.40298580E-04
  0.732500017      -1.15647003E-04
  0.735000014      -8.87536953E-05
  0.737500012      -5.96273785E-05
  0.740000010      -2.83020636E-05
  0.742500007       5.15974216E-06
  0.745000005       4.06638501E-05
  0.747500002       7.80832997E-05
  0.750000000       1.17256764E-04
  0.752499998       1.57987350E-04
  0.754999995       2.00042574E-04
  0.757499993       2.43154718E-04
  0.759999990       2.87022965E-04
  0.762499988       3.31317453E-04
  0.764999986       3.75683216E-04
  0.767499983       4.19745804E-04
  0.769999981       4.63117583E-04
  0.772499979       5.05401287E-04
  0.774999976       5.46199386E-04
  0.777499974       5.85120346E-04
  0.779999971       6.21787331E-04
  0.782500029       6.55846728E-04
  0.785000026       6.86975196E-04
  0.787500024       7.14888563E-04
  0.790000021       7.39344629E-04
  0.792500019       7.60147523E-04
  0.795000017       7.77156209E-04
  0.797500014       7.90279708E-04
  0.800000012       7.99487112E-04
  0.802500010       8.04802112E-04
  0.805000007       8.06308410E-04
  0.807500005       8.04138195E-04
  0.810000002       7.98470865E-04
  0.812500000       7.89526210E-04
  0.814999998       7.77562382E-04
  0.817499995       7.62863667E-04
  0.819999993       7.45741883E-04
  0.822499990       7.26518163E-04
  0.824999988       7.05525454E-04
  0.827499986       6.83099031E-04
  0.829999983       6.59562880E-04
  0.832499981       6.35226199E-04
  0.834999979       6.10376650E-04
  0.837499976       5.85280184E-04
  0.839999974       5.60178945E-04
  0.842499971       5.35283179E-04
  0.845000029       5.10782294E-04
  0.847500026       4.86827688E-04
  0.850000024       4.63543751E-04
  0.852500021       4.41020675E-04
  0.855000019       4.19321063E-04
  0.857500017       3.98485892E-04
  0.860000014       3.78534663E-04
  0.862500012       3.59468657E-04
  0.865000010       3.41279316E-04
  0.867500007       3.23944521E-04
  0.870000005       3.07436188E-04
  0.872500002       2.91719334E-04
  0.875000000       2.76756298E-04
  0.877499998       2.62510788E-04
  0.879999995       2.48943456E-04
  0.882499993       2.36018182E-04
  0.884999990       2.23706986E-04
  0.887499988       2.11984327E-04
  0.889999986       2.00834649E-04
  0.892499983       1.90245104E-04
  0.894999981       1.80204050E-04
  0.897499979       1.70705185E-04
  0.899999976       1.61742108E-04
  0.902499974       1.53312867E-04
  0.904999971       1.45419996E-04
  0.907500029       1.38064395E-04
  0.910000026       1.31249646E-04
  0.912500024       1.24970524E-04
  0.915000021       1.19222401E-04
  0.917500019       1.13992115E-04
  0.920000017       1.09261295E-04
  0.922500014       1.05021711E-04
  0.925000012       1.01258578E-04
  0.927500010       9.79557444E-05
  0.930000007       9.50864633E-05
  0.932500005       9.26245775E-05
  0.935000002       9.05281049E-05
  0.937500000       8.87574279E-05
  0.939999998       8.72710079E-05
  0.942499995       8.60350556E-05
  0.944999993       8.50161086E-05
  0.947499990       8.41812871E-05
  0.949999988       8.35006940E-05
  0.952499986       8.29366691E-05
  0.954999983       8.24576855E-05
  0.957499981       8.20284695E-05
  0.959999979       8.16240572E-05
  0.962499976       8.12262224E-05
  0.964999974       8.08213663E-05
  0.967499971       8.03985677E-05
  0.970000029       7.99530608E-05
  0.972500026       7.94827502E-05
  0.975000024       7.89906117E-05
  0.977500021       7.84808362E-05
  0.980000019       7.79558177E-05
  0.982500017       7.74260261E-05
  0.985000014       7.68977188E-05
  0.987500012       7.63753924E-05
  0.990000010       7.58674141E-05
  0.992500007       7.53793065E-05
  0.995000005       7.49167666E-05
  0.997500002       7.44832141E-05
   1.00000000       7.40862743E-05
   1.00250006       7.37231167E-05
   1.00500000       7.33923807E-05
   1.00750005       7.30861575E-05
   1.00999999       7.28011582E-05
   1.01250005       7.25336431E-05
   1.01499999       7.22768891E-05
   1.01750004       7.20267126E-05
   1.01999998       7.17771327E-05
   1.02250004       7.15214192E-05
   1.02499998       7.12545079E-05
   1.02750003       7.09759261E-05
   1.02999997       7.06827122E-05
   1.03250003       7.03785845E-05
   1.03499997       7.00633973E-05
   1.03750002       6.97360956E-05
   1.03999996       6.93983457E-05
   1.04250002       6.90522211E-05
   1.04499996       6.86986168E-05
   1.04750001       6.83397957E-05
   1.04999995       6.79800651E-05
   1.05250001       6.76228810E-05
   1.05499995       6.72652532E-05
   1.05750000       6.69119545E-05
   1.05999994       6.65574553E-05
   1.06250000       6.62043094E-05
   1.06500006       6.58475765E-05
   1.06750000       6.54805262E-05
   1.07000005       6.50955481E-05
   1.07249999       6.46830667E-05
   1.07500005       6.42368104E-05
   1.07749999       6.37578196E-05
   1.08000004       6.32485026E-05
   1.08249998       6.27131667E-05
   1.08500004       6.21506479E-05
   1.08749998       6.15561366E-05
   1.09000003       6.09239614E-05
   1.09249997       6.02527107E-05
   1.09500003       5.95485035E-05
   1.09749997       5.88223302E-05
   1.10000002       5.80866654E-05
   1.10249996       5.73530924E-05
   1.10500002       5.66287126E-05
   1.10749996       5.59132968E-05
   1.11000001       5.52104357E-05
   1.11249995       5.45270050E-05
   1.11500001       5.38721906E-05
   1.11749995       5.32599697E-05
   1.12000000       5.26977419E-05
   1.12249994       5.21875991E-05
   1.12500000       5.17227345E-05
   1.12750006       5.12971783E-05
   1.13000000       5.09063684E-05
   1.13250005       5.05514981E-05
   1.13499999       5.02363837E-05
   1.13750005       4.99604248E-05
   1.13999999       4.97187648E-05
   1.14250004       4.95034838E-05
   1.14499998       4.93049411E-05
   1.14750004       4.91140163E-05
   1.14999998       4.89289232E-05
   1.15250003       4.87478683E-05
   1.15499997       4.85712917E-05
   1.15750003       4.84013726E-05
   1.15999997       4.82333126E-05
   1.16250002       4.80651834E-05
   1.16499996       4.78961556E-05
   1.16750002       4.77280992E-05
   1.16999996       4.75647539E-05
   1.17250001       4.74089502E-05
   1.17499995       4.72604734E-05
   1.17750001       4.71215608E-05
   1.17999995       4.69925108E-05
   1.18250000       4.68807957E-05
   1.18499994       4.67919490E-05
   1.18750000       4.67311256E-05
   1.19000006       4.67006357E-05
   1.19250000       4.66961501E-05
   1.19500005       4.67172977E-05
   1.19749999       4.67607133E-05
   1.20000005       4.68266189E-05
   1.20249999       4.69188308E-05
   1.20500004       4.70355517E-05
   1.20749998       4.71769308E-05
   1.21000004       4.73369910E-05
   1.21249998       4.75128909E-05
   1.21500003       4.77007488E-05
   1.21749997       4.79024347E-05
   1.22000003       4.81198804E-05
   1.22249997       4.83503318E-05
   1.22500002       4.85881064E-05
   1.22749996       4.88239384E-05
   1.23000002       4.90510283E-05
   1.23249996       4.92692998E-05
   1.23500001       4.94854030E-05
   1.23749995       4.97077817E-05
   1.24000001       4.99410744E-05
   1.24249995       5.01813884E-05
   1.24500000       5.04175150E-05
   1.24749994       5.06398974E-05
   1.25000000       5.08412049E-05
   1.25250006       5.10230129E-05
   1.25500000       5.11918151E-05
   1.25750005       5.13552368E-05
   1.25999999       5.15152242E-05
   1.26250005       5.16707987E-05
   1.26499999       5.18150191E-05
   1.26750004       5.19462337E-05
   1.26999998       5.20659451E-05
   1.27250004       5.21791517E-05
   1.27499998       5.22904156E-05
   1.27750003       5.23983181E-05
   1.27999997       5.24980787E-05
   1.28250003       5.25855794E-05
   1.28499997       5.26605290E-05
   1.28750002       5.27295742E-05
   1.28999996       5.28028067E-05
   1.29250002       5.28887394E-05
   1.29499996       5.29894678E-05
   1.29750001       5.30990146E-05
   1.29999995       5.32067643E-05
   1.30250001       5.33047314E-05
   1.30499995       5.33890961E-05
   1.30750000       5.34632236E-05
   1.30999994       5.35335384E-05
   1.31250000       5.36037041E-05
   1.31500006       5.36775296E-05
   1.31750000       5.37530796E-05
   1.32000005       5.38284767E-05
   1.32249999       5.39004359E-05
   1.32500005       5.39676876E-05
   1.32749999       5.40303117E-05
   1.33000004       5.40871733E-05
   1.33249998       5.41361951E-05
   1.33500004       5.41804293E-05
   1.33749998       5.42233975E-05
   1.34000003       5.42706985E-05
   1.34249997       5.43291317E-05
   1.34500003       5.44007198E-05
   1.34749997       5.44836657E-05
   1.35000002       5.45724361E-05
   1.35249996       5.46647971E-05
   1.35500002       5.47605960E-05
   1.35749996       5.48635653E-05
   1.36000001       5.49755787E-05
   1.36249995       5.50980476E-05
   1.36500001       5.52283673E-05
   1.36749995       5.53634709E-05
   1.37000000       5.55018632E-05
   1.37249994       5.56462292E-05
   1.37500000       5.58000138E-05
   1.37750006       5.59666514E-05
   1.38000000       5.61437482E-05
   1.38250005       5.63218164E-05
   1.38499999       5.64922630E-05
   1.38750005       5.66503040E-05
   1.38999999       5.67996831E-05
   1.39250004       5.69496551E-05
   1.39499998       5.71090422E-05
   1.39750004       5.72805366E-05
   1.39999998       5.74567348E-05
   1.40250003       5.76253151E-05
   1.40499997       5.77759602E-05
   1.40750003       5.79054577E-05
   1.40999997       5.80195629E-05
   1.41250002       5.81267923E-05
   1.41499996       5.82353678E-05
   1.41750002       5.83480542E-05
   1.41999996       5.84590925E-05
   1.42250001       5.85604939E-05
   1.42499995       5.86479982E-05
   1.42750001       5.87243667E-05
   1.42999995       5.87943068E-05
   1.43250000       5.88640250E-05
   1.43499994       5.89341944E-05
   1.43750000       5.89997253E-05
   1.44000006       5.90556192E-05
   1.44250000       5.91014250E-05
   1.44500005       5.91414064E-05
   1.44749999       5.91837015E-05
   1.45000005       5.92339893E-05
   1.45249999       5.92944416E-05
   1.45500004       5.93566874E-05
   1.45749998       5.94120611E-05
   1.46000004       5.94556222E-05
   1.46249998       5.94851372E-05
   1.46500003       5.95035963E-05
   1.46749997       5.95160745E-05
   1.47000003       5.95275051E-05
   1.47249997       5.95413330E-05
   1.47500002       5.95573219E-05
   1.47749996       5.95751080E-05
   1.48000002       5.95930396E-05
   1.48249996       5.96095560E-05
   1.48500001       5.96202408E-05
   1.48749995       5.96232312E-05
   1.49000001       5.96158352E-05
   1.49249995       5.96015598E-05
   1.49500000       5.95865386E-05
   1.49749994       5.95807833E-05
   1.50000000       5.95906495E-05
   1.50250006       5.96154568E-05
   1.50500000       5.96470672E-05
   1.50750005       5.96770333E-05
   1.50999999       5.96980317E-05
   1.51250005       5.97105100E-05
   1.51499999       5.97192520E-05
   1.51750004       5.97285143E-05
   1.51999998       5.97402504E-05
   1.52250004       5.97492908E-05
   1.52499998       5.97508588E-05
   1.52750003       5.97453291E-05
   1.52999997       5.97338985E-05
   1.53250003       5.97230246E-05
   1.53499997       5.97162616E-05
   1.53750002       5.97096114E-05
   1.53999996       5.96958234E-05
   1.54250002       5.96669452E-05
   1.54499996       5.96221835E-05
   1.54750001       5.95670354E-05
   1.54999995       5.95121892E-05
   1.55250001       5.94688099E-05
   1.55499995       5.94412013E-05
   1.55750000       5.94239391E-05
   1.55999994       5.94080229E-05
   1.56250000       5.93860568E-05
   1.56500006       5.93557525E-05
   1.56750000       5.93209297E-05
   1.57000005       5.92869328E-05
   1.57249999       5.92571159E-05
   1.57500005       5.92298784E-05
   1.57749999       5.92000288E-05
   1.58000004       5.91638236E-05
   1.58249998       5.91208554E-05
   1.58500004       5.90743766E-05
   1.58749998       5.90271520E-05
   1.59000003       5.89781666E-05
   1.59249997       5.89217889E-05
   1.59500003       5.88510629E-05
   1.59749997       5.87619543E-05
   1.60000002       5.86565147E-05
   1.60249996       5.85425587E-05
   1.60500002       5.84288682E-05
   1.60749996       5.83204019E-05
   1.61000001       5.82170578E-05
   1.61249995       5.81137174E-05
   1.61500001       5.80066735E-05
   1.61749995       5.78943218E-05
   1.62000000       5.77799183E-05
   1.62249994       5.76667480E-05
   1.62500000       5.75584381E-05
   1.62750006       5.74572223E-05
   1.63000000       5.73629914E-05
   1.63250005       5.72757890E-05
   1.63499999       5.71979617E-05
   1.63750005       5.71292549E-05
   1.63999999       5.70683151E-05
   1.64250004       5.70111151E-05
   1.64499998       5.69508120E-05
   1.64750004       5.68827782E-05
   1.64999998       5.68065916E-05
   1.65250003       5.67268253E-05
   1.65499997       5.66497838E-05
   1.65750003       5.65801420E-05
   1.65999997       5.65168848E-05
   1.66250002       5.64551992E-05
   1.66499996       5.63894428E-05
   1.66750002       5.63158028E-05
   1.66999996       5.62353598E-05
   1.67250001       5.61520792E-05
   1.67499995       5.60671542E-05
   1.67750001       5.59820801E-05
   1.67999995       5.58950633E-05
   1.68250000       5.58064785E-05
   1.68499994       5.57199819E-05
   1.68750000       5.56401392E-05
   1.69000006       5.55703846E-05
   1.69250000       5.55092229E-05
   1.69500005       5.54496328E-05
   1.69749999       5.53827886E-05
   1.70000005       5.53041027E-05
   1.70249999       5.52155543E-05
   1.70500004       5.51247649E-05
   1.70749998       5.50420409E-05
   1.71000004       5.49718425E-05
   1.71249998       5.49115721E-05
   1.71500003       5.48538519E-05
   1.71749997       5.47895506E-05
   1.72000003       5.47146374E-05
   1.72249997       5.46321025E-05
   1.72500002       5.45474795E-05
   1.72749996       5.44669238E-05
   1.73000002       5.43920869E-05
   1.73249996       5.43206879E-05
   1.73500001       5.42488815E-05
   1.73749995       5.41745649E-05
   1.74000001       5.40984183E-05
   1.74249995       5.40242945E-05
   1.74500000       5.39549474E-05
   1.74749994       5.38913955E-05
   1.75000000       5.38305321E-05
   1.75250006       5.37683991E-05
   1.75500000       5.37034248E-05
   1.75750005       5.36366242E-05
   1.75999999       5.35701147E-05
   1.76250005       5.35068248E-05
   1.76499999       5.34470091E-05
   1.76750004       5.33894308E-05
   1.76999998       5.33330131E-05
   1.77250004       5.32773083E-05
   1.77499998       5.32231716E-05
   1.77750003       5.31719816E-05
   1.77999997       5.31246806E-05
   1.78250003       5.30809302E-05
   1.78499997       5.30404650E-05
   1.78750002       5.30037396E-05
   1.78999996       5.29723184E-05
   1.79250002       5.29479585E-05
   1.79499996       5.29302488E-05
   1.79750001       5.29164245E-05
   1.79999995       5.29041718E-05
   1.80250001       5.28933706E-05
   1.80499995       5.28865312E-05
   1.80750000       5.28876553E-05
   1.80999994       5.28987512E-05
   1.81250000       5.29173958E-05
   1.81500006       5.29371973E-05
   1.81750000       5.29517310E-05
   1.82000005       5.29577846E-05
   1.82249999       5.29583049E-05
   1.82500005       5.29604731E-05
   1.82749999       5.29721292E-05
   1.83000004       5.29964527E-05
   1.83249998       5.30293728E-05
   1.83500004       5.30630350E-05
   1.83749998       5.30896359E-05
   1.84000003       5.31070473E-05
   1.84249997       5.31193036E-05
   1.84500003       5.31324549E-05
   1.84749997       5.31526312E-05
   1.85000002       5.31815094E-05
   1.85249996       5.32156992E-05
   1.85500002       5.32498088E-05
   1.85749996       5.32795129E-05
   1.86000001       5.33038365E-05
   1.86249995       5.33237508E-05
   1.86500001       5.33410093E-05
   1.86749995       5.33565908E-05
   1.87000000       5.33695929E-05
   1.87249994       5.33782586E-05
   1.87500000       5.33822968E-05
   1.87750006       5.33819948E-05
   1.88000000       5.33778875E-05
   1.88250005       5.33690691E-05
   1.88499999       5.33544226E-05
   1.88750005       5.33314851E-05
   1.88999999       5.32999475E-05
   1.89250004       5.32615377E-05
   1.89499998       5.32185004E-05
   1.89750004       5.31739242E-05
   1.89999998       5.31305486E-05
   1.90250003       5.30879915E-05
   1.90499997       5.30458856E-05
   1.90750003       5.30031029E-05
   1.90999997       5.29583267E-05
   1.91250002       5.29123681E-05
   1.91499996       5.28657074E-05
   1.91750002       5.28207966E-05
   1.91999996       5.27803895E-05
   1.92250001       5.27477168E-05
   1.92499995       5.27263655E-05
   1.92750001       5.27186457E-05
   1.92999995       5.27240663E-05
   1.93250000       5.27386910E-05
   1.93499994       5.27575066E-05
   1.93750000       5.27768207E-05
   1.94000006       5.27974444E-05
   1.94250000       5.28242890E-05
   1.94500005       5.28640230E-05
   1.94749999       5.29216377E-05
   1.95000005       5.29971658E-05
   1.95249999       5.30858815E-05
   1.95500004       5.31811929E-05
   1.95749998       5.32791564E-05
   1.96000004       5.33799976E-05
   1.96249998       5.34864448E-05
   1.96500003       5.36012012E-05
   1.96749997       5.37233573E-05
   1.97000003       5.38481290E-05
   1.97249997       5.39703215E-05
   1.97500002       5.40869296E-05
   1.97749996       5.41990739E-05
   1.98000002       5.43115166E-05
   1.98249996       5.44266695E-05
   1.98500001       5.45420044E-05
   1.98749995       5.46487863E-05
   1.99000001       5.47355012E-05
   1.99249995       5.47938616E-05
   1.99500000       5.48236203E-05
   1.99749994       5.48317876E-05
   2.00000000       5.48284806E-05
   2.00250006       5.48207645E-05
   2.00500011       5.48089956E-05
   2.00749993       5.47875861E-05
   2.00999999       5.47488053E-05
   2.01250005       5.46879419E-05
   2.01500010       5.46058945E-05
   2.01749992       5.45086041E-05
   2.01999998       5.44053146E-05
   2.02250004       5.43043061E-05
   2.02500010       5.42117778E-05
   2.02749991       5.41305708E-05
   2.02999997       5.40610199E-05
   2.03250003       5.40019137E-05
   2.03500009       5.39516222E-05
   2.03749990       5.39083376E-05
   2.03999996       5.38731620E-05
   2.04250002       5.38493441E-05
   2.04500008       5.38417044E-05
   2.04749990       5.38550776E-05
   2.04999995       5.38899767E-05
   2.05250001       5.39418907E-05
   2.05500007       5.40030742E-05
   2.05749989       5.40668298E-05
   2.05999994       5.41301415E-05
   2.06250000       5.41953559E-05
   2.06500006       5.42678208E-05
   2.06750011       5.43506176E-05
   2.06999993       5.44412578E-05
   2.07249999       5.45317853E-05
   2.07500005       5.46133488E-05
   2.07750010       5.46815172E-05
   2.07999992       5.47394666E-05
   2.08249998       5.47955824E-05
   2.08500004       5.48580138E-05
   2.08750010       5.49290962E-05
   2.08999991       5.50034492E-05
   2.09249997       5.50713376E-05
   2.09500003       5.51257363E-05
   2.09750009       5.51665544E-05
   2.09999990       5.52027595E-05
   2.10249996       5.52454803E-05
   2.10500002       5.53022728E-05
   2.10750008       5.53725513E-05
   2.10999990       5.54490871E-05
   2.11249995       5.55225961E-05
   2.11500001       5.55886581E-05
   2.11750007       5.56492560E-05
   2.11999989       5.57099702E-05
   2.12249994       5.57762141E-05
   2.12500000       5.58493120E-05
   2.12750006       5.59262044E-05
   2.13000011       5.60027220E-05
   2.13249993       5.60771114E-05
   2.13499999       5.61498164E-05
   2.13750005       5.62229361E-05
   2.14000010       5.62954410E-05