   0.00000000       0.00000000    
   2.49999994E-03   0.00000000    
   4.99999989E-03   0.00000000    
   7.49999983E-03   0.00000000    
   9.99999978E-03   0.00000000    
   1.25000002E-02   0.00000000    
   1.49999997E-02   0.00000000    
   1.75000001E-02   0.00000000    
   1.99999996E-02   0.00000000    
   2.25000009E-02   3.99921682E-23
   2.50000004E-02  -4.50859327E-22
   2.74999999E-02   2.13946731E-21
   2.99999993E-02   2.00234900E-21
   3.24999988E-02  -2.79691963E-20
   3.50000001E-02   5.08249414E-21
   3.75000015E-02   1.86393351E-19
   3.99999991E-02  -8.36981087E-20
   4.25000004E-02  -8.45486792E-19
   4.50000018E-02   5.41071918E-19
   4.74999994E-02   3.00053295E-18
   5.00000007E-02  -2.92885899E-18
   5.24999984E-02  -1.00683175E-17
   5.49999997E-02   1.26475179E-17
   5.75000010E-02   3.66474065E-17
   5.99999987E-02  -3.67553999E-17
   6.25000000E-02  -1.30288662E-16
   6.49999976E-02   4.93701822E-17
   6.75000027E-02   3.77361198E-16
   7.00000003E-02   9.68091492E-17
   7.24999979E-02  -7.90521609E-16
   7.50000030E-02  -6.95102871E-16
   7.75000006E-02   1.04839597E-15
   7.99999982E-02   1.85292057E-15
   8.25000033E-02  -5.08256508E-16
   8.50000009E-02  -2.92516094E-15
   8.74999985E-02  -9.09984859E-16
   9.00000036E-02   2.93738998E-15
   9.25000012E-02   1.93695429E-15
   9.49999988E-02  -2.55024320E-15
   9.74999964E-02  -1.91576999E-15
  0.100000001       3.96508616E-15
  0.102499999       3.85838585E-15
  0.104999997      -5.49009699E-15
  0.107500002      -1.00454635E-14
  0.109999999       2.75953990E-16
  0.112499997       1.26838974E-14
  0.115000002       9.52803561E-15
  0.117500000      -3.66568924E-15
  0.119999997      -7.71538679E-15
  0.122500002      -1.75233858E-15
  0.125000000      -2.26999599E-15
  0.127499998      -1.11283510E-14
  0.129999995      -1.03856277E-14
  0.132499993       6.63582340E-15
  0.135000005       2.42676888E-14
  0.137500003       2.97236228E-14
  0.140000001       2.33543111E-14
  0.142499998       1.90064505E-16
  0.144999996      -4.57056708E-14
  0.147499993      -8.94314055E-14
  0.150000006      -8.25494865E-14
  0.152500004      -8.01056846E-15
  0.155000001       9.74728450E-14
  0.157499999       1.80141140E-13
  0.159999996       1.95687081E-13
  0.162499994       1.03331995E-13
  0.165000007      -1.07261029E-13
  0.167500004      -3.56396716E-13
  0.170000002      -4.85592523E-13
  0.172499999      -3.66132607E-13
  0.174999997       1.04454646E-14
  0.177499995       5.30351642E-13
  0.180000007       9.78764270E-13
  0.182500005       1.06238976E-12
  0.185000002       5.40028634E-13
  0.187500000      -5.35508758E-13
  0.189999998      -1.70646678E-12
  0.192499995      -2.32286261E-12
  0.194999993      -1.90730830E-12
  0.197500005      -3.61538463E-13
  0.200000003       1.98829234E-12
  0.202500001       4.31033854E-12
  0.204999998       5.27875920E-12
  0.207499996       3.59692224E-12
  0.209999993      -1.00020936E-12
  0.212500006      -7.02780932E-12
  0.215000004      -1.15410988E-11
  0.217500001      -1.13795293E-11
  0.219999999      -4.78776220E-12
  0.222499996       7.16114321E-12
  0.224999994       2.00053515E-11
  0.227500007       2.70309782E-11
  0.230000004       2.23378278E-11
  0.232500002       4.59514544E-12
  0.234999999      -2.08526738E-11
  0.237499997      -4.33576230E-11
  0.239999995      -5.15907247E-11
  0.242500007      -3.90511824E-11
  0.245000005      -7.58661363E-12
  0.247500002       3.25607735E-11
  0.250000000       6.59005420E-11
  0.252499998       7.69607850E-11
  0.254999995       5.64082878E-11
  0.257499993       6.30435981E-12
  0.259999990      -5.77139031E-11
  0.262499988      -1.09435024E-10
  0.264999986      -1.21269286E-10
  0.267500013      -7.78934695E-11
  0.270000011       1.16241843E-11
  0.272500008       1.11667606E-10
  0.275000006       1.72868983E-10
  0.277500004       1.55695151E-10
  0.280000001       5.21872510E-11
  0.282499999      -1.07337333E-10
  0.284999996      -2.67014244E-10
  0.287499994      -3.69973469E-10
  0.289999992      -3.80818849E-10
  0.292499989      -2.95728303E-10
  0.294999987      -1.39226297E-10
  0.297500014       4.63525156E-11
  0.300000012       2.12715651E-10
  0.302500010       3.17487897E-10
  0.305000007       3.37967210E-10
  0.307500005       2.85633045E-10
  0.310000002       2.13663712E-10
  0.312500000       2.07837109E-10
  0.314999998       3.59402730E-10
  0.317499995       7.32589267E-10
  0.319999993       1.34760225E-09
  0.322499990       2.19322138E-09
  0.324999988       3.26346616E-09
  0.327499986       4.59542004E-09
  0.330000013       6.28423669E-09
  0.332500011       8.46962500E-09
  0.335000008       1.13123715E-08
  0.337500006       1.49876449E-08
  0.340000004       1.97108747E-08
  0.342500001       2.57846153E-08
  0.344999999       3.36369546E-08
  0.347499996       4.38284076E-08
  0.349999994       5.70294532E-08
  0.352499992       7.39922186E-08
  0.354999989       9.55499999E-08
  0.357499987       1.22651201E-07
  0.360000014       1.56418167E-07
  0.362500012       1.98206450E-07
  0.365000010       2.49645950E-07
  0.367500007       3.12676917E-07
  0.370000005       3.89584528E-07
  0.372500002       4.83027236E-07
  0.375000000       5.96057362E-07
  0.377499998       7.32091792E-07
  0.379999995       8.94826144E-07
  0.382499993       1.08816130E-06
  0.384999990       1.31613092E-06
  0.387499988       1.58292937E-06
  0.389999986       1.89298953E-06
  0.392500013       2.25102895E-06
  0.395000011       2.66194570E-06
  0.397500008       3.13067721E-06
  0.400000006       3.66181507E-06
  0.402500004       4.25933058E-06
  0.405000001       4.92633353E-06
  0.407499999       5.66492099E-06
  0.409999996       6.47606748E-06
  0.412499994       7.35937510E-06
  0.414999992       8.31290890E-06
  0.417499989       9.33277715E-06
  0.419999987       1.04129213E-05
  0.422500014       1.15449820E-05
  0.425000012       1.27177864E-05
  0.427500010       1.39177391E-05
  0.430000007       1.51280310E-05
  0.432500005       1.63287659E-05
  0.435000002       1.74970901E-05
  0.437500000       1.86064899E-05
  0.439999998       1.96276160E-05
  0.442499995       2.05283486E-05
  0.444999993       2.12740124E-05
  0.447499990       2.18276382E-05
  0.449999988       2.21507344E-05
  0.452499986       2.22028593E-05
  0.455000013       2.19426165E-05
  0.457500011       2.13274634E-05
  0.460000008       2.03152795E-05
  0.462500006       1.88637150E-05
  0.465000004       1.69312025E-05
  0.467500001       1.44774485E-05
  0.469999999       1.14631366E-05
  0.472499996       7.85020529E-06
  0.474999994       3.60277772E-06
  0.477499992      -1.31227819E-06
  0.479999989      -6.92784124E-06
  0.482499987      -1.32726245E-05
  0.485000014      -2.03765921E-05
  0.487500012      -2.82683432E-05
  0.490000010      -3.69759800E-05
  0.492500007      -4.65310441E-05
  0.495000005      -5.69656804E-05
  0.497500002      -6.83146136E-05
  0.500000000      -8.06152530E-05
  0.502499998      -9.39111924E-05
  0.504999995      -1.08250235E-04
  0.507499993      -1.23687831E-04
  0.509999990      -1.40285949E-04
  0.512499988      -1.58111012E-04
  0.514999986      -1.77241134E-04
  0.517499983      -1.97763249E-04
  0.519999981      -2.19773196E-04
  0.522499979      -2.43374685E-04
  0.524999976      -2.68670992E-04
  0.527499974      -2.95769627E-04
  0.529999971      -3.24780616E-04
  0.532500029      -3.55808937E-04
  0.535000026      -3.88956192E-04
  0.537500024      -4.24322498E-04
  0.540000021      -4.61988471E-04
  0.542500019      -5.02016803E-04
  0.545000017      -5.44448732E-04
  0.547500014      -5.89300354E-04
  0.550000012      -6.36552111E-04
  0.552500010      -6.86145271E-04
  0.555000007      -7.37984839E-04
  0.557500005      -7.91932631E-04
  0.560000002      -8.47799238E-04
  0.562500000      -9.05351248E-04
  0.564999998      -9.64301289E-04
  0.567499995      -1.02431315E-03
  0.569999993      -1.08499371E-03
  0.572499990      -1.14591676E-03
  0.574999988      -1.20660965E-03
  0.577499986      -1.26656354E-03
  0.579999983      -1.32524245E-03
  0.582499981      -1.38209562E-03
  0.584999979      -1.43655692E-03
  0.587499976      -1.48806092E-03
  0.589999974      -1.53605582E-03
  0.592499971      -1.57999806E-03
  0.595000029      -1.61938579E-03
  0.597500026      -1.65375078E-03
  0.600000024      -1.68268464E-03
  0.602500021      -1.70584011E-03
  0.605000019      -1.72294525E-03
  0.607500017      -1.73380016E-03
  0.610000014      -1.73828332E-03
  0.612500012      -1.73635234E-03
  0.615000010      -1.72804331E-03
  0.617500007      -1.71347405E-03
  0.620000005      -1.69284455E-03
  0.622500002      -1.66643469E-03
  0.625000000      -1.63459231E-03
  0.627499998      -1.59772695E-03
  0.629999995      -1.55629357E-03
  0.632499993      -1.51078554E-03
  0.634999990      -1.46172557E-03
  0.637499988      -1.40965532E-03
  0.639999986      -1.35512836E-03
  0.642499983      -1.29869755E-03
  0.644999981      -1.24090700E-03
  0.647499979      -1.18226930E-03
  0.649999976      -1.12327700E-03
  0.652499974      -1.06438261E-03
  0.654999971      -1.00599614E-03
  0.657500029      -9.48486850E-04
  0.660000026      -8.92174605E-04
  0.662500024      -8.37340427E-04
  0.665000021      -7.84202479E-04
  0.667500019      -7.32937595E-04
  0.670000017      -6.83672610E-04
  0.672500014      -6.36501296E-04
  0.675000012      -5.91471093E-04
  0.677500010      -5.48597425E-04
  0.680000007      -5.07862656E-04
  0.682500005      -4.69223887E-04
  0.685000002      -4.32621484E-04
  0.687500000      -3.97982541E-04
  0.689999998      -3.65223939E-04
  0.692499995      -3.34251468E-04
  0.694999993      -3.04964575E-04
  0.697499990      -2.77262792E-04
  0.699999988      -2.51042045E-04
  0.702499986      -2.26203541E-04
  0.704999983      -2.02658674E-04
  0.707499981      -1.80319868E-04
  0.709999979      -1.59109710E-04
  0.712499976      -1.38951364E-04
  0.714999974      -1.19773271E-04
  0.717499971      -1.01518170E-04
  0.720000029      -8.41369038E-05
  0.722500026      -6.75731135E-05
  0.725000024      -5.17816916E-05
  0.727500021      -3.67112116E-05
  0.730000019      -2.23352199E-05
  0.732500017      -8.61546141E-06
  0.735000014       4.47616003E-06
  0.737500012       1.69690866E-05
  0.740000010       2.88941083E-05
  0.742500007       4.02833502E-05
  0.745000005       5.11643193E-05
  0.747500002       6.15483586E-05
  0.750000000       7.14658308E-05
  0.752499998       8.09307603E-05
  0.754999995       8.99625884E-05
  0.757499993       9.85781953E-05
  0.759999990       1.06792686E-04
  0.762499988       1.14616363E-04
  0.764999986       1.22060745E-04
  0.767499983       1.29139720E-04
  0.769999981       1.35859038E-04
  0.772499979       1.42242614E-04
  0.774999976       1.48294203E-04
  0.777499974       1.54021021E-04
  0.779999971       1.59428106E-04
  0.782500029       1.64520301E-04
  0.785000026       1.69309031E-04
  0.787500024       1.73804394E-04
  0.790000021       1.78016402E-04
  0.792500019       1.81967931E-04
  0.795000017       1.85661862E-04
  0.797500014       1.89101382E-04
  0.800000012       1.92289357E-04
  0.802500010       1.95238885E-04
  0.805000007       1.97956411E-04
  0.807500005       2.00461916E-04
  0.810000002       2.02773532E-04
  0.812500000       2.04895274E-04
  0.814999998       2.06840865E-04
  0.817499995       2.08617595E-04
  0.819999993       2.10236365E-04
  0.822499990       2.11701117E-04
  0.824999988       2.13013656E-04
  0.827499986       2.14180705E-04
  0.829999983       2.15202206E-04
  0.832499981       2.16082233E-04
  0.834999979       2.16829620E-04
  0.837499976       2.17454624E-04
  0.839999974       2.17968045E-04
  0.842499971       2.18372617E-04
  0.845000029       2.18677640E-04
  0.847500026       2.18889341E-04
  0.850000024       2.19006120E-04
  0.852500021       2.19034147E-04
  0.855000019       2.18979301E-04
  0.857500017       2.18845773E-04
  0.860000014       2.18634756E-04
  0.862500012       2.18364992E-04
  0.865000010       2.18041430E-04
  0.867500007       2.17678346E-04
  0.870000005       2.17279987E-04
  0.872500002       2.16856686E-04
  0.875000000       2.16403903E-04
  0.877499998       2.15915657E-04
  0.879999995       2.15384440E-04
  0.882499993       2.14816988E-04
  0.884999990       2.14219122E-04
  0.887499988       2.13602252E-04
  0.889999986       2.12976287E-04
  0.892499983       2.12336876E-04
  0.894999981       2.11677499E-04
  0.897499979       2.10983824E-04
  0.899999976       2.10243612E-04
  0.902499974       2.09462960E-04
  0.904999971       2.08650250E-04
  0.907500029       2.07809979E-04
  0.910000026       2.06944664E-04
  0.912500024       2.06046388E-04
  0.915000021       2.05106509E-04
  0.917500019       2.04123062E-04
  0.920000017       2.03099931E-04
  0.922500014       2.02045718E-04
  0.925000012       2.00969822E-04
  0.927500010       1.99875707E-04
  0.930000007       1.98756781E-04
  0.932500005       1.97605943E-04
  0.935000002       1.96413777E-04
  0.937500000       1.95183660E-04
  0.939999998       1.93926040E-04
  0.942499995       1.92653562E-04
  0.944999993       1.91376588E-04
  0.947499990       1.90099468E-04
  0.949999988       1.88812643E-04
  0.952499986       1.87506084E-04
  0.954999983       1.86168792E-04
  0.957499981       1.84802237E-04
  0.959999979       1.83406300E-04
  0.962499976       1.81990268E-04
  0.964999974       1.80562129E-04
  0.967499971       1.79125767E-04
  0.970000029       1.77688213E-04
  0.972500026       1.76249901E-04
  0.975000024       1.74806686E-04
  0.977500021       1.73348642E-04
  0.980000019       1.71866341E-04
  0.982500017       1.70356157E-04
  0.985000014       1.68828847E-04
  0.987500012       1.67296777E-04
  0.990000010       1.65773425E-04
  0.992500007       1.64266690E-04
  0.995000005       1.62773533E-04
  0.997500002       1.61279720E-04
   1.00000000       1.59772739E-04
   1.00250006       1.58245966E-04
   1.00500000       1.56707974E-04
   1.00750005       1.55174639E-04
   1.00999999       1.53656380E-04
   1.01250005       1.52160617E-04
   1.01499999       1.50680207E-04
   1.01750004       1.49200729E-04
   1.01999998       1.47711500E-04
   1.02250004       1.46210092E-04
   1.02499998       1.44707417E-04
   1.02750003       1.43218000E-04
   1.02999997       1.41752418E-04
   1.03250003       1.40305041E-04
   1.03499997       1.38864911E-04
   1.03750002       1.37417868E-04
   1.03999996       1.35956929E-04
   1.04250002       1.34485847E-04
   1.04499996       1.33017034E-04
   1.04750001       1.31566630E-04
   1.04999995       1.30136366E-04
   1.05250001       1.28725078E-04
   1.05499995       1.27321779E-04
   1.05750000       1.25919789E-04
   1.05999994       1.24518556E-04
   1.06250000       1.23121266E-04
   1.06500006       1.21732926E-04
   1.06750000       1.20356613E-04
   1.07000005       1.18990974E-04
   1.07249999       1.17640106E-04
   1.07500005       1.16302748E-04
   1.07749999       1.14983974E-04
   1.08000004       1.13678761E-04
   1.08249998       1.12384223E-04
   1.08500004       1.11092420E-04
   1.08749998       1.09798151E-04
   1.09000003       1.08501976E-04
   1.09249997       1.07214211E-04
   1.09500003       1.05943924E-04
   1.09749997       1.04695580E-04
   1.10000002       1.03469043E-04
   1.10249996       1.02251252E-04
   1.10500002       1.01028199E-04
   1.10749996       9.97984534E-05
   1.11000001       9.85613151E-05
   1.11249995       9.73314163E-05
   1.11500001       9.61195328E-05
   1.11749995       9.49284222E-05
   1.12000000       9.37521036E-05
   1.12249994       9.25830391E-05
   1.12500000       9.14097836E-05
   1.12750006       9.02326428E-05
   1.13000000       8.90543088E-05
   1.13250005       8.78837454E-05
   1.13499999       8.67251001E-05
   1.13750005       8.55807302E-05
   1.13999999       8.44454407E-05
   1.14250004       8.33150771E-05
   1.14499998       8.21885624E-05
   1.14750004       8.10660131E-05
   1.14999998       7.99475310E-05
   1.15250003       7.88371981E-05
   1.15499997       7.77324312E-05
   1.15750003       7.66312878E-05
   1.15999997       7.55337678E-05
   1.16250002       7.44393110E-05
   1.16499996       7.33518027E-05
   1.16750002       7.22689292E-05
   1.16999996       7.11863540E-05
   1.17250001       7.00988894E-05
   1.17499995       6.90105226E-05
   1.17750001       6.79276854E-05
   1.17999995       6.68604262E-05
   1.18250000       6.58129429E-05
   1.18499994       6.47797278E-05
   1.18750000       6.37496050E-05
   1.19000006       6.27085392E-05
   1.19250000       6.16540201E-05
   1.19500005       6.05939385E-05
   1.19749999       5.95398342E-05
   1.20000005       5.85032212E-05
   1.20249999       5.74883416E-05
   1.20500004       5.64830734E-05
   1.20749998       5.54742146E-05
   1.21000004       5.44531758E-05
   1.21249998       5.34227220E-05
   1.21500003       5.23925664E-05
   1.21749997       5.13763844E-05
   1.22000003       5.03787742E-05
   1.22249997       4.93943116E-05
   1.22500002       4.84092525E-05
   1.22749996       4.74126500E-05
   1.23000002       4.64022596E-05
   1.23249996       4.53863395E-05
   1.23500001       4.43779318E-05
   1.23749995       4.33847999E-05
   1.24000001       4.24094906E-05
   1.24249995       4.14443093E-05
   1.24500000       4.04790917E-05
   1.24749994       3.95086790E-05
   1.25000000       3.85315761E-05
   1.25250006       3.75531708E-05
   1.25500000       3.65784254E-05
   1.25750005       3.56095406E-05
   1.25999999       3.46472734E-05
   1.26250005       3.36924059E-05
   1.26499999       3.27448579E-05
   1.26750004       3.18035891E-05
   1.26999998       3.08654198E-05
   1.27250004       2.99295680E-05
   1.27499998       2.89935288E-05
   1.27750003       2.80555832E-05
   1.27999997       2.71201807E-05
   1.28250003       2.61898931E-05
   1.28499997       2.52699210E-05
   1.28750002       2.43567101E-05
   1.28999996       2.34474974E-05
   1.29250002       2.25374988E-05
   1.29499996       2.16276894E-05
   1.29750001       2.07229950E-05
   1.29999995       1.98284306E-05
   1.30250001       1.89445473E-05
   1.30499995       1.80683255E-05
   1.30750000       1.71902357E-05
   1.30999994       1.63021687E-05
   1.31250000       1.54043883E-05
   1.31500006       1.45082904E-05
   1.31750000       1.36236622E-05
   1.32000005       1.27596950E-05
   1.32249999       1.19126526E-05
   1.32500005       1.10684505E-05
   1.32749999       1.02132262E-05
   1.33000004       9.33916999E-06
   1.33249998       8.45528939E-06
   1.33500004       7.57413545E-06
   1.33749998       6.71072848E-06
   1.34000003       5.86745955E-06
   1.34249997       5.03767933E-06
   1.34500003       4.20909419E-06
   1.34749997       3.36873995E-06
   1.35000002       2.51657934E-06
   1.35249996       1.65672179E-06
   1.35500002       8.00974306E-07
   1.35749996      -4.05381613E-08
   1.36000001      -8.68525433E-07
   1.36249995      -1.68433269E-06
   1.36500001      -2.49509594E-06
   1.36749995      -3.30843727E-06
   1.37000000      -4.12487952E-06
   1.37249994      -4.94673941E-06
   1.37500000      -5.77020592E-06
   1.37750006      -6.59318630E-06
   1.38000000      -7.41134772E-06
   1.38250005      -8.22315633E-06
   1.38499999      -9.02861484E-06
   1.38750005      -9.83089649E-06
   1.38999999      -1.06331790E-05
   1.39250004      -1.14411769E-05
   1.39499998      -1.22507818E-05
   1.39750004      -1.30575099E-05
   1.39999998      -1.38547857E-05
   1.40250003      -1.46390585E-05
   1.40499997      -1.54130194E-05
   1.40750003      -1.61866828E-05
   1.40999997      -1.69695741E-05
   1.41250002      -1.77642341E-05
   1.41499996      -1.85591925E-05
   1.41750002      -1.93393189E-05
   1.41999996      -2.00900777E-05
   1.42250001      -2.08088186E-05
   1.42499995      -2.15082036E-05
   1.42750001      -2.22077761E-05
   1.42999995      -2.29216221E-05
   1.43250000      -2.36535125E-05
   1.43499994      -2.43895156E-05
   1.43750000      -2.51101956E-05
   1.44000006      -2.58011751E-05
   1.44250000      -2.64611444E-05
   1.44500005      -2.71008266E-05
   1.44749999      -2.77377785E-05
   1.45000005      -2.83810459E-05
   1.45249999      -2.90336939E-05
   1.45500004      -2.96901126E-05
   1.45749998      -3.03428333E-05
   1.46000004      -3.09865864E-05
   1.46249998      -3.16217847E-05
   1.46500003      -3.22509659E-05
   1.46749997      -3.28732749E-05
   1.47000003      -3.34859033E-05
   1.47249997      -3.40884071E-05
   1.47500002      -3.46829547E-05
   1.47749996      -3.52756724E-05
   1.48000002      -3.58713769E-05
   1.48249996      -3.64700718E-05
   1.48500001      -3.70677226E-05
   1.48749995      -3.76565913E-05
   1.49000001      -3.82319340E-05
   1.49249995      -3.87983091E-05
   1.49500000      -3.93626324E-05
   1.49749994      -3.99311757E-05
   1.50000000      -4.05023711E-05
   1.50250006      -4.10685207E-05
   1.50500000      -4.16208095E-05
   1.50750005      -4.21572222E-05
   1.50999999      -4.26835104E-05
   1.51250005      -4.32154739E-05
   1.51499999      -4.37631679E-05
   1.51750004      -4.43248391E-05
   1.51999998      -4.48881110E-05
   1.52250004      -4.54352848E-05
   1.52499998      -4.59563416E-05
   1.52750003      -4.64553850E-05
   1.52999997      -4.69487204E-05
   1.53250003      -4.74540866E-05
   1.53499997      -4.79807459E-05
   1.53750002      -4.85200326E-05
   1.53999996      -4.90553211E-05
   1.54250002      -4.95728673E-05
   1.54499996      -5.00647402E-05
   1.54750001      -5.05362550E-05
   1.54999995      -5.09978308E-05
   1.55250001      -5.14564526E-05
   1.55499995      -5.19162350E-05
   1.55750000      -5.23725794E-05
   1.55999994      -5.28243982E-05
   1.56250000      -5.32717058E-05
   1.56500006      -5.37128035E-05
   1.56750000      -5.41469562E-05
   1.57000005      -5.45674666E-05
   1.57249999      -5.49694123E-05
   1.57500005      -5.53519640E-05
   1.57749999      -5.57224121E-05
   1.58000004      -5.60959998E-05
   1.58249998      -5.64828879E-05
   1.58500004      -5.68849027E-05
   1.58749998      -5.72893878E-05
   1.59000003      -5.76803141E-05
   1.59249997      -5.80478081E-05
   1.59500003      -5.83937835E-05
   1.59749997      -5.87356881E-05
   1.60000002      -5.90907439E-05
   1.60249996      -5.94650010E-05
   1.60500002      -5.98497209E-05
   1.60749996      -6.02295113E-05
   1.61000001      -6.05852365E-05
   1.61249995      -6.09181698E-05
   1.61500001      -6.12442309E-05
   1.61749995      -6.15828831E-05
   1.62000000      -6.19428320E-05
   1.62249994      -6.23170563E-05
   1.62500000      -6.26845504E-05
   1.62750006      -6.30247378E-05
   1.63000000      -6.33323434E-05
   1.63250005      -6.36208933E-05
   1.63499999      -6.39113860E-05
   1.63750005      -6.42192099E-05
   1.63999999      -6.45462133E-05
   1.64250004      -6.48785790E-05
   1.64499998      -6.52009840E-05
   1.64750004      -6.55026888E-05
   1.64999998      -6.57853234E-05
   1.65250003      -6.60618898E-05
   1.65499997      -6.63414685E-05
   1.65750003      -6.66307315E-05
   1.65999997      -6.69230139E-05
   1.66250002      -6.72102906E-05
   1.66499996      -6.74882322E-05
   1.66750002      -6.77584758E-05
   1.66999996      -6.80265512E-05
   1.67250001      -6.82942118E-05
   1.67499995      -6.85582127E-05
   1.67750001      -6.88119035E-05
   1.67999995      -6.90546149E-05
   1.68250000      -6.92879403E-05
   1.68499994      -6.95179042E-05
   1.68750000      -6.97499636E-05
   1.69000006      -6.99783195E-05
   1.69250000      -7.01955796E-05
   1.69500005      -7.03918049E-05
   1.69749999      -7.05674902E-05
   1.70000005      -7.07350555E-05
   1.70249999      -7.09072629E-05
   1.70500004      -7.10925742E-05
   1.70749998      -7.12878318E-05
   1.71000004      -7.14737471E-05
   1.71249998      -7.16346331E-05
   1.71500003      -7.17659277E-05
   1.71749997      -7.18797601E-05
   1.72000003      -7.19965974E-05
   1.72249997      -7.21315882E-05
   1.72500002      -7.22848417E-05
   1.72749996      -7.24446872E-05
   1.73000002      -7.25900973E-05
   1.73249996      -7.27117076E-05
   1.73500001      -7.28159503E-05
   1.73749995      -7.29171297E-05
   1.74000001      -7.30304891E-05
   1.74249995      -7.31573382E-05
   1.74500000      -7.32879125E-05
   1.74749994      -7.34077767E-05
   1.75000000      -7.35101858E-05
   1.75250006      -7.35980575E-05
   1.75500000      -7.36853326E-05
   1.75750005      -7.37813607E-05
   1.75999999      -7.38874369E-05
   1.76250005      -7.39939933E-05
   1.76499999      -7.40910982E-05
   1.76750004      -7.41724361E-05
   1.76999998      -7.42424527E-05
   1.77250004      -7.43140045E-05
   1.77499998      -7.43937708E-05
   1.77750003      -7.44800345E-05
   1.77999997      -7.45638390E-05
   1.78250003      -7.46342994E-05
   1.78499997      -7.46923324E-05
   1.78750002      -7.47449012E-05
   1.78999996      -7.48045277E-05
   1.79250002      -7.48763778E-05
   1.79499996      -7.49557366E-05
   1.79750001      -7.50273248E-05
   1.79999995      -7.50797044E-05
   1.80250001      -7.51108964E-05
   1.80499995      -7.51316402E-05
   1.80750000      -7.51576008E-05
   1.80999994      -7.51965708E-05
   1.81250000      -7.52459673E-05
   1.81500006      -7.52910273E-05
   1.81750000      -7.53164277E-05
   1.82000005      -7.53180720E-05
   1.82249999      -7.53091444E-05
   1.82500005      -7.53020795E-05
   1.82749999      -7.53082859E-05
   1.83000004      -7.53219210E-05
   1.83249998      -7.53314889E-05
   1.83500004      -7.53212153E-05
   1.83749998      -7.52897904E-05
   1.84000003      -7.52464111E-05
   1.84249997      -7.52080377E-05
   1.84500003      -7.51833504E-05
   1.84749997      -7.51752741E-05
   1.85000002      -7.51735934E-05
   1.85249996      -7.51672051E-05
   1.85500002      -7.51515909E-05
   1.85749996      -7.51306652E-05
   1.86000001      -7.51111584E-05
   1.86249995      -7.50950931E-05
   1.86500001      -7.50804829E-05
   1.86749995      -7.50610561E-05
   1.87000000      -7.50332620E-05
   1.87249994      -7.50017207E-05
   1.87500000      -7.49744868E-05
   1.87750006      -7.49591345E-05
   1.88000000      -7.49524115E-05
   1.88250005      -7.49437022E-05
   1.88499999      -7.49197861E-05
   1.88750005      -7.48764869E-05
   1.88999999      -7.48195089E-05
   1.89250004      -7.47648883E-05
   1.89499998      -7.47240920E-05
   1.89750004      -7.46982696E-05
   1.89999998      -7.46737933E-05
   1.90250003      -7.46349833E-05
   1.90499997      -7.45757934E-05
   1.90750003      -7.45030193E-05
   1.90999997      -7.44353092E-05
   1.91250002      -7.43852434E-05
   1.91499996      -7.43536366E-05
   1.91750002      -7.43259880E-05
   1.91999996      -7.42811535E-05
   1.92250001      -7.42113989E-05
   1.92499995      -7.41249823E-05
   1.92750001      -7.40437245E-05
   1.92999995      -7.39856914E-05
   1.93250000      -7.39556563E-05
   1.93499994      -7.39390307E-05
   1.93750000      -7.39119059E-05
   1.94000006      -7.38576200E-05
   1.94250000      -7.37773953E-05
   1.94500005      -7.36888906E-05
   1.94749999      -7.36113652E-05
   1.95000005      -7.35555805E-05
   1.95249999      -7.35152644E-05
   1.95500004      -7.34748392E-05
   1.95749998      -7.34161804E-05
   1.96000004      -7.33372726E-05
   1.96249998      -7.32476037E-05
   1.96500003      -7.31606560E-05
   1.96749997      -7.30855609E-05
   1.97000003      -7.30197280E-05
   1.97249997      -7.29551975E-05
   1.97500002      -7.28833911E-05
   1.97749996      -7.28044834E-05
   1.98000002      -7.27234437E-05
   1.98249996      -7.26470753E-05
   1.98500001      -7.25751888E-05
   1.98749995      -7.25022619E-05
   1.99000001      -7.24216006E-05
   1.99249995      -7.23334597E-05
   1.99500000      -7.22462501E-05
   1.99749994      -7.21696561E-05
   2.00000000      -7.21092074E-05
   2.00250006      -7.20592216E-05
   2.00500011      -7.20080643E-05
   2.00749993      -7.19432792E-05
   2.00999999      -7.18606389E-05
   2.01250005      -7.17693983E-05
   2.01500010      -7.16824579E-05
   2.01749992      -7.16090726E-05
   2.01999998      -7.15478745E-05
   2.02250004      -7.14854104E-05
   2.02500010      -7.14101916E-05
   2.02749991      -7.13186164E-05
   2.02999997      -7.12199471E-05
   2.03250003      -7.11272442E-05
   2.03500009      -7.10492750E-05
   2.03749990      -7.09842643E-05
   2.03999996      -7.09186570E-05
   2.04250002      -7.08381413E-05
   2.04500008      -7.07401778E-05
   2.04749990      -7.06342544E-05
   2.04999995      -7.05376733E-05
   2.05250001      -7.04603735E-05
   2.05500007      -7.03999976E-05
   2.05749989      -7.03422629E-05
   2.05999994      -7.02738616E-05
   2.06250000      -7.01910976E-05
   2.06500006      -7.01011668E-05
   2.06750011      -7.00184100E-05
   2.06999993      -6.99513839E-05
   2.07249999      -6.98957519E-05
   2.07500005      -6.98390359E-05
   2.07750010      -6.97698415E-05
   2.07999992      -6.96854768E-05
   2.08249998      -6.95963681E-05
   2.08500004      -6.95155832E-05
   2.08750010      -6.94502378E-05
   2.08999991      -6.93950933E-05
   2.09249997      -6.93355760E-05
   2.09500003      -6.92612593E-05
   2.09750009      -6.91695386E-05
   2.09999990      -6.90726156E-05
   2.10249996      -6.89860899E-05
   2.10500002      -6.89179797E-05
   2.10750008      -6.88627988E-05
   2.10999990      -6.88052169E-05
   2.11249995      -6.87323991E-05
   2.11500001      -6.86437706E-05
   2.11750007      -6.85517516E-05
   2.11999989      -6.84732950E-05
   2.12249994      -6.84175830E-05
   2.12500000      -6.83783146E-05
   2.12750006      -6.83371763E-05
   2.13000011      -6.82783648E-05
   2.13249993      -6.81971869E-05
   2.13499999      -6.81063539E-05
   2.13750005      -6.80232260E-05
   2.14000010      -6.79611330E-05