   0.00000000       0.00000000    
   2.49999994E-03   0.00000000    
   4.99999989E-03   0.00000000    
   7.49999983E-03   0.00000000    
   9.99999978E-03   0.00000000    
   1.25000002E-02   0.00000000    
   1.49999997E-02   0.00000000    
   1.75000001E-02   0.00000000    
   1.99999996E-02   0.00000000    
   2.25000009E-02   0.00000000    
   2.50000004E-02   6.19136692E-28
   2.74999999E-02  -9.51346530E-27
   2.99999993E-02   8.22520676E-26
   3.24999988E-02  -5.65283611E-26
   3.50000001E-02  -1.05981865E-24
   3.75000015E-02   1.59025474E-24
   3.99999991E-02   7.58034588E-24
   4.25000004E-02  -1.25073928E-23
   4.50000018E-02  -3.76789093E-23
   4.74999994E-02   6.53490922E-23
   5.00000007E-02   1.41177362E-22
   5.24999984E-02  -3.02680729E-22
   5.49999997E-02  -4.78508283E-22
   5.75000010E-02   1.33216327E-21
   5.99999987E-02   1.98536817E-21
   6.25000000E-02  -4.78856149E-21
   6.49999976E-02  -9.37196199E-21
   6.75000027E-02   1.09807305E-20
   7.00000003E-02   3.65706242E-20
   7.24999979E-02  -4.42927672E-21
   7.50000030E-02  -9.94358403E-20
   7.75000006E-02  -7.10094489E-20
   7.99999982E-02   1.60493680E-19
   8.25000033E-02   2.83278289E-19
   8.50000009E-02  -5.34543596E-20
   8.74999985E-02  -5.31624585E-19
   9.00000036E-02  -3.81205772E-19
   9.25000012E-02   4.06990697E-19
   9.49999988E-02   7.97296800E-19
   9.74999964E-02   2.33599579E-19
  0.100000001      -3.70111393E-19
  0.102499999      -2.05062830E-19
  0.104999997      -2.58360378E-19
  0.107500002      -1.56703763E-18
  0.109999999      -2.20497834E-18
  0.112499997       1.09132813E-18
  0.115000002       7.01529148E-18
  0.117500000       8.14174604E-18
  0.119999997      -1.24868197E-18
  0.122500002      -1.58626342E-17
  0.125000000      -2.09864572E-17
  0.127499998      -6.05113844E-18
  0.129999995       2.24889365E-17
  0.132499993       4.23779451E-17
  0.135000005       3.21945113E-17
  0.137500003      -9.23118343E-18
  0.140000001      -5.78128508E-17
  0.142499998      -7.97033717E-17
  0.144999996      -5.39436539E-17
  0.147499993       1.66430890E-17
  0.150000006       1.07481195E-16
  0.152500004       1.73962991E-16
  0.155000001       1.55770947E-16
  0.157499999       7.95091464E-18
  0.159999996      -2.39919435E-16
  0.162499994      -4.48996231E-16
  0.165000007      -4.23905235E-16
  0.167500004      -5.12109403E-17
  0.170000002       5.60842114E-16
  0.172499999       1.05641409E-15
  0.174999997       9.93523166E-16
  0.177499995       1.56424632E-16
  0.180000007      -1.16650551E-15
  0.182500005      -2.19694343E-15
  0.185000002      -2.08323497E-15
  0.187500000      -5.06464822E-16
  0.189999998       1.95208674E-15
  0.192499995       3.98144618E-15
  0.194999993       4.18614313E-15
  0.197500005       1.87161607E-15
  0.200000003      -2.39538059E-15
  0.202500001      -6.73020150E-15
  0.204999998      -8.55304902E-15
  0.207499996      -5.84418344E-15
  0.209999993       1.42936767E-15
  0.212500006       1.05559965E-14
  0.215000004       1.67733920E-14
  0.217500001       1.55100610E-14
  0.219999999       5.21684204E-15
  0.222499996      -1.09270054E-14
  0.224999994      -2.58909867E-14
  0.227500007      -3.22399374E-14
  0.230000004      -2.62347398E-14
  0.232500002      -9.82059740E-15
  0.234999999       1.10428482E-14
  0.237499997       3.05280940E-14
  0.239999995       4.62168010E-14
  0.242500007       5.85738665E-14
  0.245000005       6.67624796E-14
  0.247500002       6.44025306E-14
  0.250000000       3.97629961E-14
  0.252499998      -1.78582684E-14
  0.254999995      -1.08309459E-13
  0.257499993      -2.13042705E-13
  0.259999990      -2.95105520E-13
  0.262499988      -3.08661354E-13
  0.264999986      -2.16200254E-13
  0.267500013      -8.62528229E-15
  0.270000011       2.78938466E-13
  0.272500008       5.64707840E-13
  0.275000006       7.39728699E-13
  0.277500004       7.10862575E-13
  0.280000001       4.54240513E-13
  0.282499999       5.05255458E-14
  0.284999996      -3.29880329E-13
  0.287499994      -5.03694851E-13
  0.289999992      -3.87114223E-13
  0.292499989      -8.21074166E-14
  0.294999987       1.28495833E-13
  0.297500014      -9.77174206E-14
  0.300000012      -9.66494463E-13
  0.302500010      -2.37119157E-12
  0.305000007      -3.83874703E-12
  0.307500005      -4.64805971E-12
  0.310000002      -4.09126162E-12
  0.312500000      -1.78098768E-12
  0.314999998       2.11668855E-12
  0.317499995       6.81925653E-12
  0.319999993       1.10746369E-11
  0.322499990       1.34919992E-11
  0.324999988       1.29686921E-11
  0.327499986       9.07858337E-12
  0.330000013       2.27416762E-12
  0.332500011      -6.20133589E-12
  0.335000008      -1.46898604E-11
  0.337500006      -2.16472430E-11
  0.340000004      -2.61006893E-11
  0.342500001      -2.78318982E-11
  0.344999999      -2.72217526E-11
  0.347499996      -2.48767326E-11
  0.349999994      -2.12700881E-11
  0.352499992      -1.65932840E-11
  0.354999989      -1.08459752E-11
  0.357499987      -4.01283954E-12
  0.360000014       3.88590635E-12
  0.362500012       1.29785653E-11
  0.365000010       2.38740069E-11
  0.367500007       3.79117432E-11
  0.370000005       5.71263349E-11
  0.372500002       8.39017814E-11
  0.375000000       1.20506410E-10
  0.377499998       1.68822456E-10
  0.379999995       2.30518118E-10
  0.382499993       3.07750797E-10
  0.384999990       4.04287881E-10
  0.387499988       5.26807153E-10
  0.389999986       6.86105339E-10
  0.392500013       8.97946550E-10
  0.395000011       1.18335608E-09
  0.397500008       1.56827229E-09
  0.400000006       2.08283724E-09
  0.402500004       2.76080470E-09
  0.405000001       3.63980357E-09
  0.407499999       4.76309214E-09
  0.409999996       6.18279294E-09
  0.412499994       7.96414490E-09
  0.414999992       1.01895141E-08
  0.417499989       1.29613884E-08
  0.419999987       1.64036731E-08
  0.422500014       2.06616289E-08
  0.425000012       2.59010839E-08
  0.427500010       3.23076108E-08
  0.430000007       4.00862419E-08
  0.432500005       4.94612564E-08
  0.435000002       6.06752479E-08
  0.437500000       7.39866053E-08
  0.439999998       8.96641126E-08
  0.442499995       1.07976931E-07
  0.444999993       1.29179980E-07
  0.447499990       1.53493062E-07
  0.449999988       1.81073986E-07
  0.452499986       2.11988080E-07
  0.455000013       2.46173670E-07
  0.457500011       2.83404432E-07
  0.460000008       3.23251385E-07
  0.462500006       3.65040989E-07
  0.465000004       4.07809409E-07
  0.467500001       4.50251463E-07
  0.469999999       4.90660113E-07
  0.472499996       5.26862380E-07
  0.474999994       5.56148962E-07
  0.477499992       5.75208787E-07
  0.479999989       5.80057872E-07
  0.482499987       5.65970879E-07
  0.485000014       5.27408076E-07
  0.487500012       4.57957839E-07
  0.490000010       3.50258716E-07
  0.492500007       1.95929715E-07
  0.495000005      -1.44936960E-08
  0.497500002      -2.91653862E-07
  0.500000000      -6.47435570E-07
  0.502499998      -1.09500832E-06
  0.504999995      -1.64897801E-06
  0.507499993      -2.32538741E-06
  0.509999990      -3.14178146E-06
  0.512499988      -4.11732071E-06
  0.514999986      -5.27273733E-06
  0.517499983      -6.63047558E-06
  0.519999981      -8.21454341E-06
  0.522499979      -1.00505849E-05
  0.524999976      -1.21658022E-05
  0.527499974      -1.45887616E-05
  0.529999971      -1.73494700E-05
  0.532500029      -2.04789922E-05
  0.535000026      -2.40092995E-05
  0.537500024      -2.79729011E-05
  0.540000021      -3.24025132E-05
  0.542500019      -3.73306357E-05
  0.545000017      -4.27888626E-05
  0.547500014      -4.88074620E-05
  0.550000012      -5.54145736E-05
  0.552500010      -6.26356050E-05
  0.555000007      -7.04929844E-05
  0.557500005      -7.90045233E-05
  0.560000002      -8.81837841E-05
  0.562500000      -9.80384793E-05
  0.564999998      -1.08570399E-04
  0.567499995      -1.19774893E-04
  0.569999993      -1.31639215E-04
  0.572499990      -1.44143894E-04
  0.574999988      -1.57261136E-04
  0.577499986      -1.70955493E-04
  0.579999983      -1.85183177E-04
  0.582499981      -1.99893067E-04
  0.584999979      -2.15026070E-04
  0.587499976      -2.30516467E-04
  0.589999974      -2.46291602E-04
  0.592499971      -2.62272108E-04
  0.595000029      -2.78373918E-04
  0.597500026      -2.94508762E-04
  0.600000024      -3.10583826E-04
  0.602500021      -3.26503941E-04
  0.605000019      -3.42171377E-04
  0.607500017      -3.57486046E-04
  0.610000014      -3.72348673E-04
  0.612500012      -3.86656233E-04
  0.615000010      -4.00307734E-04
  0.617500007      -4.13200760E-04
  0.620000005      -4.25231905E-04
  0.622500002      -4.36297647E-04
  0.625000000      -4.46293445E-04
  0.627499998      -4.55112953E-04
  0.629999995      -4.62648284E-04
  0.632499993      -4.68789862E-04
  0.634999990      -4.73424123E-04
  0.637499988      -4.76432790E-04
  0.639999986      -4.77692141E-04
  0.642499983      -4.77075810E-04
  0.644999981      -4.74451401E-04
  0.647499979      -4.69683117E-04
  0.649999976      -4.62633237E-04
  0.652499974      -4.53160523E-04
  0.654999971      -4.41123440E-04
  0.657500029      -4.26378887E-04
  0.660000026      -4.08791384E-04
  0.662500024      -3.88229673E-04
  0.665000021      -3.64576001E-04
  0.667500019      -3.37726524E-04
  0.670000017      -3.07600363E-04
  0.672500014      -2.74139544E-04
  0.675000012      -2.37316533E-04
  0.677500010      -1.97137502E-04
  0.680000007      -1.53649336E-04
  0.682500005      -1.06940119E-04
  0.685000002      -5.71470009E-05
  0.687500000      -4.45777823E-06
  0.689999998       5.08865633E-05
  0.692499995       1.08591383E-04
  0.694999993       1.68310638E-04
  0.697499990       2.29648649E-04
  0.699999988       2.92163197E-04
  0.702499986       3.55370517E-04
  0.704999983       4.18749463E-04
  0.707499981       4.81751311E-04
  0.709999979       5.43807517E-04
  0.712499976       6.04341796E-04
  0.714999974       6.62781706E-04
  0.717499971       7.18568452E-04
  0.720000029       7.71169725E-04
  0.722500026       8.20090238E-04
  0.725000024       8.64877657E-04
  0.727500021       9.05133958E-04
  0.730000019       9.40524100E-04
  0.732500017       9.70783469E-04
  0.735000014       9.95728304E-04
  0.737500012       1.01525267E-03
  0.740000010       1.02933368E-03
  0.742500007       1.03802898E-03
  0.745000005       1.04146812E-03
  0.747500002       1.03985134E-03
  0.750000000       1.03344128E-03
  0.752499998       1.02255412E-03
  0.754999995       1.00756180E-03
  0.757499993       9.88872023E-04
  0.759999990       9.66923661E-04
  0.762499988       9.42172657E-04
  0.764999986       9.15080600E-04
  0.767499983       8.86096968E-04
  0.769999981       8.55662220E-04
  0.772499979       8.24198127E-04
  0.774999976       7.92092644E-04
  0.777499974       7.59705959E-04
  0.779999971       7.27362232E-04
  0.782500029       6.95341034E-04
  0.785000026       6.63884450E-04
  0.787500024       6.33188582E-04
  0.790000021       6.03408553E-04
  0.792500019       5.74665144E-04
  0.795000017       5.47037402E-04
  0.797500014       5.20578411E-04
  0.800000012       4.95312968E-04
  0.802500010       4.71240695E-04
  0.805000007       4.48343693E-04
  0.807500005       4.26585495E-04
  0.810000002       4.05922037E-04
  0.812500000       3.86295724E-04
  0.814999998       3.67652072E-04
  0.817499995       3.49938578E-04
  0.819999993       3.33105185E-04
  0.822499990       3.17102706E-04
  0.824999988       3.01891152E-04
  0.827499986       2.87429692E-04
  0.829999983       2.73682905E-04
  0.832499981       2.60617846E-04
  0.834999979       2.48214172E-04
  0.837499976       2.36456064E-04
  0.839999974       2.25333148E-04
  0.842499971       2.14839412E-04
  0.845000029       2.04967670E-04
  0.847500026       1.95716304E-04
  0.850000024       1.87078113E-04
  0.852500021       1.79049399E-04
  0.855000019       1.71616834E-04
  0.857500017       1.64765472E-04
  0.860000014       1.58479786E-04
  0.862500012       1.52738081E-04
  0.865000010       1.47523038E-04
  0.867500007       1.42817036E-04
  0.870000005       1.38595235E-04
  0.872500002       1.34825968E-04
  0.875000000       1.31468885E-04
  0.877499998       1.28484229E-04
  0.879999995       1.25828054E-04
  0.882499993       1.23462873E-04
  0.884999990       1.21354140E-04
  0.887499988       1.19473028E-04
  0.889999986       1.17783049E-04
  0.892499983       1.16254181E-04
  0.894999981       1.14849507E-04
  0.897499979       1.13545262E-04
  0.899999976       1.12316782E-04
  0.902499974       1.11147943E-04
  0.904999971       1.10029316E-04
  0.907500029       1.08957167E-04
  0.910000026       1.07917294E-04
  0.912500024       1.06903281E-04
  0.915000021       1.05911087E-04
  0.917500019       1.04942505E-04
  0.920000017       1.04001716E-04
  0.922500014       1.03099046E-04
  0.925000012       1.02241203E-04
  0.927500010       1.01431040E-04
  0.930000007       1.00662124E-04
  0.932500005       9.99343101E-05
  0.935000002       9.92407076E-05
  0.937500000       9.85811930E-05
  0.939999998       9.79578399E-05
  0.942499995       9.73672140E-05
  0.944999993       9.68058812E-05
  0.947499990       9.62675622E-05
  0.949999988       9.57461307E-05
  0.952499986       9.52318733E-05
  0.954999983       9.47215085E-05
  0.957499981       9.42099432E-05
  0.959999979       9.36956858E-05
  0.962499976       9.31739560E-05
  0.964999974       9.26420616E-05
  0.967499971       9.20988241E-05
  0.970000029       9.15458586E-05
  0.972500026       9.09915470E-05
  0.975000024       9.04438130E-05
  0.977500021       8.99065490E-05
  0.980000019       8.93757024E-05
  0.982500017       8.88472423E-05
  0.985000014       8.83181929E-05
  0.987500012       8.77903440E-05
  0.990000010       8.72642777E-05
  0.992500007       8.67449417E-05
  0.995000005       8.62318775E-05
  0.997500002       8.57222549E-05
   1.00000000       8.52066514E-05
   1.00250006       8.46777548E-05
   1.00500000       8.41274814E-05
   1.00750005       8.35550891E-05
   1.00999999       8.29520650E-05
   1.01250005       8.23137671E-05
   1.01499999       8.16324246E-05
   1.01750004       8.09023622E-05
   1.01999998       8.01235874E-05
   1.02250004       7.93004147E-05
   1.02499998       7.84416843E-05
   1.02750003       7.75542503E-05
   1.02999997       7.66378216E-05
   1.03250003       7.56947920E-05
   1.03499997       7.47302547E-05
   1.03750002       7.37491137E-05
   1.03999996       7.27651422E-05
   1.04250002       7.17931180E-05
   1.04499996       7.08454609E-05
   1.04750001       6.99309821E-05
   1.04999995       6.90529632E-05
   1.05250001       6.82126120E-05
   1.05499995       6.74147086E-05
   1.05750000       6.66640190E-05
   1.05999994       6.59678844E-05
   1.06250000       6.53240568E-05
   1.06500006       6.47286506E-05
   1.06750000       6.41726947E-05
   1.07000005       6.36514160E-05
   1.07249999       6.31585353E-05
   1.07500005       6.26964320E-05
   1.07749999       6.22645239E-05
   1.08000004       6.18569757E-05
   1.08249998       6.14657183E-05
   1.08500004       6.10768475E-05
   1.08749998       6.06836511E-05
   1.09000003       6.02802866E-05
   1.09249997       5.98715415E-05
   1.09500003       5.94630947E-05
   1.09749997       5.90618220E-05
   1.10000002       5.86680217E-05
   1.10249996       5.82816974E-05
   1.10500002       5.79049338E-05
   1.10749996       5.75440135E-05
   1.11000001       5.72070057E-05
   1.11249995       5.69016811E-05
   1.11500001       5.66301314E-05
   1.11749995       5.63884714E-05
   1.12000000       5.61740126E-05
   1.12249994       5.59876498E-05
   1.12500000       5.58365537E-05
   1.12750006       5.57346284E-05
   1.13000000       5.56888990E-05
   1.13250005       5.56965933E-05
   1.13499999       5.57461353E-05
   1.13750005       5.58204119E-05
   1.13999999       5.59054533E-05
   1.14250004       5.59996006E-05
   1.14499998       5.61097477E-05
   1.14750004       5.62485875E-05
   1.14999998       5.64176880E-05
   1.15250003       5.66110757E-05
   1.15499997       5.68116375E-05
   1.15750003       5.70042794E-05
   1.15999997       5.71866040E-05
   1.16250002       5.73608668E-05
   1.16499996       5.75396080E-05
   1.16750002       5.77274623E-05
   1.16999996       5.79244406E-05
   1.17250001       5.81230561E-05
   1.17499995       5.83173423E-05
   1.17750001       5.85072921E-05
   1.17999995       5.86992574E-05
   1.18250000       5.89018382E-05
   1.18499994       5.91209282E-05
   1.18750000       5.93555669E-05
   1.19000006       5.95999154E-05
   1.19250000       5.98488987E-05
   1.19500005       6.01035572E-05
   1.19749999       6.03642002E-05
   1.20000005       6.06337308E-05
   1.20249999       6.09143208E-05
   1.20500004       6.12005897E-05
   1.20749998       6.14904493E-05
   1.21000004       6.17827754E-05
   1.21249998       6.20815263E-05
   1.21500003       6.23878950E-05
   1.21749997       6.27012923E-05
   1.22000003       6.30136346E-05
   1.22249997       6.33126183E-05
   1.22500002       6.35890974E-05
   1.22749996       6.38438360E-05
   1.23000002       6.40861617E-05
   1.23249996       6.43254316E-05
   1.23500001       6.45673936E-05
   1.23749995       6.48048663E-05
   1.24000001       6.50229122E-05
   1.24249995       6.52071831E-05
   1.24500000       6.53558163E-05
   1.24749994       6.54777687E-05
   1.25000000       6.55896292E-05
   1.25250006       6.57045530E-05
   1.25500000       6.58245553E-05
   1.25750005       6.59414291E-05
   1.25999999       6.60427540E-05
   1.26250005       6.61245795E-05
   1.26499999       6.61919039E-05
   1.26750004       6.62603561E-05
   1.26999998       6.63450919E-05
   1.27250004       6.64508261E-05
   1.27499998       6.65719563E-05
   1.27750003       6.66981650E-05
   1.27999997       6.68189969E-05
   1.28250003       6.69340734E-05
   1.28499997       6.70528098E-05
   1.28750002       6.71820089E-05
   1.28999996       6.73235409E-05
   1.29250002       6.74722396E-05
   1.29499996       6.76190029E-05
   1.29750001       6.77524586E-05
   1.29999995       6.78709694E-05
   1.30250001       6.79783479E-05
   1.30499995       6.80784069E-05
   1.30750000       6.81717356E-05
   1.30999994       6.82542377E-05
   1.31250000       6.83198450E-05
   1.31500006       6.83667677E-05
   1.31750000       6.84010738E-05
   1.32000005       6.84287952E-05
   1.32249999       6.84527768E-05
   1.32500005       6.84689949E-05
   1.32749999       6.84685438E-05
   1.33000004       6.84462793E-05
   1.33249998       6.84050246E-05
   1.33500004       6.83587787E-05
   1.33749998       6.83234248E-05
   1.34000003       6.83067701E-05
   1.34249997       6.83058679E-05
   1.34500003       6.83082544E-05
   1.34749997       6.83006365E-05
   1.35000002       6.82794198E-05
   1.35249996       6.82527389E-05
   1.35500002       6.82339814E-05
   1.35749996       6.82318205E-05
   1.36000001       6.82478858E-05
   1.36249995       6.82741884E-05
   1.36500001       6.83022809E-05
   1.36749995       6.83290345E-05
   1.37000000       6.83572798E-05
   1.37249994       6.83936742E-05
   1.37500000       6.84387342E-05
   1.37750006       6.84850529E-05
   1.38000000       6.85204795E-05
   1.38250005       6.85383347E-05
   1.38499999       6.85423001E-05
   1.38750005       6.85438645E-05
   1.38999999       6.85560444E-05
   1.39250004       6.85835475E-05
   1.39499998       6.86197163E-05
   1.39750004       6.86515486E-05
   1.39999998       6.86691856E-05
   1.40250003       6.86751591E-05
   1.40499997       6.86787389E-05
   1.40750003       6.86948842E-05
   1.40999997       6.87300053E-05
   1.41250002       6.87791762E-05
   1.41499996       6.88342479E-05
   1.41750002       6.88912623E-05
   1.41999996       6.89563458E-05
   1.42250001       6.90401866E-05
   1.42499995       6.91540699E-05
   1.42750001       6.92982139E-05
   1.42999995       6.94619375E-05
   1.43250000       6.96262578E-05
   1.43499994       6.97795185E-05
   1.43750000       6.99215670E-05
   1.44000006       7.00658638E-05
   1.44250000       7.02287653E-05
   1.44500005       7.04170670E-05
   1.44749999       7.06234568E-05
   1.45000005       7.08279040E-05
   1.45249999       7.10121749E-05
   1.45500004       7.11670727E-05
   1.45749998       7.12974725E-05
   1.46000004       7.14150883E-05
   1.46249998       7.15300193E-05
   1.46500003       7.16457653E-05
   1.46749997       7.17555304E-05
   1.47000003       7.18521551E-05
   1.47249997       7.19319578E-05
   1.47500002       7.19992095E-05
   1.47749996       7.20601893E-05
   1.48000002       7.21165343E-05
   1.48249996       7.21685428E-05
   1.48500001       7.22104596E-05
   1.48749995       7.22419936E-05
   1.49000001       7.22650075E-05
   1.49249995       7.22866753E-05
   1.49500000       7.23135818E-05
   1.49749994       7.23455596E-05
   1.50000000       7.23757475E-05
   1.50250006       7.23960766E-05
   1.50500000       7.24013007E-05
   1.50750005       7.23959238E-05
   1.50999999       7.23881531E-05
   1.51250005       7.23826233E-05
   1.51499999       7.23794146E-05
   1.51750004       7.23701451E-05
   1.51999998       7.23454868E-05
   1.52250004       7.23012490E-05
   1.52499998       7.22434925E-05
   1.52750003       7.21814649E-05
   1.52999997       7.21224351E-05
   1.53250003       7.20628741E-05
   1.53499997       7.19944364E-05
   1.53750002       7.19092423E-05
   1.53999996       7.18068695E-05
   1.54250002       7.16941140E-05
   1.54499996       7.15855349E-05
   1.54750001       7.14880225E-05
   1.54999995       7.14004418E-05
   1.55250001       7.13145855E-05
   1.55499995       7.12203619E-05
   1.55750000       7.11182074E-05
   1.55999994       7.10148670E-05
   1.56250000       7.09230299E-05
   1.56500006       7.08501757E-05
   1.56750000       7.07918080E-05
   1.57000005       7.07380896E-05
   1.57249999       7.06781575E-05
   1.57500005       7.06095598E-05
   1.57749999       7.05402126E-05
   1.58000004       7.04833437E-05
   1.58249998       7.04465056E-05
   1.58500004       7.04234189E-05
   1.58749998       7.03966653E-05
   1.59000003       7.03507903E-05
   1.59249997       7.02778489E-05
   1.59500003       7.01851968E-05
   1.59749997       7.00887977E-05
   1.60000002       7.00022647E-05
   1.60249996       6.99312804E-05
   1.60500002       6.98658187E-05
   1.60749996       6.97912474E-05
   1.61000001       6.96969437E-05
   1.61249995       6.95828421E-05
   1.61500001       6.94590199E-05
   1.61749995       6.93408074E-05
   1.62000000       6.92379908E-05
   1.62249994       6.91519745E-05
   1.62500000       6.90771049E-05
   1.62750006       6.90052912E-05
   1.63000000       6.89331864E-05
   1.63250005       6.88614455E-05
   1.63499999       6.87927750E-05
   1.63750005       6.87293359E-05
   1.63999999       6.86704516E-05
   1.64250004       6.86150088E-05
   1.64499998       6.85617997E-05
   1.64750004       6.85098639E-05
   1.64999998       6.84577026E-05
   1.65250003       6.84010738E-05
   1.65499997       6.83348626E-05
   1.65750003       6.82548343E-05
   1.65999997       6.81636666E-05
   1.66250002       6.80678713E-05
   1.66499996       6.79754376E-05
   1.66750002       6.78894285E-05
   1.66999996       6.78053621E-05
   1.67250001       6.77129283E-05
   1.67499995       6.76050258E-05
   1.67750001       6.74815019E-05
   1.67999995       6.73546238E-05
   1.68250000       6.72405877E-05
   1.68499994       6.71498055E-05
   1.68750000       6.70822192E-05
   1.69000006       6.70241134E-05
   1.69250000       6.69596266E-05
   1.69500005       6.68791472E-05
   1.69749999       6.67863424E-05
   1.70000005       6.66970082E-05
   1.70249999       6.66277047E-05
   1.70500004       6.65843254E-05
   1.70749998       6.65581319E-05
   1.71000004       6.65317202E-05
   1.71249998       6.64891631E-05
   1.71500003       6.64266190E-05
   1.71749997       6.63530154E-05
   1.72000003       6.62833336E-05
   1.72249997       6.62303937E-05
   1.72500002       6.61940358E-05
   1.72749996       6.61665035E-05
   1.73000002       6.61361992E-05
   1.73249996       6.60964870E-05
   1.73500001       6.60499645E-05
   1.73749995       6.60046499E-05
   1.74000001       6.59685902E-05
   1.74249995       6.59450161E-05
   1.74500000       6.59318612E-05
   1.74749994       6.59231227E-05
   1.75000000       6.59146826E-05
   1.75250006       6.59069410E-05
   1.75500000       6.59019352E-05
   1.75750005       6.59017824E-05
   1.75999999       6.59066791E-05
   1.76250005       6.59134821E-05
   1.76499999       6.59190482E-05
   1.76750004       6.59229700E-05
   1.76999998       6.59291327E-05
   1.77250004       6.59407160E-05
   1.77499998       6.59592115E-05
   1.77750003       6.59823418E-05
   1.77999997       6.60034493E-05
   1.78250003       6.60182050E-05
   1.78499997       6.60266160E-05
   1.78750002       6.60327423E-05
   1.78999996       6.60424193E-05
   1.79250002       6.60585938E-05
   1.79499996       6.60789228E-05
   1.79750001       6.60981241E-05
   1.79999995       6.61101949E-05
   1.80250001       6.61125086E-05
   1.80499995       6.61061640E-05
   1.80750000       6.60939841E-05
   1.80999994       6.60774676E-05
   1.81250000       6.60576625E-05
   1.81500006       6.60334481E-05
   1.81750000       6.60052465E-05
   1.82000005       6.59755024E-05
   1.82249999       6.59454672E-05
   1.82500005       6.59128855E-05
   1.82749999       6.58735444E-05
   1.83000004       6.58209028E-05
   1.83249998       6.57546552E-05
   1.83500004       6.56800767E-05
   1.83749998       6.56081174E-05
   1.84000003       6.55507683E-05
   1.84249997       6.55125477E-05
   1.84500003       6.54877804E-05
   1.84749997       6.54636024E-05
   1.85000002       6.54274336E-05
   1.85249996       6.53759562E-05
   1.85500002       6.53168827E-05
   1.85749996       6.52661765E-05
   1.86000001       6.52379313E-05
   1.86249995       6.52341987E-05
   1.86500001       6.52454037E-05
   1.86749995       6.52570307E-05
   1.87000000       6.52582603E-05
   1.87249994       6.52496310E-05
   1.87500000       6.52441740E-05
   1.87750006       6.52574017E-05
   1.88000000       6.52964445E-05
   1.88250005       6.53565585E-05
   1.88499999       6.54243340E-05
   1.88750005       6.54852411E-05
   1.88999999       6.55346666E-05
   1.89250004       6.55796175E-05
   1.89499998       6.56345728E-05
   1.89750004       6.57129567E-05
   1.89999998       6.58178033E-05
   1.90250003       6.59405705E-05
   1.90499997       6.60667429E-05
   1.90750003       6.61816302E-05
   1.90999997       6.62794773E-05
   1.91250002       6.63629107E-05
   1.91499996       6.64397303E-05
   1.91750002       6.65184198E-05
   1.91999996       6.66026317E-05
   1.92250001       6.66890846E-05
   1.92499995       6.67705754E-05
   1.92750001       6.68379362E-05
   1.92999995       6.68840075E-05
   1.93250000       6.69045185E-05
   1.93499994       6.68991051E-05
   1.93750000       6.68716020E-05
   1.94000006       6.68293069E-05
   1.94250000       6.67799904E-05
   1.94500005       6.67283894E-05
   1.94749999       6.66732813E-05
   1.95000005       6.66097258E-05
   1.95249999       6.65300686E-05
   1.95500004       6.64317340E-05
   1.95749998       6.63196479E-05
   1.96000004       6.62061429E-05
   1.96249998       6.61046652E-05
   1.96500003       6.60224687E-05
   1.96749997       6.59585057E-05
   1.97000003       6.59030557E-05
   1.97249997       6.58460049E-05
   1.97500002       6.57840574E-05
   1.97749996       6.57235360E-05
   1.98000002       6.56781704E-05
   1.98249996       6.56604607E-05
   1.98500001       6.56744378E-05
   1.98749995       6.57138226E-05
   1.99000001       6.57660494E-05
   1.99249995       6.58176796E-05
   1.99500000       6.58645367E-05
   1.99749994       6.59106809E-05
   2.00000000       6.59636571E-05
   2.00250006       6.60298683E-05
   2.00500011       6.61089653E-05
   2.00749993       6.61941085E-05
   2.00999999       6.62775783E-05
   2.01250005       6.63542523E-05
   2.01500010       6.64221006E-05
   2.01749992       6.64834515E-05
   2.01999998       6.65397893E-05
   2.02250004       6.65920525E-05
   2.02500010       6.66392443E-05
   2.02749991       6.66825508E-05
   2.02999997       6.67239074E-05
   2.03250003       6.67670247E-05
   2.03500009       6.68136927E-05
   2.03749990       6.68619250E-05
   2.03999996       6.69069850E-05
   2.04250002       6.69453220E-05
   2.04500008       6.69784567E-05
   2.04749990       6.70141380E-05
   2.04999995       6.70621521E-05
   2.05250001       6.71289163E-05
   2.05500007       6.72112292E-05
   2.05749989       6.72978276E-05
   2.05999994       6.73755858E-05
   2.06250000       6.74370458E-05
   2.06500006       6.74858020E-05
   2.06750011       6.75339252E-05
   2.06999993       6.75935953E-05
   2.07249999       6.76700001E-05
   2.07500005       6.77565258E-05
   2.07750010       6.78383512E-05
   2.07999992       6.79014192E-05
   2.08249998       6.79422956E-05
   2.08500004       6.79676668E-05
   2.08750010       6.79920631E-05
   2.08999991       6.80283410E-05
   2.09249997       6.80796002E-05
   2.09500003       6.81381862E-05
   2.09750009       6.81923630E-05
   2.09999990       6.82334939E-05
   2.10249996       6.82606624E-05
   2.10500002       6.82824830E-05
   2.10750008       6.83094549E-05
   2.10999990       6.83482358E-05
   2.11249995       6.83997205E-05
   2.11500001       6.84596525E-05
   2.11750007       6.85228733E-05
   2.11999989       6.85836203E-05
   2.12249994       6.86401909E-05
   2.12500000       6.86922722E-05
   2.12750006       6.87424836E-05
   2.13000011       6.87928477E-05
   2.13249993       6.88469518E-05
   2.13499999       6.89068402E-05
   2.13750005       6.89740555E-05
   2.14000010       6.90454181E-05