   0.00000000       0.00000000    
   2.49999994E-03   0.00000000    
   4.99999989E-03   0.00000000    
   7.49999983E-03   0.00000000    
   9.99999978E-03   0.00000000    
   1.25000002E-02   0.00000000    
   1.49999997E-02   0.00000000    
   1.75000001E-02   0.00000000    
   1.99999996E-02  -2.76954157E-20
   2.25000009E-02   3.36625984E-19
   2.50000004E-02  -1.80151790E-18
   2.74999999E-02   4.46642789E-19
   2.99999993E-02   1.89144657E-17
   3.24999988E-02  -2.45287225E-17
   3.50000001E-02  -1.03404922E-16
   3.75000015E-02   1.84172280E-16
   3.99999991E-02   3.86253006E-16
   4.25000004E-02  -8.88757049E-16
   4.50000018E-02  -1.06154690E-15
   4.74999994E-02   3.57014138E-15
   5.00000007E-02   2.44478505E-15
   5.24999984E-02  -1.29779271E-14
   5.49999997E-02  -6.98007707E-15
   5.75000010E-02   4.12724664E-14
   5.99999987E-02   2.86562122E-14
   6.25000000E-02  -1.06294070E-13
   6.49999976E-02  -1.11703981E-13
   6.75000027E-02   2.03777845E-13
   7.00000003E-02   3.32415844E-13
   7.24999979E-02  -2.50948107E-13
   7.50000030E-02  -7.27984133E-13
   7.75000006E-02   8.26009725E-14
   7.99999982E-02   1.17261300E-12
   8.25000033E-02   3.84048804E-13
   8.50000009E-02  -1.41930077E-12
   8.74999985E-02  -9.59710935E-13
   9.00000036E-02   1.44926237E-12
   9.25000012E-02   1.44134303E-12
   9.49999988E-02  -1.58973084E-12
   9.74999964E-02  -2.20887523E-12
  0.100000001       1.69179633E-12
  0.102499999       3.78783420E-12
  0.104999997      -5.27560797E-13
  0.107500002      -5.10965836E-12
  0.109999999      -2.27363549E-12
  0.112499997       3.96034247E-12
  0.115000002       3.98903870E-12
  0.117500000      -1.24707980E-12
  0.119999997      -2.39325075E-12
  0.122500002       1.26838741E-12
  0.125000000       1.09444029E-12
  0.127499998      -3.53903929E-12
  0.129999995      -3.32040602E-12
  0.132499993       2.38079478E-12
  0.135000005       3.17317353E-12
  0.137500003      -1.37072732E-12
  0.140000001       7.47134342E-13
  0.142499998       8.86983455E-12
  0.144999996       5.89902172E-12
  0.147499993      -1.08664232E-11
  0.150000006      -1.99288485E-11
  0.152500004      -8.50909967E-12
  0.155000001       8.95726028E-12
  0.157499999       1.68321364E-11
  0.159999996       1.74332666E-11
  0.162499994       1.27957671E-11
  0.165000007      -4.24615985E-12
  0.167500004      -2.61172039E-11
  0.170000002      -2.71674471E-11
  0.172499999      -3.24897769E-12
  0.174999997       1.38581308E-11
  0.177499995       4.36304248E-12
  0.180000007      -5.50576858E-12
  0.182500005       1.24938298E-11
  0.185000002       3.60614108E-11
  0.187500000       2.44518468E-11
  0.189999998      -1.36921533E-11
  0.192499995      -3.45212504E-11
  0.194999993      -3.47862954E-11
  0.197500005      -5.21871782E-11
  0.200000003      -8.00719005E-11
  0.202500001      -5.38012065E-11
  0.204999998       4.45976554E-11
  0.207499996       1.40616824E-10
  0.209999993       1.73607753E-10
  0.212500006       1.70254699E-10
  0.215000004       1.45135307E-10
  0.217500001       1.34188207E-11
  0.219999999      -2.87517260E-10
  0.222499996      -6.26911523E-10
  0.224999994      -7.34383110E-10
  0.227500007      -4.46221504E-10
  0.230000004       1.24246710E-10
  0.232500002       6.54662768E-10
  0.234999999       8.52637960E-10
  0.237499997       6.52879806E-10
  0.239999995       1.99429362E-10
  0.242500007      -3.11843329E-10
  0.245000005      -7.02954084E-10
  0.247500002      -7.73874964E-10
  0.250000000      -3.26660837E-10
  0.252499998       7.43080319E-10
  0.254999995       2.41062015E-09
  0.257499993       4.47473170E-09
  0.259999990       6.45406351E-09
  0.262499988       7.72968267E-09
  0.264999986       8.10715584E-09
  0.267500013       8.30107361E-09
  0.270000011       9.72136771E-09
  0.272500008       1.36850318E-08
  0.275000006       2.07652455E-08
  0.277500004       3.07734460E-08
  0.280000001       4.32794245E-08
  0.282499999       5.81917199E-08
  0.284999996       7.59788961E-08
  0.287499994       9.75449908E-08
  0.289999992       1.24095493E-07
  0.292499989       1.57220200E-07
  0.294999987       1.99103354E-07
  0.297500014       2.52662204E-07
  0.300000012       3.21418923E-07
  0.302500010       4.08991752E-07
  0.305000007       5.18527429E-07
  0.307500005       6.52678523E-07
  0.310000002       8.14337454E-07
  0.312500000       1.00768477E-06
  0.314999998       1.23880432E-06
  0.317499995       1.51546499E-06
  0.319999993       1.84627129E-06
  0.322499990       2.23982511E-06
  0.324999988       2.70460259E-06
  0.327499986       3.24946836E-06
  0.330000013       3.88421404E-06
  0.332500011       4.61957734E-06
  0.335000008       5.46666706E-06
  0.337500006       6.43621433E-06
  0.340000004       7.53815539E-06
  0.342500001       8.78202991E-06
  0.344999999       1.01775095E-05
  0.347499996       1.17342597E-05
  0.349999994       1.34614511E-05
  0.352499992       1.53663714E-05
  0.354999989       1.74537927E-05
  0.357499987       1.97252539E-05
  0.360000014       2.21793580E-05
  0.362500012       2.48120959E-05
  0.365000010       2.76166738E-05
  0.367500007       3.05832327E-05
  0.370000005       3.36977137E-05
  0.372500002       3.69417830E-05
  0.375000000       4.02930928E-05
  0.377499998       4.37255621E-05
  0.379999995       4.72111060E-05
  0.382499993       5.07187506E-05
  0.384999990       5.42139132E-05
  0.387499988       5.76568855E-05
  0.389999986       6.10037496E-05
  0.392500013       6.42076848E-05
  0.395000011       6.72212773E-05
  0.397500008       6.99983138E-05
  0.400000006       7.24937054E-05
  0.402500004       7.46626101E-05
  0.405000001       7.64596625E-05
  0.407499999       7.78393805E-05
  0.409999996       7.87562676E-05
  0.412499994       7.91678758E-05
  0.414999992       7.90315535E-05
  0.417499989       7.83064243E-05
  0.419999987       7.69526741E-05
  0.422500014       7.49315950E-05
  0.425000012       7.22017576E-05
  0.427500010       6.87243664E-05
  0.430000007       6.44589600E-05
  0.432500005       5.93616569E-05
  0.435000002       5.33839775E-05
  0.437500000       4.64721634E-05
  0.439999998       3.85616950E-05
  0.442499995       2.95769423E-05
  0.444999993       1.94320146E-05
  0.447499990       8.03201146E-06
  0.449999988      -4.73373666E-06
  0.452499986      -1.89857583E-05
  0.455000013      -3.48614012E-05
  0.457500011      -5.25103351E-05
  0.460000008      -7.20982207E-05
  0.462500006      -9.38069497E-05
  0.465000004      -1.17835203E-04
  0.467500001      -1.44391117E-04
  0.469999999      -1.73689026E-04
  0.472499996      -2.05945034E-04
  0.474999994      -2.41379719E-04
  0.477499992      -2.80198903E-04
  0.479999989      -3.22601118E-04
  0.482499987      -3.68769048E-04
  0.485000014      -4.18862328E-04
  0.487500012      -4.73004504E-04
  0.490000010      -5.31291822E-04
  0.492500007      -5.93768375E-04
  0.495000005      -6.60412305E-04
  0.497500002      -7.31148699E-04
  0.500000000      -8.05836113E-04
  0.502499998      -8.84255103E-04
  0.504999995      -9.66125459E-04
  0.507499993      -1.05108751E-03
  0.509999990      -1.13870518E-03
  0.512499988      -1.22846628E-03
  0.514999986      -1.31977524E-03
  0.517499983      -1.41197967E-03
  0.519999981      -1.50436081E-03
  0.522499979      -1.59615814E-03
  0.524999976      -1.68657617E-03
  0.527499974      -1.77478988E-03
  0.529999971      -1.85997225E-03
  0.532500029      -1.94129103E-03
  0.535000026      -2.01793830E-03
  0.537500024      -2.08915747E-03
  0.540000021      -2.15422292E-03
  0.542500019      -2.21248227E-03
  0.545000017      -2.26336042E-03
  0.547500014      -2.30637309E-03
  0.550000012      -2.34113517E-03
  0.552500010      -2.36737472E-03
  0.555000007      -2.38493551E-03
  0.557500005      -2.39378447E-03
  0.560000002      -2.39399215E-03
  0.562500000      -2.38574157E-03
  0.564999998      -2.36931536E-03
  0.567499995      -2.34509795E-03
  0.569999993      -2.31355755E-03
  0.572499990      -2.27523898E-03
  0.574999988      -2.23074970E-03
  0.577499986      -2.18074233E-03
  0.579999983      -2.12590024E-03
  0.582499981      -2.06692913E-03
  0.584999979      -2.00453959E-03
  0.587499976      -1.93943747E-03
  0.589999974      -1.87230285E-03
  0.592499971      -1.80378323E-03
  0.595000029      -1.73447479E-03
  0.597500026      -1.66492851E-03
  0.600000024      -1.59563986E-03
  0.602500021      -1.52705493E-03
  0.605000019      -1.45956036E-03
  0.607500017      -1.39348861E-03
  0.610000014      -1.32910709E-03
  0.612500012      -1.26662140E-03
  0.615000010      -1.20617973E-03
  0.617500007      -1.14788988E-03
  0.620000005      -1.09181029E-03
  0.622500002      -1.03797659E-03
  0.625000000      -9.86383646E-04
  0.627499998      -9.37009638E-04
  0.629999995      -8.89799325E-04
  0.632499993      -8.44671507E-04
  0.634999990      -8.01539805E-04
  0.637499988      -7.60312949E-04
  0.639999986      -7.20904383E-04
  0.642499983      -6.83219754E-04
  0.644999981      -6.47171575E-04
  0.647499979      -6.12665026E-04
  0.649999976      -5.79600513E-04
  0.652499974      -5.47883159E-04
  0.654999971      -5.17425244E-04
  0.657500029      -4.88153601E-04
  0.660000026      -4.60009585E-04
  0.662500024      -4.32940258E-04
  0.665000021      -4.06891806E-04
  0.667500019      -3.81811347E-04
  0.670000017      -3.57644458E-04
  0.672500014      -3.34340235E-04
  0.675000012      -3.11862736E-04
  0.677500010      -2.90185097E-04
  0.680000007      -2.69287266E-04
  0.682500005      -2.49139557E-04
  0.685000002      -2.29718891E-04
  0.687500000      -2.10999598E-04
  0.689999998      -1.92956868E-04
  0.692499995      -1.75570676E-04
  0.694999993      -1.58830997E-04
  0.697499990      -1.42718985E-04
  0.699999988      -1.27226609E-04
  0.702499986      -1.12323811E-04
  0.704999983      -9.80001278E-05
  0.707499981      -8.42250738E-05
  0.709999979      -7.09898304E-05
  0.712499976      -5.82769135E-05
  0.714999974      -4.60656993E-05
  0.717499971      -3.43243519E-05
  0.720000029      -2.30332971E-05
  0.722500026      -1.21701160E-05
  0.725000024      -1.72240493E-06
  0.727500021       8.32074784E-06
  0.730000019       1.79738363E-05
  0.732500017       2.72553953E-05
  0.735000014       3.61869388E-05
  0.737500012       4.47949278E-05
  0.740000010       5.30934085E-05
  0.742500007       6.10832794E-05
  0.745000005       6.87772335E-05
  0.747500002       7.61697520E-05
  0.750000000       8.32609730E-05
  0.752499998       9.00615196E-05
  0.754999995       9.65809522E-05
  0.757499993       1.02827042E-04
  0.759999990       1.08789332E-04
  0.762499988       1.14459443E-04
  0.764999986       1.19830656E-04
  0.767499983       1.24901329E-04
  0.769999981       1.29673237E-04
  0.772499979       1.34162998E-04
  0.774999976       1.38377043E-04
  0.777499974       1.42310993E-04
  0.779999971       1.45946658E-04
  0.782500029       1.49264728E-04
  0.785000026       1.52276582E-04
  0.787500024       1.54998357E-04
  0.790000021       1.57456205E-04
  0.792500019       1.59678209E-04
  0.795000017       1.61676042E-04
  0.797500014       1.63443881E-04
  0.800000012       1.64980986E-04
  0.802500010       1.66288810E-04
  0.805000007       1.67382779E-04
  0.807500005       1.68283514E-04
  0.810000002       1.69021790E-04
  0.812500000       1.69608524E-04
  0.814999998       1.70046580E-04
  0.817499995       1.70336207E-04
  0.819999993       1.70482061E-04
  0.822499990       1.70500076E-04
  0.824999988       1.70406740E-04
  0.827499986       1.70218278E-04
  0.829999983       1.69929845E-04
  0.832499981       1.69542182E-04
  0.834999979       1.69047344E-04
  0.837499976       1.68446408E-04
  0.839999974       1.67750492E-04
  0.842499971       1.66973216E-04
  0.845000029       1.66125086E-04
  0.847500026       1.65198115E-04
  0.850000024       1.64193902E-04
  0.852500021       1.63105244E-04
  0.855000019       1.61939373E-04
  0.857500017       1.60712691E-04
  0.860000014       1.59430798E-04
  0.862500012       1.58100709E-04
  0.865000010       1.56712384E-04
  0.867500007       1.55258313E-04
  0.870000005       1.53740810E-04
  0.872500002       1.52175038E-04
  0.875000000       1.50583161E-04
  0.877499998       1.48980631E-04
  0.879999995       1.47355880E-04
  0.882499993       1.45701546E-04
  0.884999990       1.43993719E-04
  0.887499988       1.42234770E-04
  0.889999986       1.40442804E-04
  0.892499983       1.38638265E-04
  0.894999981       1.36836068E-04
  0.897499979       1.35033712E-04
  0.899999976       1.33217894E-04
  0.902499974       1.31372115E-04
  0.904999971       1.29490174E-04
  0.907500029       1.27579682E-04
  0.910000026       1.25657694E-04
  0.912500024       1.23740479E-04
  0.915000021       1.21824232E-04
  0.917500019       1.19903736E-04
  0.920000017       1.17965676E-04
  0.922500014       1.16010357E-04
  0.925000012       1.14041213E-04
  0.927500010       1.12070345E-04
  0.930000007       1.10102847E-04
  0.932500005       1.08138185E-04
  0.935000002       1.06167165E-04
  0.937500000       1.04180239E-04
  0.939999998       1.02180304E-04
  0.942499995       1.00183657E-04
  0.944999993       9.82116762E-05
  0.947499990       9.62671111E-05
  0.949999988       9.43466875E-05
  0.952499986       9.24235719E-05
  0.954999983       9.04812478E-05
  0.957499981       8.85129339E-05
  0.959999979       8.65292823E-05
  0.962499976       8.45536415E-05
  0.964999974       8.25960742E-05
  0.967499971       8.06678072E-05
  0.970000029       7.87531317E-05
  0.972500026       7.68398822E-05
  0.975000024       7.49196770E-05
  0.977500021       7.29899839E-05
  0.980000019       7.10617169E-05
  0.982500017       6.91502573E-05
  0.985000014       6.72587557E-05
  0.987500012       6.53797979E-05
  0.990000010       6.35126489E-05
  0.992500007       6.16575344E-05
  0.995000005       5.98205770E-05
  0.997500002       5.80040214E-05
   1.00000000       5.62118948E-05
   1.00250006       5.44365139E-05
   1.00500000       5.26754775E-05
   1.00750005       5.09196689E-05
   1.00999999       4.91705105E-05
   1.01250005       4.74355547E-05
   1.01499999       4.57197966E-05
   1.01750004       4.40277327E-05
   1.01999998       4.23559904E-05
   1.02250004       4.07005391E-05
   1.02499998       3.90581663E-05
   1.02750003       3.74299852E-05
   1.02999997       3.58189209E-05
   1.03250003       3.42268395E-05
   1.03499997       3.26471563E-05
   1.03750002       3.10648611E-05
   1.03999996       2.94762867E-05
   1.04250002       2.78839780E-05
   1.04499996       2.63033271E-05
   1.04750001       2.47544322E-05
   1.04999995       2.32455895E-05
   1.05250001       2.17716442E-05
   1.05499995       2.03131676E-05
   1.05750000       1.88407175E-05
   1.05999994       1.73431599E-05
   1.06250000       1.58288640E-05
   1.06500006       1.43224124E-05
   1.06750000       1.28502606E-05
   1.07000005       1.14232434E-05
   1.07249999       1.00329153E-05
   1.07500005       8.65633592E-06
   1.07749999       7.27288261E-06
   1.08000004       5.86708620E-06
   1.08249998       4.44858733E-06
   1.08500004       3.02896683E-06
   1.08749998       1.62728020E-06
   1.09000003       2.53391534E-07
   1.09249997      -1.09419409E-06
   1.09500003      -2.43258842E-06
   1.09749997      -3.76881599E-06
   1.10000002      -5.10863038E-06
   1.10249996      -6.45180717E-06
   1.10500002      -7.79700167E-06
   1.10749996      -9.13808708E-06
   1.11000001      -1.04676628E-05
   1.11249995      -1.17848358E-05
   1.11500001      -1.30844492E-05
   1.11749995      -1.43712832E-05
   1.12000000      -1.56478800E-05
   1.12249994      -1.69226842E-05
   1.12500000      -1.82024196E-05
   1.12750006      -1.94846962E-05
   1.13000000      -2.07616667E-05
   1.13250005      -2.20218972E-05
   1.13499999      -2.32612074E-05
   1.13750005      -2.44825842E-05
   1.13999999      -2.56985786E-05
   1.14250004      -2.69237644E-05
   1.14499998      -2.81618795E-05
   1.14750004      -2.93996945E-05
   1.14999998      -3.06233851E-05
   1.15250003      -3.18183847E-05
   1.15499997      -3.29872310E-05
   1.15750003      -3.41465093E-05
   1.15999997      -3.53158030E-05
   1.16250002      -3.65066880E-05
   1.16499996      -3.77131910E-05
   1.16750002      -3.89223896E-05
   1.16999996      -4.01135003E-05
   1.17250001      -4.12773406E-05
   1.17499995      -4.24167411E-05
   1.17750001      -4.35453076E-05
   1.17999995      -4.46760459E-05
   1.18250000      -4.58170871E-05
   1.18499994      -4.69641891E-05
   1.18750000      -4.81136813E-05
   1.19000006      -4.92593608E-05
   1.19250000      -5.03952469E-05
   1.19500005      -5.15217216E-05
   1.19749999      -5.26396834E-05
   1.20000005      -5.37504638E-05
   1.20249999      -5.48551216E-05
   1.20500004      -5.59530490E-05
   1.20749998      -5.70479933E-05
   1.21000004      -5.81453969E-05
   1.21249998      -5.92477372E-05
   1.21500003      -6.03491790E-05
   1.21749997      -6.14435994E-05
   1.22000003      -6.25238899E-05
   1.22249997      -6.35926845E-05
   1.22500002      -6.46563130E-05
   1.22749996      -6.57227065E-05
   1.23000002      -6.67944914E-05
   1.23249996      -6.78706710E-05
   1.23500001      -6.89383378E-05
   1.23749995      -6.99897137E-05
   1.24000001      -7.10199456E-05
   1.24249995      -7.20370226E-05
   1.24500000      -7.30550018E-05
   1.24749994      -7.40826072E-05
   1.25000000      -7.51220359E-05
   1.25250006      -7.61636184E-05
   1.25500000      -7.71966152E-05
   1.25750005      -7.82127972E-05
   1.25999999      -7.92132851E-05
   1.26250005      -8.02031645E-05
   1.26499999      -8.11930440E-05
   1.26750004      -8.21880749E-05
   1.26999998      -8.31872239E-05
   1.27250004      -8.41868168E-05
   1.27499998      -8.51835648E-05
   1.27750003      -8.61730005E-05
   1.27999997      -8.71556258E-05
   1.28250003      -8.81331071E-05
   1.28499997      -8.91041491E-05
   1.28750002      -9.00682498E-05
   1.28999996      -9.10283925E-05
   1.29250002      -9.19890444E-05
   1.29499996      -9.29560629E-05
   1.29750001      -9.39304737E-05
   1.29999995      -9.49066016E-05
   1.30250001      -9.58759992E-05
   1.30499995      -9.68288150E-05
   1.30750000      -9.77642267E-05
   1.30999994      -9.86901432E-05
   1.31250000      -9.96179151E-05
   1.31500006      -1.00556092E-04
   1.31750000      -1.01502548E-04
   1.32000005      -1.02448939E-04
   1.32249999      -1.03385166E-04
   1.32500005      -1.04302257E-04
   1.32749999      -1.05203966E-04
   1.33000004      -1.06098341E-04
   1.33249998      -1.06993102E-04
   1.33500004      -1.07895845E-04
   1.33749998      -1.08799199E-04
   1.34000003      -1.09696266E-04
   1.34249997      -1.10582951E-04
   1.34500003      -1.11455964E-04
   1.34749997      -1.12320522E-04
   1.35000002      -1.13181508E-04
   1.35249996      -1.14044349E-04
   1.35500002      -1.14906674E-04
   1.35749996      -1.15764138E-04
   1.36000001      -1.16614581E-04
   1.36249995      -1.17454489E-04
   1.36500001      -1.18284748E-04
   1.36749995      -1.19105825E-04
   1.37000000      -1.19921897E-04
   1.37249994      -1.20734527E-04
   1.37500000      -1.21550220E-04
   1.37750006      -1.22372643E-04
   1.38000000      -1.23201724E-04
   1.38250005      -1.24033773E-04
   1.38499999      -1.24859260E-04
   1.38750005      -1.25668754E-04
   1.38999999      -1.26456944E-04
   1.39250004      -1.27229912E-04
   1.39499998      -1.27996347E-04
   1.39750004      -1.28769985E-04
   1.39999998      -1.29562060E-04
   1.40250003      -1.30368950E-04
   1.40499997      -1.31179404E-04
   1.40750003      -1.31979032E-04
   1.40999997      -1.32760644E-04
   1.41250002      -1.33520603E-04
   1.41499996      -1.34267917E-04
   1.41750002      -1.35011214E-04
   1.41999996      -1.35757698E-04
   1.42250001      -1.36507049E-04
   1.42499995      -1.37254901E-04
   1.42750001      -1.37995637E-04
   1.42999995      -1.38728166E-04
   1.43250000      -1.39455471E-04
   1.43499994      -1.40181481E-04
   1.43750000      -1.40906690E-04
   1.44000006      -1.41628450E-04
   1.44250000      -1.42342455E-04
   1.44500005      -1.43047931E-04
   1.44749999      -1.43749581E-04
   1.45000005      -1.44451042E-04
   1.45249999      -1.45155238E-04
   1.45500004      -1.45864149E-04
   1.45749998      -1.46575083E-04
   1.46000004      -1.47284736E-04
   1.46249998      -1.47994186E-04
   1.46500003      -1.48705934E-04
   1.46749997      -1.49420230E-04
   1.47000003      -1.50130043E-04
   1.47249997      -1.50826847E-04
   1.47500002      -1.51505723E-04
   1.47749996      -1.52166729E-04
   1.48000002      -1.52815352E-04
   1.48249996      -1.53466201E-04
   1.48500001      -1.54127963E-04
   1.48749995      -1.54798472E-04
   1.49000001      -1.55467467E-04
   1.49249995      -1.56119670E-04
   1.49500000      -1.56744893E-04
   1.49749994      -1.57342176E-04
   1.50000000      -1.57920615E-04
   1.50250006      -1.58498093E-04
   1.50500000      -1.59082803E-04
   1.50750005      -1.59674091E-04
   1.50999999      -1.60262338E-04
   1.51250005      -1.60835320E-04
   1.51499999      -1.61386721E-04
   1.51750004      -1.61920179E-04
   1.51999998      -1.62445795E-04
   1.52250004      -1.62973360E-04
   1.52499998      -1.63505611E-04
   1.52750003      -1.64036246E-04
   1.52999997      -1.64556841E-04
   1.53250003      -1.65063175E-04
   1.53499997      -1.65556368E-04
   1.53750002      -1.66043115E-04
   1.53999996      -1.66530328E-04
   1.54250002      -1.67020218E-04
   1.54499996      -1.67507795E-04
   1.54750001      -1.67988124E-04
   1.54999995      -1.68456652E-04
   1.55250001      -1.68917395E-04
   1.55499995      -1.69373146E-04
   1.55750000      -1.69827472E-04
   1.55999994      -1.70278290E-04
   1.56250000      -1.70723652E-04
   1.56500006      -1.71161912E-04
   1.56750000      -1.71596432E-04
   1.57000005      -1.72031854E-04
   1.57249999      -1.72471831E-04
   1.57500005      -1.72913904E-04
   1.57749999      -1.73351349E-04
   1.58000004      -1.73773471E-04
   1.58249998      -1.74181463E-04
   1.58500004      -1.74581466E-04
   1.58749998      -1.74986169E-04
   1.59000003      -1.75403213E-04
   1.59249997      -1.75833178E-04
   1.59500003      -1.76263507E-04
   1.59749997      -1.76679285E-04
   1.60000002      -1.77071881E-04
   1.60249996      -1.77441616E-04
   1.60500002      -1.77800684E-04
   1.60749996      -1.78161965E-04
   1.61000001      -1.78531045E-04
   1.61249995      -1.78902337E-04
   1.61500001      -1.79264156E-04
   1.61749995      -1.79604307E-04
   1.62000000      -1.79921743E-04
   1.62249994      -1.80220493E-04
   1.62500000      -1.80510411E-04
   1.62750006      -1.80797593E-04
   1.63000000      -1.81081981E-04
   1.63250005      -1.81359137E-04
   1.63499999      -1.81621348E-04
   1.63750005      -1.81868469E-04
   1.63999999      -1.82105709E-04
   1.64250004      -1.82338888E-04
   1.64499998      -1.82569129E-04
   1.64750004      -1.82796284E-04
   1.64999998      -1.83017255E-04
   1.65250003      -1.83229204E-04
   1.65499997      -1.83435928E-04
   1.65750003      -1.83641547E-04
   1.65999997      -1.83847180E-04
   1.66250002      -1.84052362E-04
   1.66499996      -1.84252829E-04
   1.66750002      -1.84444667E-04
   1.66999996      -1.84629273E-04
   1.67250001      -1.84816163E-04
   1.67499995      -1.85010897E-04
   1.67750001      -1.85216588E-04
   1.67999995      -1.85424957E-04
   1.68250000      -1.85623358E-04
   1.68499994      -1.85802797E-04
   1.68750000      -1.85962490E-04
   1.69000006      -1.86113728E-04
   1.69250000      -1.86269317E-04
   1.69500005      -1.86440244E-04
   1.69749999      -1.86624253E-04
   1.70000005      -1.86809149E-04
   1.70249999      -1.86981284E-04
   1.70500004      -1.87131329E-04
   1.70749998      -1.87264493E-04
   1.71000004      -1.87391823E-04
   1.71249998      -1.87525045E-04
   1.71500003      -1.87669575E-04
   1.71749997      -1.87819285E-04
   1.72000003      -1.87964135E-04
   1.72249997      -1.88097823E-04
   1.72500002      -1.88219463E-04
   1.72749996      -1.88337348E-04
   1.73000002      -1.88458507E-04
   1.73249996      -1.88584352E-04
   1.73500001      -1.88711158E-04
   1.73749995      -1.88833525E-04
   1.74000001      -1.88943406E-04
   1.74249995      -1.89041559E-04
   1.74500000      -1.89132450E-04
   1.74749994      -1.89219776E-04
   1.75000000      -1.89305560E-04
   1.75250006      -1.89388433E-04
   1.75500000      -1.89462706E-04
   1.75750005      -1.89527898E-04
   1.75999999      -1.89586863E-04
   1.76250005      -1.89645216E-04
   1.76499999      -1.89702463E-04
   1.76750004      -1.89752071E-04
   1.76999998      -1.89789804E-04
   1.77250004      -1.89809536E-04
   1.77499998      -1.89817016E-04
   1.77750003      -1.89822837E-04
   1.77999997      -1.89840895E-04
   1.78250003      -1.89877159E-04
   1.78499997      -1.89925893E-04
   1.78750002      -1.89972881E-04
   1.78999996      -1.90004575E-04
   1.79250002      -1.90017046E-04
   1.79499996      -1.90016188E-04
   1.79750001      -1.90015853E-04
   1.79999995      -1.90030609E-04
   1.80250001      -1.90062405E-04
   1.80499995      -1.90103092E-04
   1.80750000      -1.90138933E-04
   1.80999994      -1.90162202E-04
   1.81250000      -1.90171282E-04
   1.81500006      -1.90173596E-04
   1.81750000      -1.90176885E-04
   1.82000005      -1.90183957E-04
   1.82249999      -1.90190782E-04
   1.82500005      -1.90193736E-04
   1.82749999      -1.90186154E-04
   1.83000004      -1.90168968E-04
   1.83249998      -1.90144943E-04
   1.83500004      -1.90119943E-04
   1.83749998      -1.90097708E-04
   1.84000003      -1.90077117E-04
   1.84249997      -1.90057137E-04
   1.84500003      -1.90038729E-04
   1.84749997      -1.90019520E-04
   1.85000002      -1.90000836E-04
   1.85249996      -1.89975617E-04
   1.85500002      -1.89940387E-04
   1.85749996      -1.89895174E-04
   1.86000001      -1.89845334E-04
   1.86249995      -1.89800805E-04
   1.86500001      -1.89772851E-04
   1.86749995      -1.89760976E-04
   1.87000000      -1.89756931E-04
   1.87249994      -1.89746250E-04
   1.87500000      -1.89714337E-04
   1.87750006      -1.89657963E-04
   1.88000000      -1.89586557E-04
   1.88250005      -1.89517217E-04
   1.88499999      -1.89466213E-04
   1.88750005      -1.89435319E-04
   1.88999999      -1.89415034E-04
   1.89250004      -1.89386265E-04
   1.89499998      -1.89336381E-04
   1.89750004      -1.89262879E-04
   1.89999998      -1.89175917E-04
   1.90250003      -1.89092330E-04
   1.90499997      -1.89023471E-04
   1.90750003      -1.88966951E-04
   1.90999997      -1.88913851E-04
   1.91250002      -1.88854028E-04
   1.91499996      -1.88778227E-04
   1.91750002      -1.88689941E-04
   1.91999996      -1.88599966E-04
   1.92250001      -1.88518898E-04
   1.92499995      -1.88449296E-04
   1.92750001      -1.88388047E-04
   1.92999995      -1.88327045E-04
   1.93250000      -1.88261911E-04
   1.93499994      -1.88189020E-04
   1.93750000      -1.88111153E-04
   1.94000006      -1.88032922E-04
   1.94250000      -1.87953454E-04
   1.94500005      -1.87873244E-04
   1.94749999      -1.87794256E-04
   1.95000005      -1.87715865E-04
   1.95249999      -1.87641621E-04
   1.95500004      -1.87571422E-04
   1.95749998      -1.87500700E-04
   1.96000004      -1.87423168E-04
   1.96249998      -1.87334881E-04
   1.96500003      -1.87234778E-04
   1.96749997      -1.87131285E-04
   1.97000003      -1.87033322E-04
   1.97249997      -1.86943536E-04
   1.97500002      -1.86860940E-04
   1.97749996      -1.86775942E-04
   1.98000002      -1.86679463E-04
   1.98249996      -1.86572317E-04
   1.98500001      -1.86462625E-04
   1.98749995      -1.86360994E-04
   1.99000001      -1.86275254E-04
   1.99249995      -1.86200297E-04
   1.99500000      -1.86127480E-04
   1.99749994      -1.86044083E-04
   2.00000000      -1.85945435E-04
   2.00250006      -1.85838522E-04
   2.00500011      -1.85736135E-04
   2.00749993      -1.85648270E-04
   2.00999999      -1.85574885E-04
   2.01250005      -1.85508194E-04
   2.01500010      -1.85432902E-04
   2.01749992      -1.85342637E-04
   2.01999998      -1.85239624E-04
   2.02250004      -1.85133118E-04
   2.02500010      -1.85031226E-04
   2.02749991      -1.84937977E-04
   2.02999997      -1.84847071E-04
   2.03250003      -1.84752207E-04
   2.03500009      -1.84649834E-04
   2.03749990      -1.84544682E-04
   2.03999996      -1.84443663E-04
   2.04250002      -1.84351084E-04
   2.04500008      -1.84263321E-04
   2.04749990      -1.84174220E-04
   2.04999995      -1.84074946E-04
   2.05250001      -1.83966025E-04
   2.05500007      -1.83855474E-04
   2.05749989      -1.83754659E-04
   2.05999994      -1.83670913E-04
   2.06250000      -1.83601602E-04
   2.06500006      -1.83534677E-04
   2.06750011      -1.83458978E-04
   2.06999993      -1.83367360E-04
   2.07249999      -1.83262047E-04
   2.07500005      -1.83157579E-04
   2.07750010      -1.83064389E-04
   2.07999992      -1.82988064E-04
   2.08249998      -1.82923090E-04
   2.08500004      -1.82858712E-04
   2.08750010      -1.82783740E-04
   2.08999991      -1.82694246E-04
   2.09249997      -1.82595395E-04
   2.09500003      -1.82494856E-04
   2.09750009      -1.82399584E-04
   2.09999990      -1.82311996E-04
   2.10249996      -1.82228818E-04
   2.10500002      -1.82148127E-04
   2.10750008      -1.82067277E-04
   2.10999990      -1.81984258E-04
   2.11249995      -1.81899697E-04
   2.11500001      -1.81812604E-04
   2.11750007      -1.81725452E-04
   2.11999989      -1.81638912E-04
   2.12249994      -1.81559255E-04
   2.12500000      -1.81489275E-04
   2.12750006      -1.81428375E-04
   2.13000011      -1.81371593E-04
   2.13249993      -1.81308525E-04
   2.13499999      -1.81233117E-04
   2.13750005      -1.81149138E-04
   2.14000010      -1.81064694E-04