   0.00000000       0.00000000    
   2.49999994E-03   0.00000000    
   4.99999989E-03   0.00000000    
   7.49999983E-03   0.00000000    
   9.99999978E-03   0.00000000    
   1.25000002E-02   0.00000000    
   1.49999997E-02   0.00000000    
   1.75000001E-02   0.00000000    
   1.99999996E-02   0.00000000    
   2.25000009E-02   4.28765347E-24
   2.50000004E-02  -6.89368632E-23
   2.74999999E-02   6.24249035E-22
   2.99999993E-02  -9.20890018E-22
   3.24999988E-02  -6.34446762E-21
   3.50000001E-02   1.64834866E-20
   3.75000015E-02   3.51527753E-20
   3.99999991E-02  -1.16684333E-19
   4.25000004E-02  -1.32637920E-19
   4.50000018E-02   5.61060531E-19
   4.74999994E-02   3.29678856E-19
   5.00000007E-02  -2.28651395E-18
   5.24999984E-02  -4.87781014E-19
   5.49999997E-02   8.88415470E-18
   5.75000010E-02   1.44420151E-18
   5.99999987E-02  -3.17421196E-17
   6.25000000E-02  -1.45141064E-17
   6.49999976E-02   9.21953408E-17
   6.75000027E-02   8.92111644E-17
   7.00000003E-02  -1.88857417E-16
   7.24999979E-02  -3.33021909E-16
   7.50000030E-02   1.96160350E-16
   7.75000006E-02   8.08196910E-16
   7.99999982E-02   1.93842021E-16
   8.25000033E-02  -1.24201775E-15
   8.50000009E-02  -1.14659525E-15
   8.74999985E-02   9.88311478E-16
   9.00000036E-02   2.03484334E-15
   9.25000012E-02  -4.56389541E-18
   9.49999988E-02  -1.89224450E-15
   9.74999964E-02  -1.67634491E-16
  0.100000001       1.93273140E-15
  0.102499999      -9.48522741E-16
  0.104999997      -5.50048415E-15
  0.107500002      -2.10507550E-15
  0.109999999       9.26222735E-15
  0.112499997       1.41400521E-14
  0.115000002       1.41486531E-15
  0.117500000      -1.93373946E-14
  0.119999997      -2.61332026E-14
  0.122500002      -8.38794281E-15
  0.125000000       2.22527075E-14
  0.127499998       4.19300520E-14
  0.129999995       3.22839764E-14
  0.132499993      -5.23416386E-15
  0.135000005      -4.67731593E-14
  0.137500003      -6.35359210E-14
  0.140000001      -4.60842912E-14
  0.142499998      -4.02248874E-15
  0.144999996       5.52603380E-14
  0.147499993       1.22158915E-13
  0.150000006       1.51410812E-13
  0.152500004       7.28630548E-14
  0.155000001      -1.23698198E-13
  0.157499999      -3.28154685E-13
  0.159999996      -3.71503880E-13
  0.162499994      -1.55377040E-13
  0.165000007       2.68789683E-13
  0.167500004       6.94198225E-13
  0.170000002       8.10907873E-13
  0.172499999       3.72325245E-13
  0.174999997      -5.38556667E-13
  0.177499995      -1.39902532E-12
  0.180000007      -1.54253639E-12
  0.182500005      -6.84189684E-13
  0.185000002       8.20414591E-13
  0.187500000       2.20026861E-12
  0.189999998       2.68714543E-12
  0.192499995       1.80275695E-12
  0.194999993      -4.40538312E-13
  0.197500005      -3.31309698E-12
  0.200000003      -5.36571829E-12
  0.202500001      -5.00925126E-12
  0.204999998      -1.53154627E-12
  0.207499996       4.12198097E-12
  0.209999993       9.42169519E-12
  0.212500006       1.13128777E-11
  0.215000004       7.88352196E-12
  0.217500001      -1.94240335E-13
  0.219999999      -9.51273522E-12
  0.222499996      -1.55953271E-11
  0.224999994      -1.55838727E-11
  0.227500007      -1.00884804E-11
  0.230000004      -2.69997935E-12
  0.232500002       2.62568439E-12
  0.234999999       4.39185363E-12
  0.237499997       4.44662189E-12
  0.239999995       6.34664803E-12
  0.242500007       1.26507077E-11
  0.245000005       2.32294808E-11
  0.247500002       3.54361991E-11
  0.250000000       4.53156089E-11
  0.252499998       4.86422638E-11
  0.254999995       4.16028635E-11
  0.257499993       2.19835955E-11
  0.259999990      -8.63265535E-12
  0.262499988      -4.29484261E-11
  0.264999986      -6.90669119E-11
  0.267500013      -7.61837052E-11
  0.270000011      -6.22093210E-11
  0.272500008      -3.68191970E-11
  0.275000006      -1.46247719E-11
  0.277500004      -5.25703287E-13
  0.280000001       2.23782121E-11
  0.282499999       9.05961625E-11
  0.284999996       2.40715364E-10
  0.287499994       4.82430595E-10
  0.289999992       7.81188225E-10
  0.292499989       1.06291120E-09
  0.294999987       1.23988653E-09
  0.297500014       1.24418820E-09
  0.300000012       1.05160503E-09
  0.302500010       6.86100066E-10
  0.305000007       2.05523404E-10
  0.307500005      -3.24564181E-10
  0.310000002      -8.62560190E-10
  0.312500000      -1.42368195E-09
  0.314999998      -2.10822959E-09
  0.317499995      -3.11509218E-09
  0.319999993      -4.72986805E-09
  0.322499990      -7.28693639E-09
  0.324999988      -1.11228831E-08
  0.327499986      -1.65526437E-08
  0.330000013      -2.38964493E-08
  0.332500011      -3.35628094E-08
  0.335000008      -4.61630201E-08
  0.337500006      -6.26178291E-08
  0.340000004      -8.42260093E-08
  0.342500001      -1.12695673E-07
  0.344999999      -1.50168646E-07
  0.347499996      -1.99275604E-07
  0.349999994      -2.63242839E-07
  0.352499992      -3.46046249E-07
  0.354999989      -4.52592047E-07
  0.357499987      -5.88909700E-07
  0.360000014      -7.62361083E-07
  0.362500012      -9.81881840E-07
  0.365000010      -1.25826762E-06
  0.367500007      -1.60449099E-06
  0.370000005      -2.03603304E-06
  0.372500002      -2.57120291E-06
  0.375000000      -3.23144104E-06
  0.377499998      -4.04163711E-06
  0.379999995      -5.03046112E-06
  0.382499993      -6.23073720E-06
  0.384999990      -7.67976326E-06
  0.387499988      -9.41958479E-06
  0.389999986      -1.14971290E-05
  0.392500013      -1.39642270E-05
  0.395000011      -1.68775950E-05
  0.397500008      -2.02986375E-05
  0.400000006      -2.42932510E-05
  0.402500004      -2.89314539E-05
  0.405000001      -3.42867897E-05
  0.407499999      -4.04355342E-05
  0.409999996      -4.74557091E-05
  0.412499994      -5.54261023E-05
  0.414999992      -6.44247702E-05
  0.417499989      -7.45279904E-05
  0.419999987      -8.58086860E-05
  0.422500014      -9.83347782E-05
  0.425000012      -1.12168018E-04
  0.427500010      -1.27361898E-04
  0.430000007      -1.43960802E-04
  0.432500005      -1.61998294E-04
  0.435000002      -1.81495881E-04
  0.437500000      -2.02462150E-04
  0.439999998      -2.24891803E-04
  0.442499995      -2.48765107E-04
  0.444999993      -2.74047954E-04
  0.447499990      -3.00691841E-04
  0.449999988      -3.28634982E-04
  0.452499986      -3.57802463E-04
  0.455000013      -3.88108776E-04
  0.457500011      -4.19457559E-04
  0.460000008      -4.51744010E-04
  0.462500006      -4.84856515E-04
  0.465000004      -5.18678862E-04
  0.467500001      -5.53090824E-04
  0.469999999      -5.87972405E-04
  0.472499996      -6.23203639E-04
  0.474999994      -6.58666948E-04
  0.477499992      -6.94247894E-04
  0.479999989      -7.29835592E-04
  0.482499987      -7.65322766E-04
  0.485000014      -8.00605631E-04
  0.487500012      -8.35583720E-04
  0.490000010      -8.70157033E-04
  0.492500007      -9.04226268E-04
  0.495000005      -9.37687117E-04
  0.497500002      -9.70431196E-04
  0.500000000      -1.00234000E-03
  0.502499998      -1.03328389E-03
  0.504999995      -1.06311578E-03
  0.507499993      -1.09166955E-03
  0.509999990      -1.11875206E-03
  0.512499988      -1.14414492E-03
  0.514999986      -1.16760074E-03
  0.517499983      -1.18884572E-03
  0.519999981      -1.20757206E-03
  0.522499979      -1.22344471E-03
  0.524999976      -1.23609160E-03
  0.527499974      -1.24510971E-03
  0.529999971      -1.25007273E-03
  0.532500029      -1.25053641E-03
  0.535000026      -1.24604465E-03
  0.537500024      -1.23614131E-03
  0.540000021      -1.22037670E-03
  0.542500019      -1.19831599E-03
  0.545000017      -1.16955186E-03
  0.547500014      -1.13371632E-03
  0.550000012      -1.09050167E-03
  0.552500010      -1.03966659E-03
  0.555000007      -9.81047284E-04
  0.557500005      -9.14577511E-04
  0.560000002      -8.40293767E-04
  0.562500000      -7.58346228E-04
  0.564999998      -6.69014058E-04
  0.567499995      -5.72692254E-04
  0.569999993      -4.69903112E-04
  0.572499990      -3.61300365E-04
  0.574999988      -2.47647433E-04
  0.577499986      -1.29818553E-04
  0.579999983      -8.78770243E-06
  0.582499981       1.14389841E-04
  0.584999979       2.38589200E-04
  0.587499976       3.62638297E-04
  0.589999974       4.85340890E-04
  0.592499971       6.05509384E-04
  0.595000029       7.21977442E-04
  0.597500026       8.33635742E-04
  0.600000024       9.39446210E-04
  0.602500021       1.03846064E-03
  0.605000019       1.12983875E-03
  0.607500017       1.21286872E-03
  0.610000014       1.28697604E-03
  0.612500012       1.35173847E-03
  0.615000010       1.40689150E-03
  0.617500007       1.45232468E-03
  0.620000005       1.48807408E-03
  0.622500002       1.51431491E-03
  0.625000000       1.53135217E-03
  0.627499998       1.53960637E-03
  0.629999995       1.53960148E-03
  0.632499993       1.53194892E-03
  0.634999990       1.51732983E-03
  0.637499988       1.49646774E-03
  0.639999986       1.47011387E-03
  0.642499983       1.43902574E-03
  0.644999981       1.40395469E-03
  0.647499979       1.36563031E-03
  0.649999976       1.32474827E-03
  0.652499974       1.28196029E-03
  0.654999971       1.23786891E-03
  0.657500029       1.19301386E-03
  0.660000026       1.14787661E-03
  0.662500024       1.10287161E-03
  0.665000021       1.05835870E-03
  0.667500019       1.01463415E-03
  0.670000017       9.71935049E-04
  0.672500014       9.30446782E-04
  0.675000012       8.90313066E-04
  0.677500010       8.51631630E-04
  0.680000007       8.14468309E-04
  0.682500005       7.78855931E-04
  0.685000002       7.44799268E-04
  0.687500000       7.12289417E-04
  0.689999998       6.81292906E-04
  0.692499995       6.51777664E-04
  0.694999993       6.23692700E-04
  0.697499990       5.96997852E-04
  0.699999988       5.71636250E-04
  0.702499986       5.47557021E-04
  0.704999983       5.24697825E-04
  0.707499981       5.03001327E-04
  0.709999979       4.82409261E-04
  0.712499976       4.62870899E-04
  0.714999974       4.44345409E-04
  0.717499971       4.26781917E-04
  0.720000029       4.10148146E-04
  0.722500026       3.94403818E-04
  0.725000024       3.79512756E-04
  0.727500021       3.65447544E-04
  0.730000019       3.52162606E-04
  0.732500017       3.39634076E-04
  0.735000014       3.27821763E-04
  0.737500012       3.16693593E-04
  0.740000010       3.06211907E-04
  0.742500007       2.96347192E-04
  0.745000005       2.87070550E-04
  0.747500002       2.78348685E-04
  0.750000000       2.70145334E-04
  0.752499998       2.62427551E-04
  0.754999995       2.55171239E-04
  0.757499993       2.48344615E-04
  0.759999990       2.41910093E-04
  0.762499988       2.35836313E-04
  0.764999986       2.30084523E-04
  0.767499983       2.24620730E-04
  0.769999981       2.19413530E-04
  0.772499979       2.14438434E-04
  0.774999976       2.09672260E-04
  0.777499974       2.05103293E-04
  0.779999971       2.00721959E-04
  0.782500029       1.96507041E-04
  0.785000026       1.92448744E-04
  0.787500024       1.88519421E-04
  0.790000021       1.84706732E-04
  0.792500019       1.80999865E-04
  0.795000017       1.77389549E-04
  0.797500014       1.73870765E-04
  0.800000012       1.70447529E-04
  0.802500010       1.67115111E-04
  0.805000007       1.63872362E-04
  0.807500005       1.60726006E-04
  0.810000002       1.57675589E-04
  0.812500000       1.54711786E-04
  0.814999998       1.51833025E-04
  0.817499995       1.49040934E-04
  0.819999993       1.46331105E-04
  0.822499990       1.43710058E-04
  0.824999988       1.41178622E-04
  0.827499986       1.38728079E-04
  0.829999983       1.36357601E-04
  0.832499981       1.34059213E-04
  0.834999979       1.31842506E-04
  0.837499976       1.29710388E-04
  0.839999974       1.27661726E-04
  0.842499971       1.25693710E-04
  0.845000029       1.23788457E-04
  0.847500026       1.21933859E-04
  0.850000024       1.20117969E-04
  0.852500021       1.18329881E-04
  0.855000019       1.16569820E-04
  0.857500017       1.14842034E-04
  0.860000014       1.13146758E-04
  0.862500012       1.11479647E-04
  0.865000010       1.09828376E-04
  0.867500007       1.08188025E-04
  0.870000005       1.06544525E-04
  0.872500002       1.04889448E-04
  0.875000000       1.03215993E-04
  0.877499998       1.01531092E-04
  0.879999995       9.98286414E-05
  0.882499993       9.81181947E-05
  0.884999990       9.64046776E-05
  0.887499988       9.46929576E-05
  0.889999986       9.29804228E-05
  0.892499983       9.12642208E-05
  0.894999981       8.95435369E-05
  0.897499979       8.78176143E-05
  0.899999976       8.60890068E-05
  0.902499974       8.43745947E-05
  0.904999971       8.26854448E-05
  0.907500029       8.10249185E-05
  0.910000026       7.93967338E-05
  0.912500024       7.77938913E-05
  0.915000021       7.62142881E-05
  0.917500019       7.46597143E-05
  0.920000017       7.31385371E-05
  0.922500014       7.16539798E-05
  0.925000012       7.02112011E-05
  0.927500010       6.88086220E-05
  0.930000007       6.74401817E-05
  0.932500005       6.61014201E-05
  0.935000002       6.47861089E-05
  0.937500000       6.34971075E-05
  0.939999998       6.22401640E-05
  0.942499995       6.10169227E-05
  0.944999993       5.98261067E-05
  0.947499990       5.86606984E-05
  0.949999988       5.75170379E-05
  0.952499986       5.63899666E-05
  0.954999983       5.52845631E-05
  0.957499981       5.42125599E-05
  0.959999979       5.31743353E-05
  0.962499976       5.21773582E-05
  0.964999974       5.12165498E-05
  0.967499971       5.02896619E-05
  0.970000029       4.93955813E-05
  0.972500026       4.85364690E-05
  0.975000024       4.77222711E-05
  0.977500021       4.69543229E-05
  0.980000019       4.62326352E-05
  0.982500017       4.55514455E-05
  0.985000014       4.49040272E-05
  0.987500012       4.42889686E-05
  0.990000010       4.37099297E-05
  0.992500007       4.31687731E-05
  0.995000005       4.26695369E-05
  0.997500002       4.22057929E-05
   1.00000000       4.17738083E-05
   1.00250006       4.13663365E-05
   1.00500000       4.09835229E-05
   1.00750005       4.06220024E-05
   1.00999999       4.02859660E-05
   1.01250005       3.99769779E-05
   1.01499999       3.96905598E-05
   1.01750004       3.94301424E-05
   1.01999998       3.91881113E-05
   1.02250004       3.89656561E-05
   1.02499998       3.87640503E-05
   1.02750003       3.85891908E-05
   1.02999997       3.84444502E-05
   1.03250003       3.83300467E-05
   1.03499997       3.82412763E-05
   1.03750002       3.81748432E-05
   1.03999996       3.81300815E-05
   1.04250002       3.81054961E-05
   1.04499996       3.81033315E-05
   1.04750001       3.81231366E-05
   1.04999995       3.81598220E-05
   1.05250001       3.82092185E-05
   1.05499995       3.82663820E-05
   1.05750000       3.83343831E-05
   1.05999994       3.84106752E-05
   1.06250000       3.84985506E-05
   1.06500006       3.85933745E-05
   1.06750000       3.86850625E-05
   1.07000005       3.87650944E-05
   1.07249999       3.88317458E-05
   1.07500005       3.88895132E-05
   1.07749999       3.89507841E-05
   1.08000004       3.90232672E-05
   1.08249998       3.91091271E-05
   1.08500004       3.92010406E-05
   1.08749998       3.92917536E-05
   1.09000003       3.93745468E-05
   1.09249997       3.94483031E-05
   1.09500003       3.95228781E-05
   1.09749997       3.96028336E-05
   1.10000002       3.96964642E-05
   1.10249996       3.98019765E-05
   1.10500002       3.99097262E-05
   1.10749996       4.00150893E-05
   1.11000001       4.01131292E-05
   1.11249995       4.02054866E-05
   1.11500001       4.02962069E-05
   1.11749995       4.03884878E-05
   1.12000000       4.04829407E-05
   1.12249994       4.05783649E-05
   1.12500000       4.06681065E-05
   1.12750006       4.07478401E-05
   1.13000000       4.08156156E-05
   1.13250005       4.08747219E-05
   1.13499999       4.09262066E-05
   1.13750005       4.09753011E-05
   1.13999999       4.10216308E-05
   1.14250004       4.10685570E-05
   1.14499998       4.11147375E-05
   1.14750004       4.11619658E-05
   1.14999998       4.12055670E-05
   1.15250003       4.12427034E-05
   1.15499997       4.12718473E-05
   1.15750003       4.12934423E-05
   1.15999997       4.13152993E-05
   1.16250002       4.13470952E-05
   1.16499996       4.13963353E-05
   1.16750002       4.14595524E-05
   1.16999996       4.15313261E-05
   1.17250001       4.15992545E-05
   1.17499995       4.16580988E-05
   1.17750001       4.17109659E-05
   1.17999995       4.17639458E-05
   1.18250000       4.18262680E-05
   1.18499994       4.19042044E-05
   1.18750000       4.19958160E-05
   1.19000006       4.20954966E-05
   1.19250000       4.21960794E-05
   1.19500005       4.22932608E-05
   1.19749999       4.23859528E-05
   1.20000005       4.24793252E-05
   1.20249999       4.25754952E-05
   1.20500004       4.26730876E-05
   1.20749998       4.27686573E-05
   1.21000004       4.28610911E-05
   1.21249998       4.29489301E-05
   1.21500003       4.30365435E-05
   1.21749997       4.31281951E-05
   1.22000003       4.32282905E-05
   1.22249997       4.33344358E-05
   1.22500002       4.34451758E-05
   1.22749996       4.35562579E-05
   1.23000002       4.36686787E-05
   1.23249996       4.37830822E-05
   1.23500001       4.39002506E-05
   1.23749995       4.40199219E-05
   1.24000001       4.41407537E-05
   1.24249995       4.42626661E-05
   1.24500000       4.43903336E-05
   1.24749994       4.45274891E-05
   1.25000000       4.46792546E-05
   1.25250006       4.48449246E-05
   1.25500000       4.50173102E-05
   1.25750005       4.51867490E-05
   1.25999999       4.53456159E-05
   1.26250005       4.54929323E-05
   1.26499999       4.56371527E-05
   1.26750004       4.57877613E-05
   1.26999998       4.59503608E-05
   1.27250004       4.61279087E-05
   1.27499998       4.63125143E-05
   1.27750003       4.64963377E-05
   1.27999997       4.66734709E-05
   1.28250003       4.68445542E-05
   1.28499997       4.70156374E-05
   1.28750002       4.71919157E-05
   1.28999996       4.73783875E-05
   1.29250002       4.75735687E-05
   1.29499996       4.77749527E-05
   1.29750001       4.79781665E-05
   1.29999995       4.81797724E-05
   1.30250001       4.83790645E-05
   1.30499995       4.85760393E-05
   1.30750000       4.87715952E-05
   1.30999994       4.89669255E-05
   1.31250000       4.91644205E-05
   1.31500006       4.93655789E-05
   1.31750000       4.95676359E-05
   1.32000005       4.97652072E-05
   1.32249999       4.99522830E-05
   1.32500005       5.01231407E-05
   1.32749999       5.02793519E-05
   1.33000004       5.04291747E-05
   1.33249998       5.05829921E-05
   1.33500004       5.07467521E-05
   1.33749998       5.09186611E-05
   1.34000003       5.10914215E-05
   1.34249997       5.12546940E-05
   1.34500003       5.14049643E-05
   1.34749997       5.15440297E-05
   1.35000002       5.16813379E-05
   1.35249996       5.18243978E-05
   1.35500002       5.19768000E-05
   1.35749996       5.21374568E-05
   1.36000001       5.22972914E-05
   1.36249995       5.24490206E-05
   1.36500001       5.25893156E-05
   1.36749995       5.27205339E-05
   1.37000000       5.28452474E-05
   1.37249994       5.29655917E-05
   1.37500000       5.30805592E-05
   1.37750006       5.31872283E-05
   1.38000000       5.32813028E-05
   1.38250005       5.33591665E-05
   1.38499999       5.34204773E-05
   1.38750005       5.34633728E-05
   1.38999999       5.34870233E-05
   1.39250004       5.34914689E-05
   1.39499998       5.34821265E-05
   1.39750004       5.34646788E-05
   1.39999998       5.34452120E-05
   1.40250003       5.34270184E-05
   1.40499997       5.34065803E-05
   1.40750003       5.33776984E-05
   1.40999997       5.33369384E-05
   1.41250002       5.32870945E-05
   1.41499996       5.32394224E-05
   1.41750002       5.32065060E-05
   1.41999996       5.31953337E-05
   1.42250001       5.32071062E-05
   1.42499995       5.32305676E-05
   1.42750001       5.32576159E-05
   1.42999995       5.32851154E-05
   1.43250000       5.33178463E-05
   1.43499994       5.33676503E-05
   1.43750000       5.34419632E-05
   1.44000006       5.35349973E-05
   1.44250000       5.36335210E-05
   1.44500005       5.37200140E-05
   1.44749999       5.37800188E-05
   1.45000005       5.38152854E-05
   1.45249999       5.38343047E-05
   1.45500004       5.38473068E-05
   1.45749998       5.38606073E-05
   1.46000004       5.38692402E-05
   1.46249998       5.38628519E-05
   1.46500003       5.38311288E-05
   1.46749997       5.37672022E-05
   1.47000003       5.36741354E-05
   1.47249997       5.35582330E-05
   1.47500002       5.34272804E-05
   1.47749996       5.32864251E-05
   1.48000002       5.31442602E-05
   1.48249996       5.30062425E-05
   1.48500001       5.28783166E-05
   1.48749995       5.27642114E-05
   1.49000001       5.26616132E-05
   1.49249995       5.25603245E-05
   1.49500000       5.24544776E-05
   1.49749994       5.23444069E-05
   1.50000000       5.22377377E-05
   1.50250006       5.21485526E-05
   1.50500000       5.20848516E-05
   1.50750005       5.20444992E-05
   1.50999999       5.20153189E-05
   1.51250005       5.19816203E-05
   1.51499999       5.19340538E-05
   1.51750004       5.18764064E-05
   1.51999998       5.18180095E-05
   1.52250004       5.17682056E-05
   1.52499998       5.17257613E-05
   1.52750003       5.16785367E-05
   1.52999997       5.16114706E-05
   1.53250003       5.15163447E-05
   1.53499997       5.14002604E-05
   1.53750002       5.12805491E-05
   1.53999996       5.11763465E-05
   1.54250002       5.10931786E-05
   1.54499996       5.10255522E-05
   1.54750001       5.09589336E-05
   1.54999995       5.08805133E-05
   1.55250001       5.07931218E-05
   1.55499995       5.07110744E-05
   1.55750000       5.06544311E-05
   1.55999994       5.06351498E-05
   1.56250000       5.06502874E-05
   1.56500006       5.06907090E-05
   1.56750000       5.07445511E-05
   1.57000005       5.08069825E-05
   1.57249999       5.08784178E-05
   1.57500005       5.09651727E-05
   1.57749999       5.10664649E-05
   1.58000004       5.11776925E-05
   1.58249998       5.12919069E-05
   1.58500004       5.14030617E-05
   1.58749998       5.15134670E-05
   1.59000003       5.16220789E-05
   1.59249997       5.17271073E-05
   1.59500003       5.18191300E-05
   1.59749997       5.18843990E-05
   1.60000002       5.19132082E-05
   1.60249996       5.19077512E-05
   1.60500002       5.18811867E-05
   1.60749996       5.18493543E-05
   1.61000001       5.18240231E-05
   1.61249995       5.18000743E-05
   1.61500001       5.17637200E-05
   1.61749995       5.17000190E-05
   1.62000000       5.16065011E-05
   1.62249994       5.14965432E-05
   1.62500000       5.13915948E-05
   1.62750006       5.13072300E-05
   1.63000000       5.12469232E-05
   1.63250005       5.12010811E-05
   1.63499999       5.11574399E-05
   1.63750005       5.11141770E-05
   1.63999999       5.10764403E-05
   1.64250004       5.10581704E-05
   1.64499998       5.10656428E-05
   1.64750004       5.10904138E-05
   1.64999998       5.11221369E-05
   1.65250003       5.11424587E-05
   1.65499997       5.11485887E-05
   1.65750003       5.11457110E-05
   1.65999997       5.11455582E-05
   1.66250002       5.11550134E-05
   1.66499996       5.11699218E-05
   1.66750002       5.11728722E-05
   1.66999996       5.11513499E-05
   1.67250001       5.10982209E-05
   1.67499995       5.10172213E-05
   1.67750001       5.09214224E-05
   1.67999995       5.08166995E-05
   1.68250000       5.07064797E-05
   1.68499994       5.05863572E-05
   1.68750000       5.04562995E-05
   1.69000006       5.03220544E-05
   1.69250000       5.01942013E-05
   1.69500005       5.00807328E-05
   1.69749999       4.99817215E-05
   1.70000005       4.98870832E-05
   1.70249999       4.97866895E-05
   1.70500004       4.96754292E-05
   1.70749998       4.95653949E-05
   1.71000004       4.94746419E-05
   1.71249998       4.94175511E-05
   1.71500003       4.93940497E-05
   1.71749997       4.93916959E-05
   1.72000003       4.93873631E-05
   1.72249997       4.93666630E-05
   1.72500002       4.93293010E-05
   1.72749996       4.92873987E-05
   1.73000002       4.92544277E-05
   1.73249996       4.92342879E-05
   1.73500001       4.92194740E-05
   1.73749995       4.91959545E-05
   1.74000001       4.91547435E-05
   1.74249995       4.91010178E-05
   1.74500000       4.90463572E-05
   1.74749994       4.90034254E-05
   1.75000000       4.89739868E-05
   1.75250006       4.89513404E-05
   1.75500000       4.89221275E-05
   1.75750005       4.88824298E-05
   1.75999999       4.88378355E-05
   1.76250005       4.88055193E-05
   1.76499999       4.88002879E-05
   1.76750004       4.88274709E-05
   1.76999998       4.88785263E-05
   1.77250004       4.89378945E-05
   1.77499998       4.89947561E-05
   1.77750003       4.90483581E-05
   1.77999997       4.91043611E-05
   1.78250003       4.91702303E-05
   1.78499997       4.92454019E-05
   1.78750002       4.93212683E-05
   1.78999996       4.93869302E-05
   1.79250002       4.94341002E-05
   1.79499996       4.94627966E-05
   1.79750001       4.94781743E-05
   1.79999995       4.94843007E-05
   1.80250001       4.94746055E-05
   1.80499995       4.94396700E-05
   1.80750000       4.93712432E-05
   1.80999994       4.92707914E-05
   1.81250000       4.91484279E-05
   1.81500006       4.90206694E-05
   1.81750000       4.88989426E-05
   1.82000005       4.87783727E-05
   1.82249999       4.86477365E-05
   1.82500005       4.84989796E-05
   1.82749999       4.83332769E-05
   1.83000004       4.81665265E-05
   1.83249998       4.80181989E-05
   1.83500004       4.79010523E-05
   1.83749998       4.78126531E-05
   1.84000003       4.77389913E-05
   1.84249997       4.76660207E-05
   1.84500003       4.75907764E-05
   1.84749997       4.75233574E-05
   1.85000002       4.74804074E-05
   1.85249996       4.74699045E-05
   1.85500002       4.74845729E-05
   1.85749996       4.75073830E-05
   1.86000001       4.75216730E-05
   1.86249995       4.75216148E-05
   1.86500001       4.75164234E-05
   1.86749995       4.75233392E-05
   1.87000000       4.75532070E-05
   1.87249994       4.76031055E-05
   1.87500000       4.76558780E-05
   1.87750006       4.76936148E-05
   1.88000000       4.77088397E-05
   1.88250005       4.77056456E-05
   1.88499999       4.76986788E-05
   1.88750005       4.77000431E-05
   1.88999999       4.77138856E-05
   1.89250004       4.77338544E-05
   1.89499998       4.77514877E-05
   1.89750004       4.77614085E-05
   1.89999998       4.77690483E-05
   1.90250003       4.77808171E-05
   1.90499997       4.78005277E-05
   1.90750003       4.78245311E-05
   1.90999997       4.78453621E-05
   1.91250002       4.78601214E-05
   1.91499996       4.78734764E-05
   1.91750002       4.78999500E-05
   1.91999996       4.79485207E-05
   1.92250001       4.80181807E-05
   1.92499995       4.80965100E-05
   1.92750001       4.81670722E-05
   1.92999995       4.82199757E-05
   1.93250000       4.82599717E-05
   1.93499994       4.82988289E-05
   1.93750000       4.83509866E-05
   1.94000006       4.84179764E-05
   1.94250000       4.84851917E-05
   1.94500005       4.85369019E-05
   1.94749999       4.85627752E-05
   1.95000005       4.85678211E-05
   1.95249999       4.85691853E-05
   1.95500004       4.85842975E-05
   1.95749998       4.86188401E-05
   1.96000004       4.86608151E-05
   1.96249998       4.86906501E-05
   1.96500003       4.86958779E-05
   1.96749997       4.86806566E-05
   1.97000003       4.86635799E-05
   1.97249997       4.86643439E-05
   1.97500002       4.86927020E-05
   1.97749996       4.87434590E-05
   1.98000002       4.88008482E-05
   1.98249996       4.88523729E-05
   1.98500001       4.88941769E-05
   1.98749995       4.89357808E-05
   1.99000001       4.89868762E-05
   1.99249995       4.90514758E-05
   1.99500000       4.91241444E-05
   1.99749994       4.91938081E-05
   2.00000000       4.92541258E-05
   2.00250006       4.93066618E-05
   2.00500011       4.93583684E-05
   2.00749993       4.94157357E-05
   2.00999999       4.94752931E-05
   2.01250005       4.95271524E-05
   2.01500010       4.95595814E-05
   2.01749992       4.95715212E-05
   2.01999998       4.95728673E-05
   2.02250004       4.95807872E-05
   2.02500010       4.96064567E-05
   2.02749991       4.96482462E-05
   2.02999997       4.96918474E-05
   2.03250003       4.97206711E-05
   2.03500009       4.97285000E-05
   2.03749990       4.97248184E-05
   2.03999996       4.97300134E-05
   2.04250002       4.97633191E-05
   2.04500008       4.98266127E-05
   2.04749990       4.99067355E-05
   2.04999995       4.99819835E-05
   2.05250001       5.00381211E-05
   2.05500007       5.00757815E-05
   2.05749989       5.01095201E-05
   2.05999994       5.01553077E-05
   2.06250000       5.02199437E-05
   2.06500006       5.02971161E-05
   2.06750011       5.03727388E-05
   2.06999993       5.04351156E-05
   2.07249999       5.04825657E-05
   2.07500005       5.05223215E-05
   2.07750010       5.05618082E-05
   2.07999992       5.06041033E-05
   2.08249998       5.06453725E-05
   2.08500004       5.06801007E-05
   2.08750010       5.07068144E-05
   2.08999991       5.07296645E-05
   2.09249997       5.07562836E-05
   2.09500003       5.07916448E-05
   2.09750009       5.08312114E-05
   2.09999990       5.08685189E-05
   2.10249996       5.08968369E-05
   2.10500002       5.09201709E-05
   2.10750008       5.09496713E-05
   2.10999990       5.09970087E-05
   2.11249995       5.10643331E-05
   2.11500001       5.11408543E-05
   2.11750007       5.12093757E-05
   2.11999989       5.12571969E-05
   2.12249994       5.12855768E-05
   2.12500000       5.13100676E-05
   2.12750006       5.13507002E-05
   2.13000011       5.14173698E-05
   2.13249993       5.15015490E-05
   2.13499999       5.15808315E-05
   2.13750005       5.16337022E-05
   2.14000010       5.16538930E-05