   0.00000000       0.00000000    
   2.49999994E-03   0.00000000    
   4.99999989E-03   0.00000000    
   7.49999983E-03   0.00000000    
   9.99999978E-03   0.00000000    
   1.25000002E-02  -1.07659714E-12
   1.49999997E-02   8.01742180E-12
   1.75000001E-02   9.15373680E-12
   1.99999996E-02  -5.92048008E-11
   2.25000009E-02  -6.86500301E-11
   2.50000004E-02   2.01529488E-10
   2.74999999E-02   3.00950431E-10
   2.99999993E-02  -4.14403012E-10
   3.24999988E-02  -8.55702009E-10
   3.50000001E-02   5.82725979E-10
   3.75000015E-02   1.89815541E-09
   3.99999991E-02  -4.73902140E-10
   4.25000004E-02  -3.82573795E-09
   4.50000018E-02  -9.45150957E-10
   4.74999994E-02   6.61472344E-09
   5.00000007E-02   6.04426331E-09
   5.24999984E-02  -7.50345919E-09
   5.49999997E-02  -1.58566529E-08
   5.75000010E-02   9.06495490E-10
   5.99999987E-02   2.55210715E-08
   6.25000000E-02   1.53393866E-08
   6.49999976E-02  -2.65012332E-08
   6.75000027E-02  -3.53609408E-08
   7.00000003E-02   1.44421559E-08
   7.24999979E-02   4.97709536E-08
   7.50000030E-02   9.29111632E-09
   7.75000006E-02  -4.96395494E-08
   7.99999982E-02  -3.94313204E-08
   8.25000033E-02   2.53066670E-08
   8.50000009E-02   6.05785715E-08
   8.74999985E-02   2.29088180E-08
   9.00000036E-02  -5.19656957E-08
   9.25000012E-02  -7.48774838E-08
   9.49999988E-02   5.50941337E-09
   9.74999964E-02   9.95118796E-08
  0.100000001       6.54401404E-08
  0.102499999      -6.69664004E-08
  0.104999997      -1.18845080E-07
  0.107500002      -2.52910244E-08
  0.109999999       9.25776575E-08
  0.112499997       1.03299662E-07
  0.115000002      -1.05510018E-08
  0.117500000      -1.30925528E-07
  0.119999997      -8.22728126E-08
  0.122500002       1.21049482E-07
  0.125000000       2.10523993E-07
  0.127499998       6.55655015E-08
  0.129999995      -5.61091831E-08
  0.132499993       5.64097817E-08
  0.135000005       2.49410220E-07
  0.137500003       3.35743721E-07
  0.140000001       3.55849636E-07
  0.142499998       3.88459767E-07
  0.144999996       4.81804989E-07
  0.147499993       7.38066205E-07
  0.150000006       1.15238788E-06
  0.152500004       1.56281715E-06
  0.155000001       1.94833024E-06
  0.157499999       2.47383537E-06
  0.159999996       3.23600307E-06
  0.162499994       4.29380816E-06
  0.165000007       5.74312526E-06
  0.167500004       7.50940353E-06
  0.170000002       9.48209345E-06
  0.172499999       1.19501619E-05
  0.174999997       1.53506189E-05
  0.177499995       1.97019599E-05
  0.180000007       2.48742635E-05
  0.182500005       3.11016738E-05
  0.185000002       3.87614091E-05
  0.187500000       4.81357056E-05
  0.189999998       5.96160062E-05
  0.192499995       7.35689391E-05
  0.194999993       9.01028980E-05
  0.197500005       1.09527638E-04
  0.200000003       1.32640038E-04
  0.202500001       1.60144715E-04
  0.204999998       1.92413630E-04
  0.207499996       2.29959740E-04
  0.209999993       2.73448677E-04
  0.212500006       3.23425920E-04
  0.215000004       3.80641926E-04
  0.217500001       4.46145743E-04
  0.219999999       5.20669855E-04
  0.222499996       6.04622299E-04
  0.224999994       6.98706717E-04
  0.227500007       8.03765084E-04
  0.230000004       9.20331106E-04
  0.232500002       1.04898575E-03
  0.234999999       1.19051430E-03
  0.237499997       1.34532107E-03
  0.239999995       1.51344936E-03
  0.242500007       1.69514189E-03
  0.245000005       1.89060171E-03
  0.247500002       2.09963322E-03
  0.250000000       2.32209661E-03
  0.252499998       2.55795382E-03
  0.254999995       2.80660018E-03
  0.257499993       3.06705385E-03
  0.259999990       3.33867152E-03
  0.262499988       3.62083386E-03
  0.264999986       3.91244376E-03
  0.267500013       4.21233010E-03
  0.270000011       4.51941788E-03
  0.272500008       4.83228918E-03
  0.275000006       5.14948554E-03
  0.277500004       5.47004584E-03
  0.280000001       5.79294004E-03
  0.282499999       6.11658208E-03
  0.284999996       6.43948046E-03
  0.287499994       6.76058745E-03
  0.289999992       7.07881292E-03
  0.292499989       7.39305513E-03
  0.294999987       7.70256342E-03
  0.297500014       8.00653175E-03
  0.300000012       8.30383785E-03
  0.302500010       8.59361794E-03
  0.305000007       8.87544826E-03
  0.307500005       9.14879236E-03
  0.310000002       9.41297226E-03
  0.312500000       9.66750924E-03
  0.314999998       9.91187803E-03
  0.317499995       1.01453559E-02
  0.319999993       1.03674559E-02
  0.322499990       1.05779618E-02
  0.324999988       1.07763708E-02
  0.327499986       1.09618232E-02
  0.330000013       1.11335628E-02
  0.332500011       1.12910308E-02
  0.335000008       1.14336694E-02
  0.337500006       1.15609188E-02
  0.340000004       1.16721950E-02
  0.342500001       1.17667457E-02
  0.344999999       1.18437698E-02
  0.347499996       1.19027412E-02
  0.349999994       1.19434027E-02
  0.352499992       1.19654797E-02
  0.354999989       1.19686285E-02
  0.357499987       1.19526666E-02
  0.360000014       1.19176516E-02
  0.362500012       1.18637942E-02
  0.365000010       1.17915012E-02
  0.367500007       1.17014293E-02
  0.370000005       1.15943188E-02
  0.372500002       1.14709018E-02
  0.375000000       1.13321776E-02
  0.377499998       1.11794975E-02
  0.379999995       1.10142445E-02
  0.382499993       1.08377840E-02
  0.384999990       1.06517207E-02
  0.387499988       1.04577355E-02
  0.389999986       1.02573102E-02
  0.392500013       1.00520216E-02
  0.395000011       9.84372105E-03
  0.397500008       9.63409152E-03
  0.400000006       9.42452531E-03
  0.402500004       9.21649858E-03
  0.405000001       9.01148934E-03
  0.407499999       8.81066173E-03
  0.409999996       8.61511007E-03
  0.412499994       8.42599198E-03
  0.414999992       8.24411586E-03
  0.417499989       8.06996785E-03
  0.419999987       7.90418498E-03
  0.422500014       7.74738146E-03
  0.425000012       7.59974634E-03
  0.427500010       7.46136112E-03
  0.430000007       7.33237481E-03
  0.432500005       7.21260998E-03
  0.435000002       7.10172765E-03
  0.437500000       6.99973200E-03
  0.439999998       6.90655457E-03
  0.442499995       6.82160165E-03
  0.444999993       6.74430327E-03
  0.447499990       6.67440845E-03
  0.449999988       6.61148690E-03
  0.452499986       6.55499799E-03
  0.455000013       6.50469633E-03
  0.457500011       6.46022661E-03
  0.460000008       6.42086426E-03
  0.462500006       6.38614269E-03
  0.465000004       6.35597063E-03
  0.467500001       6.33002399E-03
  0.469999999       6.30783988E-03
  0.472499996       6.28921390E-03
  0.474999994       6.27385220E-03
  0.477499992       6.26124721E-03
  0.479999989       6.25124713E-03
  0.482499987       6.24395814E-03
  0.485000014       6.23913994E-03
  0.487500012       6.23641629E-03
  0.490000010       6.23565819E-03
  0.492500007       6.23670220E-03
  0.495000005       6.23932946E-03
  0.497500002       6.24357210E-03
  0.500000000       6.24939520E-03
  0.502499998       6.25642342E-03
  0.504999995       6.26447052E-03
  0.507499993       6.27366593E-03
  0.509999990       6.28386904E-03
  0.512499988       6.29473245E-03
  0.514999986       6.30619284E-03
  0.517499983       6.31823717E-03
  0.519999981       6.33063912E-03
  0.522499979       6.34328136E-03
  0.524999976       6.35614665E-03
  0.527499974       6.36900309E-03
  0.529999971       6.38161926E-03
  0.532500029       6.39399793E-03
  0.535000026       6.40607672E-03
  0.537500024       6.41768426E-03
  0.540000021       6.42876793E-03
  0.542500019       6.43920805E-03
  0.545000017       6.44875411E-03
  0.547500014       6.45737909E-03
  0.550000012       6.46516588E-03
  0.552500010       6.47198316E-03
  0.555000007       6.47775317E-03
  0.557500005       6.48253923E-03
  0.560000002       6.48611737E-03
  0.562500000       6.48826966E-03
  0.564999998       6.48931367E-03
  0.567499995       6.48947712E-03
  0.569999993       6.48841029E-03
  0.572499990       6.48594741E-03
  0.574999988       6.48235204E-03
  0.577499986       6.47763070E-03
  0.579999983       6.47171633E-03
  0.582499981       6.46494515E-03
  0.584999979       6.45740004E-03
  0.587499976       6.44869264E-03
  0.589999974       6.43889653E-03
  0.592499971       6.42844103E-03
  0.595000029       6.41726470E-03
  0.597500026       6.40532468E-03
  0.600000024       6.39305683E-03
  0.602500021       6.38043787E-03
  0.605000019       6.36701519E-03
  0.607500017       6.35309843E-03
  0.610000014       6.33927481E-03
  0.612500012       6.32530777E-03
  0.615000010       6.31100358E-03
  0.617500007       6.29684050E-03
  0.620000005       6.28282782E-03
  0.622500002       6.26856275E-03
  0.625000000       6.25450443E-03
  0.627499998       6.24122843E-03
  0.629999995       6.22827001E-03
  0.632499993       6.21532742E-03
  0.634999990       6.20299764E-03
  0.637499988       6.19142503E-03
  0.639999986       6.18027104E-03
  0.642499983       6.16990915E-03
  0.644999981       6.16067136E-03
  0.647499979       6.15201378E-03
  0.649999976       6.14388147E-03
  0.652499974       6.13701669E-03
  0.654999971       6.13135891E-03
  0.657500029       6.12638239E-03
  0.660000026       6.12247689E-03
  0.662500024       6.11994136E-03
  0.665000021       6.11813134E-03
  0.667500019       6.11700770E-03
  0.670000017       6.11731177E-03
  0.672500014       6.11881074E-03
  0.675000012       6.12081448E-03
  0.677500010       6.12367038E-03
  0.680000007       6.12764899E-03
  0.682500005       6.13205973E-03
  0.685000002       6.13679318E-03
  0.687500000       6.14244025E-03
  0.689999998       6.14864519E-03
  0.692499995       6.15472114E-03
  0.694999993       6.16103364E-03
  0.697499990       6.16780948E-03
  0.699999988       6.17437018E-03
  0.702499986       6.18064404E-03
  0.704999983       6.18714141E-03
  0.707499981       6.19342411E-03
  0.709999979       6.19890681E-03
  0.712499976       6.20411150E-03
  0.714999974       6.20934507E-03
  0.717499971       6.21398538E-03
  0.720000029       6.21797750E-03
  0.722500026       6.22181594E-03
  0.725000024       6.22518873E-03
  0.727500021       6.22773450E-03
  0.730000019       6.23005116E-03
  0.732500017       6.23239623E-03
  0.735000014       6.23417599E-03
  0.737500012       6.23542070E-03
  0.740000010       6.23670826E-03
  0.742500007       6.23784121E-03
  0.745000005       6.23851269E-03
  0.747500002       6.23921957E-03
  0.750000000       6.24017091E-03
  0.752499998       6.24087453E-03
  0.754999995       6.24136813E-03
  0.757499993       6.24212064E-03
  0.759999990       6.24295417E-03
  0.762499988       6.24360843E-03
  0.764999986       6.24445453E-03
  0.767499983       6.24559307E-03
  0.769999981       6.24659751E-03
  0.772499979       6.24752371E-03
  0.774999976       6.24873629E-03
  0.777499974       6.25000568E-03
  0.779999971       6.25105062E-03
  0.782500029       6.25216635E-03
  0.785000026       6.25346834E-03
  0.787500024       6.25461852E-03
  0.790000021       6.25561224E-03
  0.792500019       6.25670701E-03
  0.795000017       6.25773007E-03
  0.797500014       6.25846907E-03
  0.800000012       6.25916338E-03
  0.802500010       6.25993358E-03
  0.805000007       6.26049470E-03
  0.807500005       6.26076432E-03
  0.810000002       6.26097433E-03
  0.812500000       6.26118015E-03
  0.814999998       6.26125745E-03
  0.817499995       6.26119040E-03
  0.819999993       6.26097573E-03
  0.822499990       6.26056874E-03
  0.824999988       6.26005745E-03
  0.827499986       6.25958666E-03
  0.829999983       6.25912473E-03
  0.832499981       6.25853240E-03
  0.834999979       6.25775987E-03
  0.837499976       6.25688955E-03
  0.839999974       6.25604531E-03
  0.842499971       6.25527184E-03
  0.845000029       6.25451142E-03
  0.847500026       6.25372026E-03
  0.850000024       6.25289185E-03
  0.852500021       6.25199080E-03
  0.855000019       6.25106832E-03
  0.857500017       6.25030277E-03
  0.860000014       6.24970766E-03
  0.862500012       6.24906365E-03
  0.865000010       6.24829764E-03
  0.867500007       6.24755630E-03
  0.870000005       6.24690298E-03
  0.872500002       6.24634279E-03
  0.875000000       6.24596374E-03
  0.877499998       6.24567969E-03
  0.879999995       6.24524569E-03
  0.882499993       6.24472462E-03
  0.884999990       6.24438003E-03
  0.887499988       6.24418538E-03
  0.889999986       6.24400517E-03
  0.892499983       6.24393020E-03
  0.894999981       6.24394137E-03
  0.897499979       6.24383893E-03
  0.899999976       6.24373462E-03
  0.902499974       6.24388317E-03
  0.904999971       6.24410948E-03
  0.907500029       6.24418026E-03
  0.910000026       6.24429761E-03
  0.912500024       6.24460122E-03
  0.915000021       6.24488620E-03
  0.917500019       6.24515768E-03
  0.920000017       6.24560099E-03
  0.922500014       6.24605361E-03
  0.925000012       6.24633254E-03
  0.927500010       6.24665990E-03
  0.930000007       6.24712231E-03
  0.932500005       6.24749903E-03
  0.935000002       6.24788227E-03
  0.937500000       6.24848064E-03
  0.939999998       6.24902500E-03
  0.942499995       6.24931930E-03
  0.944999993       6.24969369E-03
  0.947499990       6.25023758E-03
  0.949999988       6.25061197E-03
  0.952499986       6.25090068E-03
  0.954999983       6.25140732E-03
  0.957499981       6.25187345E-03
  0.959999979       6.25207601E-03
  0.962499976       6.25239220E-03
  0.964999974       6.25291793E-03
  0.967499971       6.25323178E-03
  0.970000029       6.25337660E-03
  0.972500026       6.25369232E-03
  0.975000024       6.25397079E-03
  0.977500021       6.25403598E-03
  0.980000019       6.25427486E-03
  0.982500017       6.25470281E-03
  0.985000014       6.25482667E-03
  0.987500012       6.25475030E-03
  0.990000010       6.25493191E-03
  0.992500007       6.25517312E-03
  0.995000005       6.25519082E-03
  0.997500002       6.25528209E-03
   1.00000000       6.25548512E-03
   1.00250006       6.25543017E-03
   1.00500000       6.25533424E-03
   1.00750005       6.25560619E-03
   1.00999999       6.25587674E-03
   1.01250005       6.25580642E-03
   1.01499999       6.25582179E-03
   1.01750004       6.25608396E-03
   1.01999998       6.25616498E-03
   1.02250004       6.25612680E-03
   1.02499998       6.25637406E-03
   1.02750003       6.25668233E-03
   1.02999997       6.25674706E-03
   1.03250003       6.25687419E-03
   1.03499997       6.25718245E-03
   1.03750002       6.25733566E-03
   1.03999996       6.25739107E-03
   1.04250002       6.25765510E-03
   1.04499996       6.25793589E-03
   1.04750001       6.25802157E-03
   1.04999995       6.25816593E-03
   1.05250001       6.25841366E-03
   1.05499995       6.25850027E-03
   1.05750000       6.25855848E-03
   1.05999994       6.25882484E-03
   1.06250000       6.25901250E-03
   1.06500006       6.25892635E-03
   1.06750000       6.25891332E-03
   1.07000005       6.25910982E-03
   1.07249999       6.25921832E-03
   1.07500005       6.25922484E-03
   1.07749999       6.25934498E-03
   1.08000004       6.25946978E-03
   1.08249998       6.25945395E-03
   1.08500004       6.25948189E-03
   1.08749998       6.25963556E-03
   1.09000003       6.25973847E-03
   1.09249997       6.25979435E-03
   1.09500003       6.25996664E-03
   1.09749997       6.26019109E-03
   1.10000002       6.26031589E-03
   1.10249996       6.26041461E-03
   1.10500002       6.26060460E-03
   1.10749996       6.26084814E-03
   1.11000001       6.26108516E-03
   1.11249995       6.26131566E-03
   1.11500001       6.26152102E-03
   1.11749995       6.26169937E-03
   1.12000000       6.26193313E-03
   1.12249994       6.26228051E-03
   1.12500000       6.26264606E-03
   1.12750006       6.26290077E-03
   1.13000000       6.26306562E-03
   1.13250005       6.26326259E-03
   1.13499999       6.26355363E-03
   1.13750005       6.26393035E-03
   1.13999999       6.26434525E-03
   1.14250004       6.26466423E-03
   1.14499998       6.26481278E-03
   1.14750004       6.26498042E-03
   1.14999998       6.26534922E-03
   1.15250003       6.26577204E-03
   1.15499997       6.26607053E-03
   1.15750003       6.26633083E-03
   1.15999997       6.26661070E-03
   1.16250002       6.26683282E-03
   1.16499996       6.26709778E-03
   1.16750002       6.26751455E-03
   1.16999996       6.26785727E-03
   1.17250001       6.26798766E-03
   1.17499995       6.26816414E-03
   1.17750001       6.26848778E-03
   1.17999995       6.26874156E-03
   1.18250000       6.26895623E-03
   1.18499994       6.26928220E-03
   1.18750000       6.26952248E-03
   1.19000006       6.26958534E-03
   1.19250000       6.26977254E-03
   1.19500005       6.27009384E-03
   1.19749999       6.27023540E-03
   1.20000005       6.27032854E-03
   1.20249999       6.27064379E-03
   1.20500004       6.27090689E-03
   1.20749998       6.27091201E-03
   1.21000004       6.27099862E-03
   1.21249998       6.27126079E-03
   1.21500003       6.27139723E-03
   1.21749997       6.27148943E-03
   1.22000003       6.27175113E-03
   1.22249997       6.27191179E-03
   1.22500002       6.27184799E-03
   1.22749996       6.27193740E-03
   1.23000002       6.27221866E-03
   1.23249996       6.27234206E-03
   1.23500001       6.27237698E-03
   1.23749995       6.27253391E-03
   1.24000001       6.27262425E-03
   1.24249995       6.27262238E-03
   1.24500000       6.27281889E-03
   1.24749994       6.27307873E-03
   1.25000000       6.27308385E-03
   1.25250006       6.27306802E-03
   1.25500000       6.27326546E-03
   1.25750005       6.27340982E-03
   1.25999999       6.27342053E-03
   1.26250005       6.27355883E-03
   1.26499999       6.27373531E-03
   1.26750004       6.27374696E-03
   1.26999998       6.27380796E-03
   1.27250004       6.27402123E-03
   1.27499998       6.27410924E-03
   1.27750003       6.27408177E-03
   1.27999997       6.27421495E-03
   1.28250003       6.27441891E-03
   1.28499997       6.27449667E-03
   1.28750002       6.27455767E-03
   1.28999996       6.27465639E-03
   1.29250002       6.27469830E-03
   1.29499996       6.27477467E-03
   1.29750001       6.27495861E-03
   1.29999995       6.27508340E-03
   1.30250001       6.27512066E-03
   1.30499995       6.27520494E-03
   1.30750000       6.27528736E-03
   1.30999994       6.27533114E-03
   1.31250000       6.27546525E-03
   1.31500006       6.27562543E-03
   1.31750000       6.27565756E-03
   1.32000005       6.27570366E-03
   1.32249999       6.27586013E-03
   1.32500005       6.27594953E-03
   1.32749999       6.27599191E-03
   1.33000004       6.27615117E-03
   1.33249998       6.27625873E-03
   1.33500004       6.27622847E-03
   1.33749998       6.27635000E-03
   1.34000003       6.27660938E-03
   1.34249997       6.27667597E-03
   1.34500003       6.27667177E-03
   1.34749997       6.27684174E-03
   1.35000002       6.27695955E-03
   1.35249996       6.27697213E-03
   1.35500002       6.27720356E-03
   1.35749996       6.27748575E-03
   1.36000001       6.27745688E-03
   1.36249995       6.27745688E-03
   1.36500001       6.27776422E-03
   1.36749995       6.27795234E-03
   1.37000000       6.27794396E-03
   1.37249994       6.27817772E-03
   1.37500000       6.27846364E-03
   1.37750006       6.27841987E-03
   1.38000000       6.27844827E-03
   1.38250005       6.27878867E-03
   1.38499999       6.27895864E-03
   1.38750005       6.27896609E-03
   1.38999999       6.27926458E-03
   1.39250004       6.27954165E-03
   1.39499998       6.27945736E-03
   1.39750004       6.27954165E-03
   1.39999998       6.27994537E-03
   1.40250003       6.28007855E-03
   1.40499997       6.28007296E-03
   1.40750003       6.28043385E-03
   1.40999997       6.28071278E-03
   1.41250002       6.28056470E-03
   1.41499996       6.28067553E-03
   1.41750002       6.28118403E-03
   1.41999996       6.28134143E-03
   1.42250001       6.28125109E-03
   1.42499995       6.28153794E-03
   1.42750001       6.28184900E-03
   1.42999995       6.28180755E-03
   1.43250000       6.28197473E-03
   1.43499994       6.28245017E-03
   1.43750000       6.28258288E-03
   1.44000006       6.28250046E-03
   1.44250000       6.28276076E-03
   1.44500005       6.28306204E-03
   1.44749999       6.28310489E-03
   1.45000005       6.28331909E-03
   1.45249999       6.28370279E-03
   1.45500004       6.28376985E-03
   1.45749998       6.28377171E-03
   1.46000004       6.28412841E-03
   1.46249998       6.28442690E-03
   1.46500003       6.28442178E-03
   1.46749997       6.28459547E-03
   1.47000003       6.28495682E-03
   1.47249997       6.28502341E-03
   1.47500002       6.28500478E-03
   1.47749996       6.28533587E-03
   1.48000002       6.28568185E-03
   1.48249996       6.28570002E-03
   1.48500001       6.28571818E-03
   1.48749995       6.28591795E-03
   1.49000001       6.28604926E-03
   1.49249995       6.28612563E-03
   1.49500000       6.28632726E-03
   1.49749994       6.28650794E-03
   1.50000000       6.28652703E-03
   1.50250006       6.28656289E-03
   1.50500000       6.28670305E-03
   1.50750005       6.28681062E-03
   1.50999999       6.28686277E-03
   1.51250005       6.28695078E-03
   1.51499999       6.28704811E-03
   1.51750004       6.28708489E-03
   1.51999998       6.28712913E-03
   1.52250004       6.28728233E-03
   1.52499998       6.28745090E-03
   1.52750003       6.28747419E-03
   1.52999997       6.28744299E-03
   1.53250003       6.28755894E-03
   1.53499997       6.28773915E-03
   1.53750002       6.28783694E-03
   1.53999996       6.28798082E-03
   1.54250002       6.28820667E-03
   1.54499996       6.28826255E-03
   1.54750001       6.28822716E-03
   1.54999995       6.28846837E-03
   1.55250001       6.28881296E-03
   1.55499995       6.28887815E-03
   1.55750000       6.28892938E-03
   1.55999994       6.28923578E-03
   1.56250000       6.28942763E-03
   1.56500006       6.28942670E-03
   1.56750000       6.28966512E-03
   1.57000005       6.29000505E-03
   1.57249999       6.29004091E-03
   1.57500005       6.29010238E-03
   1.57749999       6.29043486E-03
   1.58000004       6.29055174E-03
   1.58249998       6.29046187E-03
   1.58500004       6.29075384E-03
   1.58749998       6.29113801E-03
   1.59000003       6.29103510E-03
   1.59249997       6.29094150E-03
   1.59500003       6.29127491E-03
   1.59749997       6.29143510E-03
   1.60000002       6.29132381E-03
   1.60249996       6.29155990E-03
   1.60500002       6.29185652E-03
   1.60749996       6.29165256E-03
   1.61000001       6.29155757E-03
   1.61249995       6.29197620E-03
   1.61500001       6.29215175E-03
   1.61749995       6.29195292E-03
   1.62000000       6.29209960E-03
   1.62249994       6.29235990E-03
   1.62500000       6.29219366E-03
   1.62750006       6.29219040E-03
   1.63000000       6.29263837E-03
   1.63250005       6.29272638E-03
   1.63499999       6.29245536E-03
   1.63750005       6.29264675E-03
   1.63999999       6.29298901E-03
   1.64250004       6.29284885E-03
   1.64499998       6.29283767E-03
   1.64750004       6.29329029E-03
   1.64999998       6.29340392E-03
   1.65250003       6.29316224E-03
   1.65499997       6.29337737E-03
   1.65750003       6.29377412E-03
   1.65999997       6.29371265E-03
   1.66250002       6.29370147E-03
   1.66499996       6.29408984E-03
   1.66750002       6.29422534E-03
   1.66999996       6.29407028E-03
   1.67250001       6.29427936E-03
   1.67499995       6.29464677E-03
   1.67750001       6.29467936E-03
   1.67999995       6.29474083E-03
   1.68250000       6.29502302E-03
   1.68499994       6.29507797E-03
   1.68750000       6.29503606E-03
   1.69000006       6.29534945E-03
   1.69250000       6.29566284E-03
   1.69500005       6.29562745E-03
   1.69749999       6.29569078E-03
   1.70000005       6.29599812E-03
   1.70249999       6.29610568E-03
   1.70500004       6.29609870E-03
   1.70749998       6.29634038E-03
   1.71000004       6.29656576E-03
   1.71249998       6.29655551E-03
   1.71500003       6.29666541E-03
   1.71749997       6.29696064E-03
   1.72000003       6.29709382E-03
   1.72249997       6.29713712E-03
   1.72500002       6.29732851E-03
   1.72749996       6.29749382E-03
   1.73000002       6.29752642E-03
   1.73249996       6.29764423E-03
   1.73500001       6.29785703E-03
   1.73749995       6.29801257E-03
   1.74000001       6.29814900E-03
   1.74249995       6.29827846E-03
   1.74500000       6.29831478E-03
   1.74749994       6.29839394E-03
   1.75000000       6.29862398E-03
   1.75250006       6.29879907E-03
   1.75500000       6.29884470E-03
   1.75750005       6.29894389E-03
   1.75999999       6.29908126E-03
   1.76250005       6.29915623E-03
   1.76499999       6.29929500E-03
   1.76750004       6.29949244E-03
   1.76999998       6.29954366E-03
   1.77250004       6.29954645E-03
   1.77499998       6.29970431E-03
   1.77750003       6.29985426E-03
   1.77999997       6.29988918E-03
   1.78250003       6.30001258E-03
   1.78499997       6.30017929E-03
   1.78750002       6.30018394E-03
   1.78999996       6.30021468E-03
   1.79250002       6.30043587E-03
   1.79499996       6.30056206E-03
   1.79750001       6.30051969E-03
   1.79999995       6.30060863E-03
   1.80250001       6.30078884E-03
   1.80499995       6.30084192E-03
   1.80750000       6.30093506E-03
   1.80999994       6.30113855E-03
   1.81250000       6.30117347E-03
   1.81500006       6.30113110E-03
   1.81750000       6.30133459E-03
   1.82000005       6.30154693E-03
   1.82249999       6.30149711E-03
   1.82500005       6.30151900E-03
   1.82749999       6.30172482E-03
   1.83000004       6.30174577E-03
   1.83249998       6.30171271E-03
   1.83500004       6.30198233E-03
   1.83749998       6.30217744E-03
   1.84000003       6.30199630E-03
   1.84249997       6.30195718E-03
   1.84500003       6.30223658E-03
   1.84749997       6.30230643E-03
   1.85000002       6.30222075E-03
   1.85249996       6.30243402E-03
   1.85500002       6.30261330E-03
   1.85749996       6.30241819E-03
   1.86000001       6.30239490E-03
   1.86249995       6.30274275E-03
   1.86500001       6.30284194E-03
   1.86749995       6.30269526E-03
   1.87000000       6.30285637E-03
   1.87249994       6.30308175E-03
   1.87500000       6.30298303E-03
   1.87750006       6.30301377E-03
   1.88000000       6.30333601E-03
   1.88250005       6.30338443E-03
   1.88499999       6.30326103E-03
   1.88750005       6.30351203E-03
   1.88999999       6.30376209E-03
   1.89250004       6.30359305E-03
   1.89499998       6.30360190E-03
   1.89750004       6.30400237E-03
   1.89999998       6.30407780E-03
   1.90250003       6.30386407E-03
   1.90499997       6.30405173E-03
   1.90750003       6.30435161E-03
   1.90999997       6.30422961E-03
   1.91250002       6.30418118E-03
   1.91499996       6.30447920E-03
   1.91750002       6.30451227E-03
   1.91999996       6.30431715E-03
   1.92250001       6.30451739E-03
   1.92499995       6.30479306E-03
   1.92750001       6.30462635E-03
   1.92999995       6.30452856E-03
   1.93250000       6.30479120E-03
   1.93499994       6.30484289E-03
   1.93750000       6.30470738E-03
   1.94000006       6.30490156E-03
   1.94250000       6.30505942E-03
   1.94500005       6.30481867E-03
   1.94749999       6.30483497E-03
   1.95000005       6.30527409E-03
   1.95249999       6.30532485E-03
   1.95500004       6.30502170E-03
   1.95749998       6.30512834E-03
   1.96000004       6.30539889E-03
   1.96249998       6.30530715E-03
   1.96500003       6.30532019E-03
   1.96749997       6.30566292E-03
   1.97000003       6.30569691E-03
   1.97249997       6.30544545E-03
   1.97500002       6.30554836E-03
   1.97749996       6.30580401E-03
   1.98000002       6.30576303E-03
   1.98249996       6.30578026E-03
   1.98500001       6.30600564E-03
   1.98749995       6.30597770E-03
   1.99000001       6.30582403E-03
   1.99249995       6.30602427E-03
   1.99500000       6.30625291E-03
   1.99749994       6.30612858E-03
   2.00000000       6.30607037E-03
   2.00250006       6.30625524E-03
   2.00500011       6.30627992E-03
   2.00749993       6.30622823E-03
   2.00999999       6.30643917E-03
   2.01250005       6.30659563E-03
   2.01500010       6.30643824E-03
   2.01749992       6.30639354E-03
   2.01999998       6.30661752E-03
   2.02250004       6.30671578E-03
   2.02500010       6.30667666E-03
   2.02749991       6.30678097E-03
   2.02999997       6.30689459E-03
   2.03250003       6.30685221E-03
   2.03500009       6.30687596E-03
   2.03749990       6.30703103E-03
   2.03999996       6.30709529E-03
   2.04250002       6.30708644E-03
   2.04500008       6.30715862E-03
   2.04749990       6.30723452E-03
   2.04999995       6.30722847E-03
   2.05250001       6.30723359E-03
   2.05500007       6.30730810E-03
   2.05749989       6.30740589E-03
   2.05999994       6.30747294E-03
   2.06250000       6.30747387E-03
   2.06500006       6.30744454E-03
   2.06750011       6.30746083E-03
   2.06999993       6.30751904E-03
   2.07249999       6.30760798E-03
   2.07500005       6.30772673E-03
   2.07750010       6.30775141E-03
   2.07999992       6.30764384E-03
   2.08249998       6.30766526E-03
   2.08500004       6.30787946E-03
   2.08750010       6.30795117E-03
   2.08999991       6.30785525E-03
   2.09249997       6.30792137E-03
   2.09500003       6.30804291E-03
   2.09750009       6.30796701E-03
   2.09999990       6.30798144E-03
   2.10249996       6.30822033E-03
   2.10500002       6.30825758E-03
   2.10750008       6.30810251E-03
   2.10999990       6.30820263E-03
   2.11249995       6.30836701E-03
   2.11500001       6.30825758E-03
   2.11750007       6.30825618E-03
   2.11999989       6.30849926E-03
   2.12249994       6.30846201E-03
   2.12500000       6.30826177E-03
   2.12750006       6.30844384E-03
   2.13000011       6.30864687E-03
   2.13249993       6.30845968E-03
   2.13499999       6.30843360E-03
   2.13750005       6.30871719E-03
   2.14000010       6.30865432E-03