   0.00000000       0.00000000    
   2.49999994E-03   0.00000000    
   4.99999989E-03   0.00000000    
   7.49999983E-03   0.00000000    
   9.99999978E-03   0.00000000    
   1.25000002E-02  -2.34238644E-14
   1.49999997E-02   6.95334496E-14
   1.75000001E-02   4.84725704E-13
   1.99999996E-02  -2.02141212E-12
   2.25000009E-02  -2.33529905E-12
   2.50000004E-02   1.46157184E-11
   2.74999999E-02   7.03061220E-12
   2.99999993E-02  -6.07811787E-11
   3.24999988E-02  -1.47285916E-11
   3.50000001E-02   1.83382545E-10
   3.75000015E-02   1.69621574E-11
   3.99999991E-02  -4.52540116E-10
   4.25000004E-02   1.04279415E-11
   4.50000018E-02   9.88445881E-10
   4.74999994E-02  -5.52442259E-11
   5.00000007E-02  -1.93418326E-09
   5.24999984E-02  -6.50856521E-11
   5.49999997E-02   3.20048876E-09
   5.75000010E-02   6.58666899E-10
   5.99999987E-02  -4.04269285E-09
   6.25000000E-02  -1.47695445E-09
   6.49999976E-02   3.34959038E-09
   6.75000027E-02   9.77353309E-10
   7.00000003E-02  -1.19567023E-09
   7.24999979E-02   2.71906297E-09
   7.50000030E-02  -1.51801710E-10
   7.75000006E-02  -9.31912414E-09
   7.99999982E-02  -1.87679339E-09
   8.25000033E-02   1.60703220E-08
   8.50000009E-02   8.26304092E-09
   8.74999985E-02  -1.93935890E-08
   9.00000036E-02  -1.90665173E-08
   9.25000012E-02   1.35763365E-08
   9.49999988E-02   3.02697707E-08
   9.74999964E-02   7.60486962E-09
  0.100000001      -2.73381211E-08
  0.102499999      -3.52756153E-08
  0.104999997      -4.59955907E-10
  0.107500002       4.25942552E-08
  0.109999999       3.41109221E-08
  0.112499997      -1.92074268E-08
  0.115000002      -4.05711553E-08
  0.117500000      -9.12936304E-09
  0.119999997       1.61610618E-08
  0.122500002       1.68639804E-08
  0.125000000       2.13639222E-08
  0.127499998       8.57517612E-09
  0.129999995      -3.99428082E-08
  0.132499993      -5.35265769E-08
  0.135000005       9.47841006E-09
  0.137500003       5.91909703E-08
  0.140000001       1.78674515E-08
  0.142499998      -6.06315425E-08
  0.144999996      -9.71495950E-08
  0.147499993      -8.30128499E-08
  0.150000006      -4.66917314E-08
  0.152500004      -3.43437918E-08
  0.155000001      -8.89265195E-08
  0.157499999      -1.85147712E-07
  0.159999996      -2.64656478E-07
  0.162499994      -3.33535297E-07
  0.165000007      -4.21322454E-07
  0.167500004      -5.18818410E-07
  0.170000002      -6.59411228E-07
  0.172499999      -9.25371808E-07
  0.174999997      -1.30181706E-06
  0.177499995      -1.69884402E-06
  0.180000007      -2.13234125E-06
  0.182500005      -2.70186092E-06
  0.185000002      -3.45236754E-06
  0.187500000      -4.42172131E-06
  0.189999998      -5.69190479E-06
  0.192499995      -7.27241513E-06
  0.194999993      -9.11420375E-06
  0.197500005      -1.13006281E-05
  0.200000003      -1.40352504E-05
  0.202500001      -1.74550532E-05
  0.204999998      -2.16228636E-05
  0.207499996      -2.66206462E-05
  0.209999993      -3.25347573E-05
  0.212500006      -3.94826166E-05
  0.215000004      -4.77016220E-05
  0.217500001      -5.74680671E-05
  0.219999999      -6.89651788E-05
  0.222499996      -8.23546652E-05
  0.224999994      -9.78573953E-05
  0.227500007      -1.15680887E-04
  0.230000004      -1.36046569E-04
  0.232500002      -1.59307936E-04
  0.234999999      -1.85833909E-04
  0.237499997      -2.15830223E-04
  0.239999995      -2.49470380E-04
  0.242500007      -2.87060480E-04
  0.245000005      -3.28899681E-04
  0.247500002      -3.75178177E-04
  0.250000000      -4.26135608E-04
  0.252499998      -4.82073578E-04
  0.254999995      -5.43135859E-04
  0.257499993      -6.09322684E-04
  0.259999990      -6.80723635E-04
  0.262499988      -7.57495756E-04
  0.264999986      -8.39660992E-04
  0.267500013      -9.27124696E-04
  0.270000011      -1.01979147E-03
  0.272500008      -1.11750374E-03
  0.275000006      -1.21998880E-03
  0.277500004      -1.32696377E-03
  0.280000001      -1.43816648E-03
  0.282499999      -1.55323977E-03
  0.284999996      -1.67170377E-03
  0.287499994      -1.79302599E-03
  0.289999992      -1.91662158E-03
  0.292499989      -2.04184977E-03
  0.294999987      -2.16808007E-03
  0.297500014      -2.29466404E-03
  0.300000012      -2.42081261E-03
  0.302500010      -2.54561962E-03
  0.305000007      -2.66819540E-03
  0.307500005      -2.78764893E-03
  0.310000002      -2.90300604E-03
  0.312500000      -3.01326602E-03
  0.314999998      -3.11742886E-03
  0.317499995      -3.21436557E-03
  0.319999993      -3.30282282E-03
  0.322499990      -3.38163762E-03
  0.324999988      -3.44976317E-03
  0.327499986      -3.50605696E-03
  0.330000013      -3.54925473E-03
  0.332500011      -3.57815856E-03
  0.335000008      -3.59168742E-03
  0.337500006      -3.58880684E-03
  0.340000004      -3.56858596E-03
  0.342500001      -3.53024178E-03
  0.344999999      -3.47308069E-03
  0.347499996      -3.39653296E-03
  0.349999994      -3.30028101E-03
  0.352499992      -3.18426569E-03
  0.354999989      -3.04863905E-03
  0.357499987      -2.89382250E-03
  0.360000014      -2.72053480E-03
  0.362500012      -2.52975174E-03
  0.365000010      -2.32276996E-03
  0.367500007      -2.10124394E-03
  0.370000005      -1.86703424E-03
  0.372500002      -1.62217091E-03
  0.375000000      -1.36903580E-03
  0.377499998      -1.11029739E-03
  0.379999995      -8.48616299E-04
  0.382499993      -5.86719543E-04
  0.384999990      -3.27641203E-04
  0.387499988      -7.44380814E-05
  0.389999986       1.70191124E-04
  0.392500013       4.03660990E-04
  0.395000011       6.23227854E-04
  0.397500008       8.26373871E-04
  0.400000006       1.01111154E-03
  0.402500004       1.17568485E-03
  0.405000001       1.31846766E-03
  0.407499999       1.43832201E-03
  0.409999996       1.53462891E-03
  0.412499994       1.60697638E-03
  0.414999992       1.65524276E-03
  0.417499989       1.67983770E-03
  0.419999987       1.68154167E-03
  0.422500014       1.66135142E-03
  0.425000012       1.62059069E-03
  0.427500010       1.56082725E-03
  0.430000007       1.48369849E-03
  0.432500005       1.39108440E-03
  0.435000002       1.28515961E-03
  0.437500000       1.16800959E-03
  0.439999998       1.04155333E-03
  0.442499995       9.07881127E-04
  0.444999993       7.69141014E-04
  0.447499990       6.27156929E-04
  0.449999988       4.83603915E-04
  0.452499986       3.40251834E-04
  0.455000013       1.98651993E-04
  0.457500011       5.99963569E-05
  0.460000008      -7.45352372E-05
  0.462500006      -2.03818563E-04
  0.465000004      -3.27119837E-04
  0.467500001      -4.43883502E-04
  0.469999999      -5.53463993E-04
  0.472499996      -6.55450276E-04
  0.474999994      -7.49760831E-04
  0.477499992      -8.36209045E-04
  0.479999989      -9.14543984E-04
  0.482499987      -9.84862330E-04
  0.485000014      -1.04740378E-03
  0.487500012      -1.10222504E-03
  0.490000010      -1.14947383E-03
  0.492500007      -1.18946005E-03
  0.495000005      -1.22229580E-03
  0.497500002      -1.24807097E-03
  0.500000000      -1.26722793E-03
  0.502499998      -1.28017517E-03
  0.504999995      -1.28697848E-03
  0.507499993      -1.28784543E-03
  0.509999990      -1.28320302E-03
  0.512499988      -1.27317349E-03
  0.514999986      -1.25782203E-03
  0.517499983      -1.23768579E-03
  0.519999981      -1.21323229E-03
  0.522499979      -1.18438900E-03
  0.524999976      -1.15126511E-03
  0.527499974      -1.11445528E-03
  0.529999971      -1.07427919E-03
  0.532500029      -1.03073672E-03
  0.535000026      -9.84218786E-04
  0.537500024      -9.35280521E-04
  0.540000021      -8.84069479E-04
  0.542500019      -8.30753124E-04
  0.545000017      -7.75867142E-04
  0.547500014      -7.19793432E-04
  0.550000012      -6.62679202E-04
  0.552500010      -6.04939181E-04
  0.555000007      -5.47079719E-04
  0.557500005      -4.89316648E-04
  0.560000002      -4.31922846E-04
  0.562500000      -3.75400123E-04
  0.564999998      -3.20059713E-04
  0.567499995      -2.66090967E-04
  0.569999993      -2.13918960E-04
  0.572499990      -1.63894205E-04
  0.574999988      -1.16088806E-04
  0.577499986      -7.07901199E-05
  0.579999983      -2.84834623E-05
  0.582499981       1.07338155E-05
  0.584999979       4.69321421E-05
  0.587499976       7.98076289E-05
  0.589999974       1.09073568E-04
  0.592499971       1.34844449E-04
  0.595000029       1.57140050E-04
  0.597500026       1.75731780E-04
  0.600000024       1.90675841E-04
  0.602500021       2.02224648E-04
  0.605000019       2.10342725E-04
  0.607500017       2.14974207E-04
  0.610000014       2.16409506E-04
  0.612500012       2.14932123E-04
  0.615000010       2.10607366E-04
  0.617500007       2.03599207E-04
  0.620000005       1.94197390E-04
  0.622500002       1.82599935E-04
  0.625000000       1.69030900E-04
  0.627499998       1.53810834E-04
  0.629999995       1.37157724E-04
  0.632499993       1.19250697E-04
  0.634999990       1.00383069E-04
  0.637499988       8.07742254E-05
  0.639999986       6.05398382E-05
  0.642499983       3.99652708E-05
  0.644999981       1.93588094E-05
  0.647499979      -1.27829924E-06
  0.649999976      -2.19602789E-05
  0.652499974      -4.23882702E-05
  0.654999971      -6.23098749E-05
  0.657500029      -8.17795008E-05
  0.660000026      -1.00805250E-04
  0.662500024      -1.19206343E-04
  0.665000021      -1.36918432E-04
  0.667500019      -1.54021589E-04
  0.670000017      -1.70496874E-04
  0.672500014      -1.86243356E-04
  0.675000012      -2.01231072E-04
  0.677500010      -2.15504770E-04
  0.680000007      -2.29129713E-04
  0.682500005      -2.42120732E-04
  0.685000002      -2.54416460E-04
  0.687500000      -2.66029121E-04
  0.689999998      -2.77082145E-04
  0.692499995      -2.87584699E-04
  0.694999993      -2.97437276E-04
  0.697499990      -3.06714617E-04
  0.699999988      -3.15573096E-04
  0.702499986      -3.23952147E-04
  0.704999983      -3.31759715E-04
  0.707499981      -3.39136779E-04
  0.709999979      -3.46192246E-04
  0.712499976      -3.52815608E-04
  0.714999974      -3.58982303E-04
  0.717499971      -3.64844222E-04
  0.720000029      -3.70441994E-04
  0.722500026      -3.75690055E-04
  0.725000024      -3.80591140E-04
  0.727500021      -3.85212013E-04
  0.730000019      -3.89594468E-04
  0.732500017      -3.93782597E-04
  0.735000014      -3.97773052E-04
  0.737500012      -4.01510828E-04
  0.740000010      -4.05034749E-04
  0.742500007      -4.08421067E-04
  0.745000005      -4.11620422E-04
  0.747500002      -4.14622249E-04
  0.750000000      -4.17576870E-04
  0.752499998      -4.20498720E-04
  0.754999995      -4.23199032E-04
  0.757499993      -4.25682752E-04
  0.759999990      -4.28174331E-04
  0.762499988      -4.30698768E-04
  0.764999986      -4.33095149E-04
  0.767499983      -4.35362163E-04
  0.769999981      -4.37609124E-04
  0.772499979      -4.39840544E-04
  0.774999976      -4.42030316E-04
  0.777499974      -4.44197358E-04
  0.779999971      -4.46334889E-04
  0.782500029      -4.48445149E-04
  0.785000026      -4.50565596E-04
  0.787500024      -4.52677195E-04
  0.790000021      -4.54755791E-04
  0.792500019      -4.56871407E-04
  0.795000017      -4.59041708E-04
  0.797500014      -4.61168122E-04
  0.800000012      -4.63257107E-04
  0.802500010      -4.65427816E-04
  0.805000007      -4.67657694E-04
  0.807500005      -4.69835184E-04
  0.810000002      -4.71996260E-04
  0.812500000      -4.74226486E-04
  0.814999998      -4.76488553E-04
  0.817499995      -4.78729635E-04
  0.819999993      -4.80971590E-04
  0.822499990      -4.83232143E-04
  0.824999988      -4.85521858E-04
  0.827499986      -4.87853278E-04
  0.829999983      -4.90172126E-04
  0.832499981      -4.92429594E-04
  0.834999979      -4.94695210E-04
  0.837499976      -4.97023109E-04
  0.839999974      -4.99349146E-04
  0.842499971      -5.01646660E-04
  0.845000029      -5.03963209E-04
  0.847500026      -5.06266137E-04
  0.850000024      -5.08503465E-04
  0.852500021      -5.10735321E-04
  0.855000019      -5.12998551E-04
  0.857500017      -5.15222433E-04
  0.860000014      -5.17391483E-04
  0.862500012      -5.19565365E-04
  0.865000010      -5.21731912E-04
  0.867500007      -5.23845665E-04
  0.870000005      -5.25916461E-04
  0.872500002      -5.27945289E-04
  0.875000000      -5.29932091E-04
  0.877499998      -5.31925587E-04
  0.879999995      -5.33903483E-04
  0.882499993      -5.35771949E-04
  0.884999990      -5.37573767E-04
  0.887499988      -5.39421628E-04
  0.889999986      -5.41254587E-04
  0.892499983      -5.42974856E-04
  0.894999981      -5.44666254E-04
  0.897499979      -5.46388968E-04
  0.899999976      -5.48039505E-04
  0.902499974      -5.49605058E-04
  0.904999971      -5.51199366E-04
  0.907500029      -5.52797574E-04
  0.910000026      -5.54294267E-04
  0.912500024      -5.55738341E-04
  0.915000021      -5.57217572E-04
  0.917500019      -5.58686268E-04
  0.920000017      -5.60085929E-04
  0.922500014      -5.61438093E-04
  0.925000012      -5.62770001E-04
  0.927500010      -5.64094051E-04
  0.930000007      -5.65393886E-04
  0.932500005      -5.66618284E-04
  0.935000002      -5.67800889E-04
  0.937500000      -5.69037162E-04
  0.939999998      -5.70258708E-04
  0.942499995      -5.71330311E-04
  0.944999993      -5.72344870E-04
  0.947499990      -5.73435274E-04
  0.949999988      -5.74484933E-04
  0.952499986      -5.75406302E-04
  0.954999983      -5.76340302E-04
  0.957499981      -5.77303756E-04
  0.959999979      -5.78138861E-04
  0.962499976      -5.78893465E-04
  0.964999974      -5.79707033E-04
  0.967499971      -5.80475782E-04
  0.970000029      -5.81118918E-04
  0.972500026      -5.81781613E-04
  0.975000024      -5.82467474E-04
  0.977500021      -5.83016430E-04
  0.980000019      -5.83504036E-04
  0.982500017      -5.84069872E-04
  0.985000014      -5.84583438E-04
  0.987500012      -5.84978261E-04
  0.990000010      -5.85430011E-04
  0.992500007      -5.85916219E-04
  0.995000005      -5.86247945E-04
  0.997500002      -5.86533395E-04
   1.00000000      -5.86941547E-04
   1.00250006      -5.87315124E-04
   1.00500000      -5.87562739E-04
   1.00750005      -5.87874965E-04
   1.00999999      -5.88248717E-04
   1.01250005      -5.88495343E-04
   1.01499999      -5.88706695E-04
   1.01750004      -5.89029572E-04
   1.01999998      -5.89304953E-04
   1.02250004      -5.89457166E-04
   1.02499998      -5.89682371E-04
   1.02750003      -5.89980977E-04
   1.02999997      -5.90175623E-04
   1.03250003      -5.90341166E-04
   1.03499997      -5.90600132E-04
   1.03750002      -5.90815151E-04
   1.03999996      -5.90928888E-04
   1.04250002      -5.91095537E-04
   1.04499996      -5.91303280E-04
   1.04750001      -5.91438380E-04
   1.04999995      -5.91596006E-04
   1.05250001      -5.91834425E-04
   1.05499995      -5.91995544E-04
   1.05750000      -5.92070166E-04
   1.05999994      -5.92228491E-04
   1.06250000      -5.92438213E-04
   1.06500006      -5.92566095E-04
   1.06750000      -5.92674944E-04
   1.07000005      -5.92834782E-04
   1.07249999      -5.92979020E-04
   1.07500005      -5.93112432E-04
   1.07749999      -5.93279023E-04
   1.08000004      -5.93408477E-04
   1.08249998      -5.93491539E-04
   1.08500004      -5.93628094E-04
   1.08749998      -5.93775767E-04
   1.09000003      -5.93837176E-04
   1.09249997      -5.93907724E-04
   1.09500003      -5.94063080E-04
   1.09749997      -5.94185956E-04
   1.10000002      -5.94249577E-04
   1.10249996      -5.94365469E-04
   1.10500002      -5.94488694E-04
   1.10749996      -5.94512618E-04
   1.11000001      -5.94527344E-04
   1.11249995      -5.94634330E-04
   1.11500001      -5.94763434E-04
   1.11749995      -5.94852027E-04
   1.12000000      -5.94922109E-04
   1.12249994      -5.94977464E-04
   1.12500000      -5.95032936E-04
   1.12750006      -5.95114660E-04
   1.13000000      -5.95183461E-04
   1.13250005      -5.95235848E-04
   1.13499999      -5.95332938E-04
   1.13750005      -5.95425023E-04
   1.13999999      -5.95440273E-04
   1.14250004      -5.95488586E-04
   1.14499998      -5.95622463E-04
   1.14750004      -5.95682184E-04
   1.14999998      -5.95659891E-04
   1.15250003      -5.95732068E-04
   1.15499997      -5.95834805E-04
   1.15750003      -5.95809135E-04
   1.15999997      -5.95790916E-04
   1.16250002      -5.95890626E-04
   1.16499996      -5.95928985E-04
   1.16750002      -5.95880148E-04
   1.16999996      -5.95925259E-04
   1.17250001      -5.95980557E-04
   1.17499995      -5.95893129E-04
   1.17750001      -5.95842663E-04
   1.17999995      -5.95929567E-04
   1.18250000      -5.95940859E-04
   1.18499994      -5.95866062E-04
   1.18750000      -5.95891965E-04
   1.19000006      -5.95921476E-04
   1.19250000      -5.95836318E-04
   1.19500005      -5.95819147E-04
   1.19749999      -5.95887657E-04
   1.20000005      -5.95825200E-04
   1.20249999      -5.95736434E-04
   1.20500004      -5.95825433E-04
   1.20749998      -5.95880090E-04
   1.21000004      -5.95753605E-04
   1.21249998      -5.95711172E-04
   1.21500003      -5.95802092E-04
   1.21749997      -5.95767458E-04
   1.22000003      -5.95663325E-04
   1.22249997      -5.95679099E-04
   1.22500002      -5.95672522E-04
   1.22749996      -5.95574907E-04
   1.23000002      -5.95576072E-04
   1.23249996      -5.95605117E-04
   1.23500001      -5.95474557E-04
   1.23749995      -5.95367223E-04
   1.24000001      -5.95405290E-04
   1.24249995      -5.95342484E-04
   1.24500000      -5.95180143E-04
   1.24749994      -5.95175778E-04
   1.25000000      -5.95191726E-04
   1.25250006      -5.95011516E-04
   1.25500000      -5.94883575E-04
   1.25750005      -5.94937243E-04
   1.25999999      -5.94875542E-04
   1.26250005      -5.94688638E-04
   1.26499999      -5.94654237E-04
   1.26750004      -5.94659301E-04
   1.26999998      -5.94498240E-04
   1.27250004      -5.94366167E-04
   1.27499998      -5.94363548E-04
   1.27750003      -5.94284676E-04
   1.27999997      -5.94152138E-04
   1.28250003      -5.94116573E-04
   1.28499997      -5.94039215E-04
   1.28750002      -5.93857665E-04
   1.28999996      -5.93773497E-04
   1.29250002      -5.93756326E-04
   1.29499996      -5.93627046E-04
   1.29750001      -5.93499688E-04
   1.29999995      -5.93450619E-04
   1.30250001      -5.93308359E-04
   1.30499995      -5.93145262E-04
   1.30750000      -5.93146018E-04
   1.30999994      -5.93088800E-04
   1.31250000      -5.92825352E-04
   1.31500006      -5.92678902E-04
   1.31750000      -5.92715573E-04
   1.32000005      -5.92596480E-04
   1.32249999      -5.92382159E-04
   1.32500005      -5.92355209E-04
   1.32749999      -5.92323951E-04
   1.33000004      -5.92109922E-04
   1.33249998      -5.91990305E-04
   1.33500004      -5.92022494E-04
   1.33749998      -5.91936638E-04
   1.34000003      -5.91802760E-04
   1.34249997      -5.91794087E-04
   1.34500003      -5.91727381E-04
   1.34749997      -5.91566495E-04
   1.35000002      -5.91547287E-04
   1.35249996      -5.91568125E-04
   1.35500002      -5.91437973E-04
   1.35749996      -5.91373828E-04
   1.36000001      -5.91424876E-04
   1.36249995      -5.91284421E-04
   1.36500001      -5.91072952E-04
   1.36749995      -5.91130171E-04
   1.37000000      -5.91205433E-04
   1.37249994      -5.91035350E-04
   1.37500000      -5.90939890E-04
   1.37750006      -5.90997050E-04
   1.38000000      -5.90853044E-04
   1.38250005      -5.90644311E-04
   1.38499999      -5.90708805E-04
   1.38750005      -5.90754440E-04
   1.38999999      -5.90545824E-04
   1.39250004      -5.90439769E-04
   1.39499998      -5.90482610E-04
   1.39750004      -5.90327312E-04
   1.39999998      -5.90143609E-04
   1.40250003      -5.90219453E-04
   1.40499997      -5.90231968E-04
   1.40750003      -5.90013689E-04
   1.40999997      -5.89932490E-04
   1.41250002      -5.89975272E-04
   1.41499996      -5.89825388E-04
   1.41750002      -5.89696923E-04
   1.41999996      -5.89804316E-04
   1.42250001      -5.89792966E-04
   1.42499995      -5.89580392E-04
   1.42750001      -5.89540461E-04
   1.42999995      -5.89590403E-04
   1.43250000      -5.89443836E-04
   1.43499994      -5.89353498E-04
   1.43750000      -5.89472475E-04
   1.44000006      -5.89444302E-04
   1.44250000      -5.89264382E-04
   1.44500005      -5.89280098E-04
   1.44749999      -5.89346106E-04
   1.45000005      -5.89223055E-04
   1.45249999      -5.89182891E-04
   1.45500004      -5.89301810E-04
   1.45749998      -5.89238771E-04
   1.46000004      -5.89084870E-04
   1.46249998      -5.89165429E-04
   1.46500003      -5.89253556E-04
   1.46749997      -5.89123287E-04
   1.47000003      -5.89085859E-04
   1.47249997      -5.89212694E-04
   1.47500002      -5.89159667E-04
   1.47749996      -5.89006057E-04
   1.48000002      -5.89069910E-04
   1.48249996      -5.89170551E-04
   1.48500001      -5.89079049E-04
   1.48749995      -5.89009665E-04
   1.49000001      -5.89055533E-04
   1.49249995      -5.89014322E-04
   1.49500000      -5.88924042E-04
   1.49749994      -5.88946568E-04
   1.50000000      -5.88966068E-04
   1.50250006      -5.88887196E-04
   1.50500000      -5.88834053E-04
   1.50750005      -5.88824216E-04
   1.50999999      -5.88780618E-04
   1.51250005      -5.88758907E-04
   1.51499999      -5.88770490E-04
   1.51750004      -5.88718569E-04
   1.51999998      -5.88652561E-04
   1.52250004      -5.88671537E-04
   1.52499998      -5.88689174E-04
   1.52750003      -5.88633702E-04
   1.52999997      -5.88586146E-04
   1.53250003      -5.88574854E-04
   1.53499997      -5.88566938E-04
   1.53750002      -5.88587834E-04
   1.53999996      -5.88621246E-04
   1.54250002      -5.88611467E-04
   1.54499996      -5.88591676E-04
   1.54750001      -5.88581199E-04
   1.54999995      -5.88551280E-04
   1.55250001      -5.88580268E-04
   1.55499995      -5.88688243E-04
   1.55750000      -5.88687486E-04
   1.55999994      -5.88571012E-04
   1.56250000      -5.88592491E-04
   1.56500006      -5.88721421E-04
   1.56750000      -5.88710420E-04
   1.57000005      -5.88660303E-04
   1.57249999      -5.88755298E-04
   1.57500005      -5.88804309E-04
   1.57749999      -5.88709954E-04
   1.58000004      -5.88725496E-04
   1.58249998      -5.88864670E-04
   1.58500004      -5.88882715E-04
   1.58749998      -5.88845694E-04
   1.59000003      -5.88916359E-04
   1.59249997      -5.88953670E-04
   1.59500003      -5.88905474E-04
   1.59749997      -5.88957628E-04
   1.60000002      -5.89072122E-04
   1.60249996      -5.89087314E-04
   1.60500002      -5.89094241E-04
   1.60749996      -5.89152682E-04
   1.61000001      -5.89153206E-04
   1.61249995      -5.89178642E-04
   1.61500001      -5.89324103E-04
   1.61749995      -5.89367992E-04
   1.62000000      -5.89256641E-04
   1.62249994      -5.89289411E-04
   1.62500000      -5.89453732E-04
   1.62750006      -5.89463511E-04
   1.63000000      -5.89424046E-04
   1.63250005      -5.89533651E-04
   1.63499999      -5.89588075E-04
   1.63750005      -5.89497853E-04
   1.63999999      -5.89513162E-04
   1.64250004      -5.89621603E-04
   1.64499998      -5.89630799E-04
   1.64750004      -5.89649950E-04
   1.64999998      -5.89730684E-04
   1.65250003      -5.89675212E-04
   1.65499997      -5.89594070E-04
   1.65750003      -5.89724688E-04
   1.65999997      -5.89826086E-04
   1.66250002      -5.89708914E-04
   1.66499996      -5.89696283E-04
   1.66750002      -5.89847914E-04
   1.66999996      -5.89815027E-04
   1.67250001      -5.89707051E-04
   1.67499995      -5.89841220E-04
   1.67750001      -5.89963631E-04
   1.67999995      -5.89852047E-04
   1.68250000      -5.89836971E-04
   1.68499994      -5.89987962E-04
   1.68750000      -5.89977717E-04
   1.69000006      -5.89925854E-04
   1.69250000      -5.90103911E-04
   1.69500005      -5.90241456E-04
   1.69749999      -5.90165670E-04
   1.70000005      -5.90199954E-04
   1.70249999      -5.90369396E-04
   1.70500004      -5.90395124E-04
   1.70749998      -5.90425567E-04
   1.71000004      -5.90634358E-04
   1.71249998      -5.90734184E-04
   1.71500003      -5.90682786E-04
   1.71749997      -5.90814860E-04
   1.72000003      -5.91020274E-04
   1.72249997      -5.91012300E-04
   1.72500002      -5.91033371E-04
   1.72749996      -5.91239659E-04
   1.73000002      -5.91300661E-04
   1.73249996      -5.91232500E-04
   1.73500001      -5.91386633E-04
   1.73749995      -5.91581047E-04
   1.74000001      -5.91511547E-04
   1.74249995      -5.91460383E-04
   1.74500000      -5.91592921E-04
   1.74749994      -5.91588789E-04
   1.75000000      -5.91478019E-04
   1.75250006      -5.91567368E-04
   1.75500000      -5.91652642E-04
   1.75750005      -5.91508695E-04
   1.75999999      -5.91452292E-04
   1.76250005      -5.91565738E-04
   1.76499999      -5.91496821E-04
   1.76750004      -5.91342920E-04
   1.76999998      -5.91430464E-04
   1.77250004      -5.91507647E-04
   1.77499998      -5.91335120E-04
   1.77750003      -5.91262535E-04
   1.77999997      -5.91405435E-04
   1.78250003      -5.91404911E-04
   1.78499997      -5.91300079E-04
   1.78750002      -5.91388613E-04
   1.78999996      -5.91480290E-04
   1.79250002      -5.91370452E-04
   1.79499996      -5.91344200E-04
   1.79750001      -5.91496995E-04
   1.79999995      -5.91539079E-04
   1.80250001      -5.91502467E-04
   1.80499995      -5.91611140E-04
   1.80750000      -5.91705728E-04
   1.80999994      -5.91643329E-04
   1.81250000      -5.91645774E-04
   1.81500006      -5.91758464E-04
   1.81750000      -5.91775053E-04
   1.82000005      -5.91762131E-04
   1.82249999      -5.91860211E-04
   1.82500005      -5.91900200E-04
   1.82749999      -5.91814925E-04
   1.83000004      -5.91821212E-04
   1.83249998      -5.91913995E-04
   1.83500004      -5.91908931E-04
   1.83749998      -5.91885939E-04
   1.84000003      -5.91941760E-04
   1.84249997      -5.91923774E-04
   1.84500003      -5.91835706E-04
   1.84749997      -5.91883028E-04
   1.85000002      -5.91995602E-04
   1.85249996      -5.91976102E-04
   1.85500002      -5.91929944E-04
   1.85749996      -5.91975928E-04
   1.86000001      -5.91984310E-04
   1.86249995      -5.91939548E-04
   1.86500001      -5.91984426E-04
   1.86749995      -5.92060620E-04
   1.87000000      -5.92064695E-04
   1.87249994      -5.92096010E-04
   1.87500000      -5.92157943E-04
   1.87750006      -5.92106022E-04
   1.88000000      -5.92041470E-04
   1.88250005      -5.92139433E-04
   1.88499999      -5.92240307E-04
   1.88750005      -5.92194148E-04
   1.88999999      -5.92170341E-04
   1.89250004      -5.92220982E-04
   1.89499998      -5.92177152E-04
   1.89750004      -5.92122844E-04
   1.89999998      -5.92236291E-04
   1.90250003      -5.92326920E-04
   1.90499997      -5.92218363E-04
   1.90750003      -5.92135359E-04
   1.90999997      -5.92198572E-04
   1.91250002      -5.92205615E-04
   1.91499996      -5.92154567E-04
   1.91750002      -5.92217839E-04
   1.91999996      -5.92279597E-04
   1.92250001      -5.92203112E-04
   1.92499995      -5.92167140E-04
   1.92750001      -5.92239317E-04
   1.92999995      -5.92233730E-04
   1.93250000      -5.92188851E-04
   1.93499994      -5.92264347E-04
   1.93750000      -5.92311786E-04
   1.94000006      -5.92219003E-04
   1.94250000      -5.92207245E-04
   1.94500005      -5.92314173E-04
   1.94749999      -5.92298864E-04
   1.95000005      -5.92217781E-04
   1.95249999      -5.92278142E-04
   1.95500004      -5.92320692E-04
   1.95749998      -5.92201774E-04
   1.96000004      -5.92155848E-04
   1.96249998      -5.92248107E-04
   1.96500003      -5.92232274E-04
   1.96749997      -5.92144148E-04
   1.97000003      -5.92190074E-04
   1.97249997      -5.92223660E-04
   1.97500002      -5.92098746E-04
   1.97749996      -5.92029013E-04
   1.98000002      -5.92084078E-04
   1.98249996      -5.92062308E-04
   1.98500001      -5.92012599E-04
   1.98749995      -5.92081866E-04
   1.99000001      -5.92089433E-04
   1.99249995      -5.91950840E-04
   1.99500000      -5.91932738E-04
   1.99749994      -5.92045137E-04
   2.00000000      -5.92006138E-04
   2.00250006      -5.91896242E-04
   2.00500011      -5.91954507E-04
   2.00749993      -5.92008699E-04
   2.00999999      -5.91897755E-04
   2.01250005      -5.91858639E-04
   2.01500010      -5.91957942E-04
   2.01749992      -5.91936405E-04
   2.01999998      -5.91814169E-04
   2.02250004      -5.91813819E-04
   2.02500010      -5.91840362E-04
   2.02749991      -5.91755845E-04
   2.02999997      -5.91719872E-04
   2.03250003      -5.91778080E-04
   2.03500009      -5.91737393E-04
   2.03749990      -5.91627089E-04
   2.03999996      -5.91624586E-04
   2.04250002      -5.91650663E-04
   2.04500008      -5.91586868E-04
   2.04749990      -5.91540709E-04
   2.04999995      -5.91547636E-04
   2.05250001      -5.91487449E-04
   2.05500007      -5.91403747E-04
   2.05749989      -5.91421500E-04
   2.05999994      -5.91459160E-04
   2.06250000      -5.91413991E-04
   2.06500006      -5.91363118E-04
   2.06750011      -5.91348740E-04
   2.06999993      -5.91303397E-04
   2.07249999      -5.91254502E-04
   2.07500005      -5.91272721E-04
   2.07750010      -5.91291522E-04
   2.07999992      -5.91240067E-04
   2.08249998      -5.91185701E-04
   2.08500004      -5.91179414E-04
   2.08750010      -5.91157412E-04
   2.08999991      -5.91093500E-04
   2.09249997      -5.91054501E-04
   2.09500003      -5.91055898E-04
   2.09750009      -5.91025571E-04
   2.09999990      -5.90943091E-04
   2.10249996      -5.90884883E-04
   2.10500002      -5.90882613E-04
   2.10750008      -5.90867188E-04
   2.10999990      -5.90805663E-04
   2.11249995      -5.90754789E-04
   2.11500001      -5.90730109E-04
   2.11750007      -5.90689247E-04
   2.11999989      -5.90648036E-04
   2.12249994      -5.90639655E-04
   2.12500000      -5.90618467E-04
   2.12750006      -5.90561074E-04
   2.13000011      -5.90527838E-04
   2.13249993      -5.90529176E-04
   2.13499999      -5.90511248E-04
   2.13750005      -5.90473413E-04
   2.14000010      -5.90427255E-04