   0.00000000       0.00000000    
   2.49999994E-03   0.00000000    
   4.99999989E-03   0.00000000    
   7.49999983E-03   0.00000000    
   9.99999978E-03   0.00000000    
   1.25000002E-02   0.00000000    
   1.49999997E-02   7.12014489E-18
   1.75000001E-02  -1.34179535E-16
   1.99999996E-02   1.40752068E-15
   2.25000009E-02  -5.37101220E-15
   2.50000004E-02   1.44355495E-15
   2.74999999E-02   4.09977702E-14
   2.99999993E-02  -7.05306446E-14
   3.24999988E-02  -1.36863204E-13
   3.50000001E-02   4.49540253E-13
   3.75000015E-02   1.89280259E-13
   3.99999991E-02  -1.79906632E-12
   4.25000004E-02   5.03408567E-13
   4.50000018E-02   5.69088179E-12
   4.74999994E-02  -4.20828303E-12
   5.00000007E-02  -1.59339868E-11
   5.24999984E-02   1.57103081E-11
   5.49999997E-02   4.16305983E-11
   5.75000010E-02  -4.07539419E-11
   5.99999987E-02  -1.01083725E-10
   6.25000000E-02   7.80680798E-11
   6.49999976E-02   2.20263488E-10
   6.75000027E-02  -1.06332824E-10
   7.00000003E-02  -4.16839396E-10
   7.24999979E-02   8.10707265E-11
   7.50000030E-02   6.75452139E-10
   7.75000006E-02   4.19777477E-11
   7.99999982E-02  -9.45808543E-10
   8.25000033E-02  -2.77143558E-10
   8.50000009E-02   1.17960686E-09
   8.74999985E-02   6.26977636E-10
   9.00000036E-02  -1.34314893E-09
   9.25000012E-02  -1.12804388E-09
   9.49999988E-02   1.33948475E-09
   9.74999964E-02   1.77929271E-09
  0.100000001      -9.79676118E-10
  0.102499999      -2.35043052E-09
  0.104999997       2.38479209E-10
  0.107500002       2.45370013E-09
  0.109999999       4.53192373E-10
  0.112499997      -2.07139994E-09
  0.115000002      -5.46341972E-10
  0.117500000       1.77918902E-09
  0.119999997       1.00430775E-10
  0.122500002      -2.00934602E-09
  0.125000000       4.24030699E-10
  0.127499998       2.54667798E-09
  0.129999995      -1.11707299E-09
  0.132499993      -3.42908768E-09
  0.135000005       2.23098540E-09
  0.137500003       5.32784217E-09
  0.140000001      -3.07240433E-09
  0.142499998      -8.09002820E-09
  0.144999996       3.19526072E-09
  0.147499993       1.10307967E-08
  0.150000006      -3.48473694E-09
  0.152500004      -1.54682702E-08
  0.155000001       2.94599012E-09
  0.157499999       2.26828476E-08
  0.159999996       2.52888266E-09
  0.162499994      -2.89065554E-08
  0.165000007      -1.38779663E-08
  0.167500004       2.83596453E-08
  0.170000002       2.56642032E-08
  0.172499999      -2.09859898E-08
  0.174999997      -3.25539879E-08
  0.177499995       1.27642528E-08
  0.180000007       3.76017049E-08
  0.182500005      -3.24042571E-09
  0.185000002      -4.22857269E-08
  0.187500000      -1.49481565E-08
  0.189999998       2.58791228E-08
  0.192499995       2.47861043E-09
  0.194999993      -4.74438409E-08
  0.197500005      -3.94511446E-08
  0.200000003       4.40692927E-10
  0.202500001      -1.76890858E-08
  0.204999998      -8.27948767E-08
  0.207499996      -1.08978895E-07
  0.209999993      -9.47968175E-08
  0.212500006      -1.14577780E-07
  0.215000004      -1.84052794E-07
  0.217500001      -2.62521525E-07
  0.219999999      -3.44486295E-07
  0.222499996      -4.45495175E-07
  0.224999994      -5.61037950E-07
  0.227500007      -7.13518489E-07
  0.230000004      -9.53649135E-07
  0.232500002      -1.27425483E-06
  0.234999999      -1.62908714E-06
  0.237499997      -2.04546609E-06
  0.239999995      -2.59999138E-06
  0.242500007      -3.30536864E-06
  0.245000005      -4.14445549E-06
  0.247500002      -5.17298258E-06
  0.250000000      -6.47306297E-06
  0.252499998      -8.05828404E-06
  0.254999995      -9.92469177E-06
  0.257499993      -1.21494668E-05
  0.259999990      -1.48622075E-05
  0.262499988      -1.81419600E-05
  0.264999986      -2.19968606E-05
  0.267500013      -2.64625596E-05
  0.270000011      -3.16871628E-05
  0.272500008      -3.78528384E-05
  0.275000006      -4.50367334E-05
  0.277500004      -5.32662561E-05
  0.280000001      -6.26822875E-05
  0.282499999      -7.34836649E-05
  0.284999996      -8.57609339E-05
  0.287499994      -9.95788796E-05
  0.289999992      -1.15134193E-04
  0.292499989      -1.32624569E-04
  0.294999987      -1.52090273E-04
  0.297500014      -1.73570355E-04
  0.300000012      -1.97242829E-04
  0.302500010      -2.23268420E-04
  0.305000007      -2.51690944E-04
  0.307500005      -2.82562658E-04
  0.310000002      -3.15964862E-04
  0.312500000      -3.51908995E-04
  0.314999998      -3.90391506E-04
  0.317499995      -4.31460707E-04
  0.319999993      -4.75110195E-04
  0.322499990      -5.21256647E-04
  0.324999988      -5.69864118E-04
  0.327499986      -6.20901759E-04
  0.330000013      -6.74223586E-04
  0.332500011      -7.29675347E-04
  0.335000008      -7.87208322E-04
  0.337500006      -8.46735958E-04
  0.340000004      -9.08056274E-04
  0.342500001      -9.71012458E-04
  0.344999999      -1.03553594E-03
  0.347499996      -1.10149710E-03
  0.349999994      -1.16869155E-03
  0.352499992      -1.23695412E-03
  0.354999989      -1.30618957E-03
  0.357499987      -1.37635448E-03
  0.360000014      -1.44739100E-03
  0.362500012      -1.51911797E-03
  0.365000010      -1.59131212E-03
  0.367500007      -1.66392699E-03
  0.370000005      -1.73700438E-03
  0.372500002      -1.81041681E-03
  0.375000000      -1.88398268E-03
  0.377499998      -1.95766357E-03
  0.379999995      -2.03135470E-03
  0.382499993      -2.10475898E-03
  0.384999990      -2.17770436E-03
  0.387499988      -2.25018570E-03
  0.389999986      -2.32195575E-03
  0.392500013      -2.39252695E-03
  0.395000011      -2.46156659E-03
  0.397500008      -2.52883718E-03
  0.400000006      -2.59385211E-03
  0.402500004      -2.65600556E-03
  0.405000001      -2.71479855E-03
  0.407499999      -2.76967487E-03
  0.409999996      -2.81990482E-03
  0.412499994      -2.86471075E-03
  0.414999992      -2.90332339E-03
  0.417499989      -2.93495040E-03
  0.419999987      -2.95880856E-03
  0.422500014      -2.97405082E-03
  0.425000012      -2.97973678E-03
  0.427500010      -2.97502824E-03
  0.430000007      -2.95924325E-03
  0.432500005      -2.93166470E-03
  0.435000002      -2.89158034E-03
  0.437500000      -2.83847726E-03
  0.439999998      -2.77198525E-03
  0.442499995      -2.69174506E-03
  0.444999993      -2.59758253E-03
  0.447499990      -2.48966599E-03
  0.449999988      -2.36833096E-03
  0.452499986      -2.23395089E-03
  0.455000013      -2.08711112E-03
  0.457500011      -1.92872155E-03
  0.460000008      -1.75986975E-03
  0.462500006      -1.58177980E-03
  0.465000004      -1.39589235E-03
  0.467500001      -1.20379776E-03
  0.469999999      -1.00713572E-03
  0.472499996      -8.07699165E-04
  0.474999994      -6.07420574E-04
  0.477499992      -4.08197113E-04
  0.479999989      -2.11892097E-04
  0.482499987      -2.03846175E-05
  0.485000014       1.64562342E-04
  0.487500012       3.41335137E-04
  0.490000010       5.08378493E-04
  0.492500007       6.64311403E-04
  0.495000005       8.08033859E-04
  0.497500002       9.38608835E-04
  0.500000000       1.05525181E-03
  0.502499998       1.15750590E-03
  0.504999995       1.24518236E-03
  0.507499993       1.31821411E-03
  0.509999990       1.37677428E-03
  0.512499988       1.42132398E-03
  0.514999986       1.45244517E-03
  0.517499983       1.47085404E-03
  0.519999981       1.47747446E-03
  0.522499979       1.47329143E-03
  0.524999976       1.45932275E-03
  0.527499974       1.43676868E-03
  0.529999971       1.40687567E-03
  0.532500029       1.37070590E-03
  0.535000026       1.32931629E-03
  0.537500024       1.28390850E-03
  0.540000021       1.23557495E-03
  0.542500019       1.18518772E-03
  0.545000017       1.13360863E-03
  0.547500014       1.08169054E-03
  0.550000012       1.03009981E-03
  0.552500010       9.79372999E-04
  0.555000007       9.30014125E-04
  0.557500005       8.82421853E-04
  0.560000002       8.36893742E-04
  0.562500000       7.93672283E-04
  0.564999998       7.52842112E-04
  0.567499995       7.14379130E-04
  0.569999993       6.78349810E-04
  0.572499990       6.44810963E-04
  0.574999988       6.13601645E-04
  0.577499986       5.84519992E-04
  0.579999983       5.57499472E-04
  0.582499981       5.32413716E-04
  0.584999979       5.09007950E-04
  0.587499976       4.87135141E-04
  0.589999974       4.66725207E-04
  0.592499971       4.47554165E-04
  0.595000029       4.29368491E-04
  0.597500026       4.12094116E-04
  0.600000024       3.95681156E-04
  0.602500021       3.79968464E-04
  0.605000019       3.64834646E-04
  0.607500017       3.50233371E-04
  0.610000014       3.36085650E-04
  0.612500012       3.22317501E-04
  0.615000010       3.08913586E-04
  0.617500007       2.95823149E-04
  0.620000005       2.82998430E-04
  0.622500002       2.70480465E-04
  0.625000000       2.58271204E-04
  0.627499998       2.46277719E-04
  0.629999995       2.34510924E-04
  0.632499993       2.23072100E-04
  0.634999990       2.11914725E-04
  0.637499988       2.00916722E-04
  0.639999986       1.90138177E-04
  0.642499983       1.79686773E-04
  0.644999981       1.69487757E-04
  0.647499979       1.59461648E-04
  0.649999976       1.49674044E-04
  0.652499974       1.40144388E-04
  0.654999971       1.30799570E-04
  0.657500029       1.21658661E-04
  0.660000026       1.12782727E-04
  0.662500024       1.04126222E-04
  0.665000021       9.56371732E-05
  0.667500019       8.73449171E-05
  0.670000017       7.92534775E-05
  0.672500014       7.13574627E-05
  0.675000012       6.37171470E-05
  0.677500010       5.63242174E-05
  0.680000007       4.90652019E-05
  0.682500005       4.19588869E-05
  0.685000002       3.51412673E-05
  0.687500000       2.85878232E-05
  0.689999998       2.21704431E-05
  0.692499995       1.59195533E-05
  0.694999993       9.92185687E-06
  0.697499990       4.10931079E-06
  0.699999988      -1.58530088E-06
  0.702499986      -7.09605865E-06
  0.704999983      -1.24040953E-05
  0.707499981      -1.76063113E-05
  0.709999979      -2.27311775E-05
  0.712499976      -2.77319450E-05
  0.714999974      -3.26211120E-05
  0.717499971      -3.74299125E-05
  0.720000029      -4.21632722E-05
  0.722500026      -4.68742001E-05
  0.725000024      -5.16056207E-05
  0.727500021      -5.62964669E-05
  0.730000019      -6.09323943E-05
  0.732500017      -6.56206030E-05
  0.735000014      -7.03738187E-05
  0.737500012      -7.50942127E-05
  0.740000010      -7.98236433E-05
  0.742500007      -8.46825278E-05
  0.745000005      -8.96118145E-05
  0.747500002      -9.45074498E-05
  0.750000000      -9.94557486E-05
  0.752499998      -1.04549123E-04
  0.754999995      -1.09704837E-04
  0.757499993      -1.14855895E-04
  0.759999990      -1.20060780E-04
  0.762499988      -1.25348932E-04
  0.764999986      -1.30696164E-04
  0.767499983      -1.36096685E-04
  0.769999981      -1.41527693E-04
  0.772499979      -1.46956634E-04
  0.774999976      -1.52400360E-04
  0.777499974      -1.57854913E-04
  0.779999971      -1.63265620E-04
  0.782500029      -1.68664876E-04
  0.785000026      -1.74110668E-04
  0.787500024      -1.79507566E-04
  0.790000021      -1.84755831E-04
  0.792500019      -1.89933737E-04
  0.795000017      -1.95106346E-04
  0.797500014      -2.00178780E-04
  0.800000012      -2.05098826E-04
  0.802500010      -2.09936275E-04
  0.805000007      -2.14701315E-04
  0.807500005      -2.19316396E-04
  0.810000002      -2.23762094E-04
  0.812500000      -2.28094621E-04
  0.814999998      -2.32346807E-04
  0.817499995      -2.36485896E-04
  0.819999993      -2.40455061E-04
  0.822499990      -2.44257302E-04
  0.824999988      -2.47969059E-04
  0.827499986      -2.51618942E-04
  0.829999983      -2.55124178E-04
  0.832499981      -2.58446002E-04
  0.834999979      -2.61684821E-04
  0.837499976      -2.64883711E-04
  0.839999974      -2.67926807E-04
  0.842499971      -2.70790508E-04
  0.845000029      -2.73614598E-04
  0.847500026      -2.76407663E-04
  0.850000024      -2.79026630E-04
  0.852500021      -2.81502056E-04
  0.855000019      -2.83988018E-04
  0.857500017      -2.86429888E-04
  0.860000014      -2.88672163E-04
  0.862500012      -2.90761061E-04
  0.865000010      -2.92823825E-04
  0.867500007      -2.94846192E-04
  0.870000005      -2.96757033E-04
  0.872500002      -2.98545347E-04
  0.875000000      -3.00243264E-04
  0.877499998      -3.01895634E-04
  0.879999995      -3.03501438E-04
  0.882499993      -3.04985995E-04
  0.884999990      -3.06346978E-04
  0.887499988      -3.07677983E-04
  0.889999986      -3.08964751E-04
  0.892499983      -3.10114177E-04
  0.894999981      -3.11182317E-04
  0.897499979      -3.12276592E-04
  0.899999976      -3.13335710E-04
  0.902499974      -3.14271514E-04
  0.904999971      -3.15133075E-04
  0.907500029      -3.15979909E-04
  0.910000026      -3.16802994E-04
  0.912500024      -3.17585276E-04
  0.915000021      -3.18297360E-04
  0.917500019      -3.18936392E-04
  0.920000017      -3.19573155E-04
  0.922500014      -3.20225139E-04
  0.925000012      -3.20809020E-04
  0.927500010      -3.21329106E-04
  0.930000007      -3.21878615E-04
  0.932500005      -3.22418404E-04
  0.935000002      -3.22857435E-04
  0.937500000      -3.23255779E-04
  0.939999998      -3.23688815E-04
  0.942499995      -3.24090419E-04
  0.944999993      -3.24435154E-04
  0.947499990      -3.24798631E-04
  0.949999988      -3.25156696E-04
  0.952499986      -3.25428322E-04
  0.954999983      -3.25666799E-04
  0.957499981      -3.25935456E-04
  0.959999979      -3.26176203E-04
  0.962499976      -3.26388777E-04
  0.964999974      -3.26650013E-04
  0.967499971      -3.26907204E-04
  0.970000029      -3.27071553E-04
  0.972500026      -3.27227172E-04
  0.975000024      -3.27452697E-04
  0.977500021      -3.27656307E-04
  0.980000019      -3.27808026E-04
  0.982500017      -3.28006892E-04
  0.985000014      -3.28242197E-04
  0.987500012      -3.28428985E-04
  0.990000010      -3.28616472E-04
  0.992500007      -3.28849215E-04
  0.995000005      -3.29045113E-04
  0.997500002      -3.29209317E-04
   1.00000000      -3.29442439E-04
   1.00250006      -3.29694070E-04
   1.00500000      -3.29879287E-04
   1.00750005      -3.30079522E-04
   1.00999999      -3.30324838E-04
   1.01250005      -3.30509909E-04
   1.01499999      -3.30676878E-04
   1.01750004      -3.30939307E-04
   1.01999998      -3.31192481E-04
   1.02250004      -3.31345014E-04
   1.02499998      -3.31524789E-04
   1.02750003      -3.31751304E-04
   1.02999997      -3.31896474E-04
   1.03250003      -3.32050055E-04
   1.03499997      -3.32337688E-04
   1.03750002      -3.32581374E-04
   1.03999996      -3.32666445E-04
   1.04250002      -3.32803145E-04
   1.04499996      -3.33061907E-04
   1.04750001      -3.33240139E-04
   1.04999995      -3.33330187E-04
   1.05250001      -3.33500735E-04
   1.05499995      -3.33704636E-04
   1.05750000      -3.33830394E-04
   1.05999994      -3.33966687E-04
   1.06250000      -3.34167795E-04
   1.06500006      -3.34320066E-04
   1.06750000      -3.34400742E-04
   1.07000005      -3.34502663E-04
   1.07249999      -3.34625132E-04
   1.07500005      -3.34734330E-04
   1.07749999      -3.34859767E-04
   1.08000004      -3.34964367E-04
   1.08249998      -3.34992888E-04
   1.08500004      -3.35044926E-04
   1.08749998      -3.35187826E-04
   1.09000003      -3.35278688E-04
   1.09249997      -3.35260615E-04
   1.09500003      -3.35292367E-04
   1.09749997      -3.35393444E-04
   1.10000002      -3.35416698E-04
   1.10249996      -3.35412653E-04
   1.10500002      -3.35504767E-04
   1.10749996      -3.35563585E-04
   1.11000001      -3.35495570E-04
   1.11249995      -3.35487392E-04
   1.11500001      -3.35592922E-04
   1.11749995      -3.35612945E-04
   1.12000000      -3.35549150E-04
   1.12249994      -3.35571560E-04
   1.12500000      -3.35618999E-04
   1.12750006      -3.35571094E-04
   1.13000000      -3.35521676E-04
   1.13250005      -3.35532677E-04
   1.13499999      -3.35533725E-04
   1.13750005      -3.35532503E-04
   1.13999999      -3.35520221E-04
   1.14250004      -3.35405464E-04
   1.14499998      -3.35279765E-04
   1.14750004      -3.35296412E-04
   1.14999998      -3.35301476E-04
   1.15250003      -3.35134770E-04
   1.15499997      -3.34992161E-04
   1.15750003      -3.34999262E-04
   1.15999997      -3.34951590E-04
   1.16250002      -3.34778888E-04
   1.16499996      -3.34656710E-04
   1.16750002      -3.34596727E-04
   1.16999996      -3.34478507E-04
   1.17250001      -3.34332755E-04
   1.17499995      -3.34222423E-04
   1.17750001      -3.34113225E-04
   1.17999995      -3.34001583E-04
   1.18250000      -3.33896867E-04
   1.18499994      -3.33746750E-04
   1.18750000      -3.33575561E-04
   1.19000006      -3.33479053E-04
   1.19250000      -3.33400647E-04
   1.19500005      -3.33223987E-04
   1.19749999      -3.33026343E-04
   1.20000005      -3.32925410E-04
   1.20249999      -3.32843920E-04
   1.20500004      -3.32680909E-04
   1.20749998      -3.32499214E-04
   1.21000004      -3.32358148E-04
   1.21249998      -3.32203752E-04
   1.21500003      -3.32021591E-04
   1.21749997      -3.31860967E-04
   1.22000003      -3.31706426E-04
   1.22249997      -3.31524265E-04
   1.22500002      -3.31341114E-04
   1.22749996      -3.31154966E-04
   1.23000002      -3.30939423E-04
   1.23249996      -3.30746348E-04
   1.23500001      -3.30594514E-04
   1.23749995      -3.30395647E-04
   1.24000001      -3.30156414E-04
   1.24249995      -3.29974631E-04
   1.24500000      -3.29789123E-04
   1.24749994      -3.29518050E-04
   1.25000000      -3.29293689E-04
   1.25250006      -3.29170725E-04
   1.25500000      -3.28981463E-04
   1.25750005      -3.28727416E-04
   1.25999999      -3.28571012E-04
   1.26250005      -3.28433147E-04
   1.26499999      -3.28189053E-04
   1.26750004      -3.27975984E-04
   1.26999998      -3.27855087E-04
   1.27250004      -3.27677117E-04
   1.27499998      -3.27464484E-04
   1.27750003      -3.27331130E-04
   1.27999997      -3.27182002E-04
   1.28250003      -3.26972542E-04
   1.28499997      -3.26820416E-04
   1.28750002      -3.26675567E-04
   1.28999996      -3.26454727E-04
   1.29250002      -3.26304056E-04
   1.29499996      -3.26225505E-04
   1.29750001      -3.25996865E-04
   1.29999995      -3.25699773E-04
   1.30250001      -3.25578178E-04
   1.30499995      -3.25496716E-04
   1.30750000      -3.25267116E-04
   1.30999994      -3.25048255E-04
   1.31250000      -3.24926950E-04
   1.31500006      -3.24754714E-04
   1.31750000      -3.24546912E-04
   1.32000005      -3.24403401E-04
   1.32249999      -3.24241089E-04
   1.32500005      -3.24038585E-04
   1.32749999      -3.23897169E-04
   1.33000004      -3.23753891E-04
   1.33249998      -3.23541055E-04
   1.33500004      -3.23388434E-04
   1.33749998      -3.23302083E-04
   1.34000003      -3.23120912E-04
   1.34249997      -3.22907843E-04
   1.34500003      -3.22818756E-04
   1.34749997      -3.22747306E-04
   1.35000002      -3.22582258E-04
   1.35249996      -3.22440028E-04
   1.35500002      -3.22348496E-04
   1.35749996      -3.22193373E-04
   1.36000001      -3.22024280E-04
   1.36249995      -3.21942440E-04
   1.36500001      -3.21852945E-04
   1.36749995      -3.21683707E-04
   1.37000000      -3.21543630E-04
   1.37249994      -3.21470812E-04
   1.37500000      -3.21374857E-04
   1.37750006      -3.21257015E-04
   1.38000000      -3.21166444E-04
   1.38250005      -3.21050087E-04
   1.38499999      -3.20901920E-04
   1.38750005      -3.20822670E-04
   1.38999999      -3.20783642E-04
   1.39250004      -3.20662890E-04
   1.39499998      -3.20517109E-04
   1.39750004      -3.20444087E-04
   1.39999998      -3.20343999E-04
   1.40250003      -3.20165331E-04
   1.40499997      -3.20055929E-04
   1.40750003      -3.20020306E-04
   1.40999997      -3.19884275E-04
   1.41250002      -3.19690153E-04
   1.41499996      -3.19603685E-04
   1.41750002      -3.19549348E-04
   1.41999996      -3.19407089E-04
   1.42250001      -3.19253188E-04
   1.42499995      -3.19133775E-04
   1.42750001      -3.19010520E-04
   1.42999995      -3.18925886E-04
   1.43250000      -3.18854582E-04
   1.43499994      -3.18685255E-04
   1.43750000      -3.18526378E-04
   1.44000006      -3.18523118E-04
   1.44250000      -3.18499311E-04
   1.44500005      -3.18330887E-04
   1.44749999      -3.18219798E-04
   1.45000005      -3.18204635E-04
   1.45249999      -3.18093487E-04
   1.45500004      -3.17961356E-04
   1.45749998      -3.17970203E-04
   1.46000004      -3.17963335E-04
   1.46249998      -3.17843194E-04
   1.46500003      -3.17788712E-04
   1.46749997      -3.17808124E-04
   1.47000003      -3.17749364E-04
   1.47249997      -3.17675003E-04
   1.47500002      -3.17655882E-04
   1.47749996      -3.17587954E-04
   1.48000002      -3.17507103E-04
   1.48249996      -3.17524362E-04
   1.48500001      -3.17517639E-04
   1.48749995      -3.17406812E-04
   1.49000001      -3.17348662E-04
   1.49249995      -3.17355618E-04
   1.49500000      -3.17290338E-04
   1.49749994      -3.17232218E-04
   1.50000000      -3.17277358E-04
   1.50250006      -3.17277503E-04
   1.50500000      -3.17183207E-04
   1.50750005      -3.17158469E-04
   1.50999999      -3.17206752E-04
   1.51250005      -3.17197933E-04
   1.51499999      -3.17171041E-04
   1.51750004      -3.17196274E-04
   1.51999998      -3.17212660E-04
   1.52250004      -3.17213417E-04
   1.52499998      -3.17253754E-04
   1.52750003      -3.17288330E-04
   1.52999997      -3.17285158E-04
   1.53250003      -3.17314116E-04
   1.53499997      -3.17367667E-04
   1.53750002      -3.17376514E-04
   1.53999996      -3.17396625E-04
   1.54250002      -3.17490660E-04
   1.54499996      -3.17555299E-04
   1.54750001      -3.17521946E-04
   1.54999995      -3.17503698E-04
   1.55250001      -3.17560422E-04
   1.55499995      -3.17595666E-04
   1.55750000      -3.17577826E-04
   1.55999994      -3.17578117E-04
   1.56250000      -3.17595113E-04
   1.56500006      -3.17593425E-04
   1.56750000      -3.17610480E-04
   1.57000005      -3.17649741E-04
   1.57249999      -3.17654689E-04
   1.57500005      -3.17654980E-04
   1.57749999      -3.17698985E-04
   1.58000004      -3.17715749E-04
   1.58249998      -3.17680649E-04
   1.58500004      -3.17705795E-04
   1.58749998      -3.17791768E-04
   1.59000003      -3.17823200E-04
   1.59249997      -3.17845028E-04
   1.59500003      -3.17948172E-04
   1.59749997      -3.18028178E-04
   1.60000002      -3.18020000E-04
   1.60249996      -3.18063627E-04
   1.60500002      -3.18191363E-04
   1.60749996      -3.18262697E-04
   1.61000001      -3.18288308E-04
   1.61249995      -3.18383391E-04
   1.61500001      -3.18499922E-04
   1.61749995      -3.18565813E-04
   1.62000000      -3.18643870E-04
   1.62249994      -3.18743289E-04
   1.62500000      -3.18786129E-04
   1.62750006      -3.18799401E-04
   1.63000000      -3.18864768E-04
   1.63250005      -3.18969309E-04
   1.63499999      -3.19074577E-04
   1.63750005      -3.19160928E-04
   1.63999999      -3.19198443E-04
   1.64250004      -3.19234416E-04
   1.64499998      -3.19351879E-04
   1.64750004      -3.19471874E-04
   1.64999998      -3.19490529E-04
   1.65250003      -3.19532293E-04
   1.65499997      -3.19698738E-04
   1.65750003      -3.19812098E-04
   1.65999997      -3.19783430E-04
   1.66250002      -3.19839863E-04
   1.66499996      -3.20059684E-04
   1.66750002      -3.20188439E-04
   1.66999996      -3.20154504E-04
   1.67250001      -3.20201681E-04
   1.67499995      -3.20377963E-04
   1.67750001      -3.20471678E-04
   1.67999995      -3.20464227E-04
   1.68250000      -3.20517487E-04
   1.68499994      -3.20620195E-04
   1.68750000      -3.20669496E-04
   1.69000006      -3.20697436E-04
   1.69250000      -3.20741819E-04
   1.69500005      -3.20755527E-04
   1.69749999      -3.20751016E-04
   1.70000005      -3.20778636E-04
   1.70249999      -3.20814812E-04
   1.70500004      -3.20846448E-04
   1.70749998      -3.20891588E-04
   1.71000004      -3.20897438E-04
   1.71249998      -3.20850348E-04
   1.71500003      -3.20863590E-04
   1.71749997      -3.20947962E-04
   1.72000003      -3.20974679E-04
   1.72249997      -3.20965133E-04
   1.72500002      -3.21038911E-04
   1.72749996      -3.21129919E-04
   1.73000002      -3.21150175E-04
   1.73249996      -3.21205938E-04
   1.73500001      -3.21329164E-04
   1.73749995      -3.21376545E-04
   1.74000001      -3.21376050E-04
   1.74249995      -3.21498723E-04
   1.74500000      -3.21671716E-04
   1.74749994      -3.21718457E-04
   1.75000000      -3.21727857E-04
   1.75250006      -3.21838306E-04
   1.75500000      -3.21951666E-04
   1.75750005      -3.21987143E-04
   1.75999999      -3.22045147E-04
   1.76250005      -3.22146981E-04
   1.76499999      -3.22203152E-04
   1.76750004      -3.22243810E-04
   1.76999998      -3.22334410E-04
   1.77250004      -3.22405103E-04
   1.77499998      -3.22416221E-04
   1.77750003      -3.22447770E-04
   1.77999997      -3.22516775E-04
   1.78250003      -3.22572712E-04
   1.78499997      -3.22632084E-04
   1.78750002      -3.22702603E-04
   1.78999996      -3.22744687E-04
   1.79250002      -3.22792883E-04
   1.79499996      -3.22878623E-04
   1.79750001      -3.22927866E-04
   1.79999995      -3.22951091E-04
   1.80250001      -3.23055865E-04
   1.80499995      -3.23165936E-04
   1.80750000      -3.23154090E-04
   1.80999994      -3.23156302E-04
   1.81250000      -3.23292858E-04
   1.81500006      -3.23393208E-04
   1.81750000      -3.23375280E-04
   1.82000005      -3.23407236E-04
   1.82249999      -3.23505781E-04
   1.82500005      -3.23529937E-04
   1.82749999      -3.23527493E-04
   1.83000004      -3.23594490E-04
   1.83249998      -3.23656015E-04
   1.83500004      -3.23677552E-04
   1.83749998      -3.23714630E-04
   1.84000003      -3.23730521E-04
   1.84249997      -3.23712884E-04
   1.84500003      -3.23746819E-04
   1.84749997      -3.23788321E-04
   1.85000002      -3.23753338E-04
   1.85249996      -3.23757413E-04
   1.85500002      -3.23859247E-04
   1.85749996      -3.23896325E-04
   1.86000001      -3.23857617E-04
   1.86249995      -3.23906308E-04
   1.86500001      -3.23981832E-04
   1.86749995      -3.23944027E-04
   1.87000000      -3.23914253E-04
   1.87249994      -3.23996064E-04
   1.87500000      -3.24051769E-04
   1.87750006      -3.24036984E-04
   1.88000000      -3.24073451E-04
   1.88250005      -3.24138498E-04
   1.88499999      -3.24128021E-04
   1.88750005      -3.24092165E-04
   1.88999999      -3.24104447E-04
   1.89250004      -3.24129796E-04
   1.89499998      -3.24141467E-04
   1.89750004      -3.24148132E-04
   1.89999998      -3.24143912E-04
   1.90250003      -3.24150344E-04
   1.90499997      -3.24174354E-04
   1.90750003      -3.24151566E-04
   1.90999997      -3.24084365E-04
   1.91250002      -3.24078661E-04
   1.91499996      -3.24130116E-04
   1.91750002      -3.24122753E-04
   1.91999996      -3.24067485E-04
   1.92250001      -3.24063440E-04
   1.92499995      -3.24085355E-04
   1.92750001      -3.24068853E-04
   1.92999995      -3.24061344E-04
   1.93250000      -3.24090623E-04
   1.93499994      -3.24079214E-04
   1.93750000      -3.24017747E-04
   1.94000006      -3.23997054E-04
   1.94250000      -3.24022054E-04
   1.94500005      -3.24019464E-04
   1.94749999      -3.23999295E-04
   1.95000005      -3.24011460E-04
   1.95249999      -3.24026536E-04
   1.95500004      -3.24008433E-04
   1.95749998      -3.23981018E-04
   1.96000004      -3.23957094E-04
   1.96249998      -3.23930697E-04
   1.96500003      -3.23910848E-04
   1.96749997      -3.23880638E-04
   1.97000003      -3.23830172E-04
   1.97249997      -3.23810265E-04
   1.97500002      -3.23822635E-04
   1.97749996      -3.23794346E-04
   1.98000002      -3.23739281E-04
   1.98249996      -3.23712709E-04
   1.98500001      -3.23661050E-04
   1.98749995      -3.23583256E-04
   1.99000001      -3.23595537E-04
   1.99249995      -3.23644490E-04
   1.99500000      -3.23568907E-04
   1.99749994      -3.23462184E-04
   2.00000000      -3.23481800E-04
   2.00250006      -3.23507353E-04
   2.00500011      -3.23438260E-04
   2.00749993      -3.23408167E-04
   2.00999999      -3.23427725E-04
   2.01250005      -3.23357497E-04
   2.01500010      -3.23258399E-04
   2.01749992      -3.23249405E-04
   2.01999998      -3.23250657E-04
   2.02250004      -3.23212473E-04
   2.02500010      -3.23195447E-04
   2.02749991      -3.23156244E-04
   2.02999997      -3.23074026E-04
   2.03250003      -3.23060551E-04
   2.03500009      -3.23077868E-04
   2.03749990      -3.22986860E-04
   2.03999996      -3.22879438E-04
   2.04250002      -3.22872249E-04
   2.04500008      -3.22844659E-04
   2.04749990      -3.22756532E-04
   2.04999995      -3.22741049E-04
   2.05250001      -3.22747161E-04
   2.05500007      -3.22653446E-04
   2.05749989      -3.22577951E-04
   2.05999994      -3.22601700E-04
   2.06250000      -3.22571956E-04
   2.06500006      -3.22463486E-04
   2.06750011      -3.22422566E-04
   2.06999993      -3.22420994E-04
   2.07249999      -3.22357548E-04
   2.07500005      -3.22308013E-04
   2.07750010      -3.22314649E-04
   2.07999992      -3.22265987E-04
   2.08249998      -3.22159147E-04
   2.08500004      -3.22106062E-04
   2.08750010      -3.22091568E-04
   2.08999991      -3.22045438E-04
   2.09249997      -3.22001055E-04
   2.09500003      -3.21968138E-04
   2.09750009      -3.21884727E-04
   2.09999990      -3.21790489E-04
   2.10249996      -3.21777916E-04
   2.10500002      -3.21782834E-04
   2.10750008      -3.21702013E-04
   2.10999990      -3.21604311E-04
   2.11249995      -3.21572239E-04
   2.11500001      -3.21530679E-04
   2.11750007      -3.21445608E-04
   2.11999989      -3.21415719E-04
   2.12249994      -3.21429805E-04
   2.12500000      -3.21367348E-04
   2.12750006      -3.21263011E-04
   2.13000011      -3.21222004E-04
   2.13249993      -3.21198022E-04
   2.13499999      -3.21136875E-04
   2.13750005      -3.21097905E-04
   2.14000010      -3.21068423E-04