  -10.00000      0.0000000E+00
  -9.990000      0.0000000E+00
  -9.980000      0.0000000E+00
  -9.970000      0.0000000E+00
  -9.960000      0.0000000E+00
  -9.950000      0.0000000E+00
  -9.940000      0.0000000E+00
  -9.930000      0.0000000E+00
  -9.920000      0.0000000E+00
  -9.910000      0.0000000E+00
  -9.900000      0.0000000E+00
  -9.890000      0.0000000E+00
  -9.880000      0.0000000E+00
  -9.870000      0.0000000E+00
  -9.860000      0.0000000E+00
  -9.850000      0.0000000E+00
  -9.840000      0.0000000E+00
  -9.830000      0.0000000E+00
  -9.820000      0.0000000E+00
  -9.810000      0.0000000E+00
  -9.800000      0.0000000E+00
  -9.790000      0.0000000E+00
  -9.780000      0.0000000E+00
  -9.770000      0.0000000E+00
  -9.760000      0.0000000E+00
  -9.750000      0.0000000E+00
  -9.740000      0.0000000E+00
  -9.730000      0.0000000E+00
  -9.720000      0.0000000E+00
  -9.710000      0.0000000E+00
  -9.700000      0.0000000E+00
  -9.690000      0.0000000E+00
  -9.680000      0.0000000E+00
  -9.670000      0.0000000E+00
  -9.660000      0.0000000E+00
  -9.650000      0.0000000E+00
  -9.640000      0.0000000E+00
  -9.630000      0.0000000E+00
  -9.620000      0.0000000E+00
  -9.610000      0.0000000E+00
  -9.600000      0.0000000E+00
  -9.590000      0.0000000E+00
  -9.580000      0.0000000E+00
  -9.570000      0.0000000E+00
  -9.560000      0.0000000E+00
  -9.550000      0.0000000E+00
  -9.540000      0.0000000E+00
  -9.530000      0.0000000E+00
  -9.520000      0.0000000E+00
  -9.510000      0.0000000E+00
  -9.500000      0.0000000E+00
  -9.490000      0.0000000E+00
  -9.480000      0.0000000E+00
  -9.470000      0.0000000E+00
  -9.460000      0.0000000E+00
  -9.450000      0.0000000E+00
  -9.440000      0.0000000E+00
  -9.430000      0.0000000E+00
  -9.420000      0.0000000E+00
  -9.410000      0.0000000E+00
  -9.400000      0.0000000E+00
  -9.390000      0.0000000E+00
  -9.380000      0.0000000E+00
  -9.370000      0.0000000E+00
  -9.360000      0.0000000E+00
  -9.350000      0.0000000E+00
  -9.340000      0.0000000E+00
  -9.330000      0.0000000E+00
  -9.320000      0.0000000E+00
  -9.310000      0.0000000E+00
  -9.300000      0.0000000E+00
  -9.290000      0.0000000E+00
  -9.280000      0.0000000E+00
  -9.270000      0.0000000E+00
  -9.260000      0.0000000E+00
  -9.250000      0.0000000E+00
  -9.240000      0.0000000E+00
  -9.230000      0.0000000E+00
  -9.220000      0.0000000E+00
  -9.210000      0.0000000E+00
  -9.200000      0.0000000E+00
  -9.190000      0.0000000E+00
  -9.180000      0.0000000E+00
  -9.170000      0.0000000E+00
  -9.160000      0.0000000E+00
  -9.150000      0.0000000E+00
  -9.140000      0.0000000E+00
  -9.130000      0.0000000E+00
  -9.120000      0.0000000E+00
  -9.110000      0.0000000E+00
  -9.100000      0.0000000E+00
  -9.090000      0.0000000E+00
  -9.080000      0.0000000E+00
  -9.070000      0.0000000E+00
  -9.060000      0.0000000E+00
  -9.050000      0.0000000E+00
  -9.040000      0.0000000E+00
  -9.030000      0.0000000E+00
  -9.020000      0.0000000E+00
  -9.010000      0.0000000E+00
  -9.000000      0.0000000E+00
  -8.990000      0.0000000E+00
  -8.980000      0.0000000E+00
  -8.970000      0.0000000E+00
  -8.960000      0.0000000E+00
  -8.950000      0.0000000E+00
  -8.940000      0.0000000E+00
  -8.930000      0.0000000E+00
  -8.920000      0.0000000E+00
  -8.910000      0.0000000E+00
  -8.900000      0.0000000E+00
  -8.890000      0.0000000E+00
  -8.880000      0.0000000E+00
  -8.870000      0.0000000E+00
  -8.860000      0.0000000E+00
  -8.850000      0.0000000E+00
  -8.840000      0.0000000E+00
  -8.830000      0.0000000E+00
  -8.820000      0.0000000E+00
  -8.810000      0.0000000E+00
  -8.800000      0.0000000E+00
  -8.790000      0.0000000E+00
  -8.780000      0.0000000E+00
  -8.770000      0.0000000E+00
  -8.760000      0.0000000E+00
  -8.750000      0.0000000E+00
  -8.740000      0.0000000E+00
  -8.730000      0.0000000E+00
  -8.720000      0.0000000E+00
  -8.710000      0.0000000E+00
  -8.700000      0.0000000E+00
  -8.690000      0.0000000E+00
  -8.680000      0.0000000E+00
  -8.670000      0.0000000E+00
  -8.660000      0.0000000E+00
  -8.650000      0.0000000E+00
  -8.640000      0.0000000E+00
  -8.630000      0.0000000E+00
  -8.620000      0.0000000E+00
  -8.610000      0.0000000E+00
  -8.600000      0.0000000E+00
  -8.590000      0.0000000E+00
  -8.580000      0.0000000E+00
  -8.570000      0.0000000E+00
  -8.560000      0.0000000E+00
  -8.550000      0.0000000E+00
  -8.540000      0.0000000E+00
  -8.530000      0.0000000E+00
  -8.520000      0.0000000E+00
  -8.510000      0.0000000E+00
  -8.500000      0.0000000E+00
  -8.490000      0.0000000E+00
  -8.480000      0.0000000E+00
  -8.470000      0.0000000E+00
  -8.460000      0.0000000E+00
  -8.450000      0.0000000E+00
  -8.440000      0.0000000E+00
  -8.430000      0.0000000E+00
  -8.420000      0.0000000E+00
  -8.410000      0.0000000E+00
  -8.400000      0.0000000E+00
  -8.390000      0.0000000E+00
  -8.380000      0.0000000E+00
  -8.370000      0.0000000E+00
  -8.360000      0.0000000E+00
  -8.350000      0.0000000E+00
  -8.340000      0.0000000E+00
  -8.330000      0.0000000E+00
  -8.320000      0.0000000E+00
  -8.310000      0.0000000E+00
  -8.300000      0.0000000E+00
  -8.290000      0.0000000E+00
  -8.280000      0.0000000E+00
  -8.270000      0.0000000E+00
  -8.260000      0.0000000E+00
  -8.250000      0.0000000E+00
  -8.240000      0.0000000E+00
  -8.230000      0.0000000E+00
  -8.220000      0.0000000E+00
  -8.210000      0.0000000E+00
  -8.200000      0.0000000E+00
  -8.190000      0.0000000E+00
  -8.180000      0.0000000E+00
  -8.170000      0.0000000E+00
  -8.160000      0.0000000E+00
  -8.150000      0.0000000E+00
  -8.140000      0.0000000E+00
  -8.130000      0.0000000E+00
  -8.120000      0.0000000E+00
  -8.110000      0.0000000E+00
  -8.100000      0.0000000E+00
  -8.090000      0.0000000E+00
  -8.080000      0.0000000E+00
  -8.070000      0.0000000E+00
  -8.060000      0.0000000E+00
  -8.050000      0.0000000E+00
  -8.040000      0.0000000E+00
  -8.030000      0.0000000E+00
  -8.020000      0.0000000E+00
  -8.010000      0.0000000E+00
  -8.000000      0.0000000E+00
  -7.990000      0.0000000E+00
  -7.980000      0.0000000E+00
  -7.970000      0.0000000E+00
  -7.960000      0.0000000E+00
  -7.950000      0.0000000E+00
  -7.940000      0.0000000E+00
  -7.930000      0.0000000E+00
  -7.920000      0.0000000E+00
  -7.910000      0.0000000E+00
  -7.900000      0.0000000E+00
  -7.890000      0.0000000E+00
  -7.880000      0.0000000E+00
  -7.870000      0.0000000E+00
  -7.860000      0.0000000E+00
  -7.850000      0.0000000E+00
  -7.840000      0.0000000E+00
  -7.830000      0.0000000E+00
  -7.820000      0.0000000E+00
  -7.810000      0.0000000E+00
  -7.800000      0.0000000E+00
  -7.790000      0.0000000E+00
  -7.780000      0.0000000E+00
  -7.770000      0.0000000E+00
  -7.760000      0.0000000E+00
  -7.750000      0.0000000E+00
  -7.740000      0.0000000E+00
  -7.730000      0.0000000E+00
  -7.720000      0.0000000E+00
  -7.710000      0.0000000E+00
  -7.700000      0.0000000E+00
  -7.690000      0.0000000E+00
  -7.680000      0.0000000E+00
  -7.670000      0.0000000E+00
  -7.660000      0.0000000E+00
  -7.650000      0.0000000E+00
  -7.640000      0.0000000E+00
  -7.630000      0.0000000E+00
  -7.620000      0.0000000E+00
  -7.610000      0.0000000E+00
  -7.600000      0.0000000E+00
  -7.590000      0.0000000E+00
  -7.580000      0.0000000E+00
  -7.570000      0.0000000E+00
  -7.560000      0.0000000E+00
  -7.550000      0.0000000E+00
  -7.540000      0.0000000E+00
  -7.530000      0.0000000E+00
  -7.520000      0.0000000E+00
  -7.510000      0.0000000E+00
  -7.500000      0.0000000E+00
  -7.490000      0.0000000E+00
  -7.480000      0.0000000E+00
  -7.470000      0.0000000E+00
  -7.460000      0.0000000E+00
  -7.450000      0.0000000E+00
  -7.440000      0.0000000E+00
  -7.430000      0.0000000E+00
  -7.420000      0.0000000E+00
  -7.410000      0.0000000E+00
  -7.400000      0.0000000E+00
  -7.390000      0.0000000E+00
  -7.380000      0.0000000E+00
  -7.370000      0.0000000E+00
  -7.360000      0.0000000E+00
  -7.350000      0.0000000E+00
  -7.340000      0.0000000E+00
  -7.330000      0.0000000E+00
  -7.320000      0.0000000E+00
  -7.310000      0.0000000E+00
  -7.300000      0.0000000E+00
  -7.290000      0.0000000E+00
  -7.280000      0.0000000E+00
  -7.270000      0.0000000E+00
  -7.260000      0.0000000E+00
  -7.250000      0.0000000E+00
  -7.240000      0.0000000E+00
  -7.230000      0.0000000E+00
  -7.220000      0.0000000E+00
  -7.210000      0.0000000E+00
  -7.200000      0.0000000E+00
  -7.190000      0.0000000E+00
  -7.180000      0.0000000E+00
  -7.170000      0.0000000E+00
  -7.160000      0.0000000E+00
  -7.150000      0.0000000E+00
  -7.140000      0.0000000E+00
  -7.130000      0.0000000E+00
  -7.120000      0.0000000E+00
  -7.110000      0.0000000E+00
  -7.100000      0.0000000E+00
  -7.090000      0.0000000E+00
  -7.080000      0.0000000E+00
  -7.070000      0.0000000E+00
  -7.060000      0.0000000E+00
  -7.050000      0.0000000E+00
  -7.040000      0.0000000E+00
  -7.030000      0.0000000E+00
  -7.020000      0.0000000E+00
  -7.010000      0.0000000E+00
  -7.000000      0.0000000E+00
  -6.990000      0.0000000E+00
  -6.980000      0.0000000E+00
  -6.970000      0.0000000E+00
  -6.960000      0.0000000E+00
  -6.950000      0.0000000E+00
  -6.940000      0.0000000E+00
  -6.930000      0.0000000E+00
  -6.920000      0.0000000E+00
  -6.910000      0.0000000E+00
  -6.900000      0.0000000E+00
  -6.890000      0.0000000E+00
  -6.880000      0.0000000E+00
  -6.870000      0.0000000E+00
  -6.860000      0.0000000E+00
  -6.850000      0.0000000E+00
  -6.840000      0.0000000E+00
  -6.830000      0.0000000E+00
  -6.820000      0.0000000E+00
  -6.810000      0.0000000E+00
  -6.800000      0.0000000E+00
  -6.790000      0.0000000E+00
  -6.780000      0.0000000E+00
  -6.770000      0.0000000E+00
  -6.760000      0.0000000E+00
  -6.750000      0.0000000E+00
  -6.740000      0.0000000E+00
  -6.730000      0.0000000E+00
  -6.720000      0.0000000E+00
  -6.710000      0.0000000E+00
  -6.700000      0.0000000E+00
  -6.690000      0.0000000E+00
  -6.680000      0.0000000E+00
  -6.670000      0.0000000E+00
  -6.660000      0.0000000E+00
  -6.650000      0.0000000E+00
  -6.640000      0.0000000E+00
  -6.630000      0.0000000E+00
  -6.620000      0.0000000E+00
  -6.610000      0.0000000E+00
  -6.600000      0.0000000E+00
  -6.590000      0.0000000E+00
  -6.580000      0.0000000E+00
  -6.570000      0.0000000E+00
  -6.560000      0.0000000E+00
  -6.550000      0.0000000E+00
  -6.540000      0.0000000E+00
  -6.530000      0.0000000E+00
  -6.520000      0.0000000E+00
  -6.510000      0.0000000E+00
  -6.500000      0.0000000E+00
  -6.490000      0.0000000E+00
  -6.480000      0.0000000E+00
  -6.470000      0.0000000E+00
  -6.460000      0.0000000E+00
  -6.450000      0.0000000E+00
  -6.440000      0.0000000E+00
  -6.430000      0.0000000E+00
  -6.420000      0.0000000E+00
  -6.410000      0.0000000E+00
  -6.400000      0.0000000E+00
  -6.390000      0.0000000E+00
  -6.380000      0.0000000E+00
  -6.370000      0.0000000E+00
  -6.360000      0.0000000E+00
  -6.350000      0.0000000E+00
  -6.340000      0.0000000E+00
  -6.330000      0.0000000E+00
  -6.320000      0.0000000E+00
  -6.310000      0.0000000E+00
  -6.300000      0.0000000E+00
  -6.290000      0.0000000E+00
  -6.280000      0.0000000E+00
  -6.270000      0.0000000E+00
  -6.260000      0.0000000E+00
  -6.250000      0.0000000E+00
  -6.240000      0.0000000E+00
  -6.230000      0.0000000E+00
  -6.220000      0.0000000E+00
  -6.210000      0.0000000E+00
  -6.200000      0.0000000E+00
  -6.190000      0.0000000E+00
  -6.180000      0.0000000E+00
  -6.170000      0.0000000E+00
  -6.160000      0.0000000E+00
  -6.150000      0.0000000E+00
  -6.140000      0.0000000E+00
  -6.130000      0.0000000E+00
  -6.120000      0.0000000E+00
  -6.110000      0.0000000E+00
  -6.100000      0.0000000E+00
  -6.090000      0.0000000E+00
  -6.080000      0.0000000E+00
  -6.070000      0.0000000E+00
  -6.060000      0.0000000E+00
  -6.050000      0.0000000E+00
  -6.040000      0.0000000E+00
  -6.030000      0.0000000E+00
  -6.020000      0.0000000E+00
  -6.010000      0.0000000E+00
  -6.000000      0.0000000E+00
  -5.990000      0.0000000E+00
  -5.980000      0.0000000E+00
  -5.970000      0.0000000E+00
  -5.960000      0.0000000E+00
  -5.950000      0.0000000E+00
  -5.940000      0.0000000E+00
  -5.930000      0.0000000E+00
  -5.920000      0.0000000E+00
  -5.910000      0.0000000E+00
  -5.900000      0.0000000E+00
  -5.890000      0.0000000E+00
  -5.880000      0.0000000E+00
  -5.870000      0.0000000E+00
  -5.860000      0.0000000E+00
  -5.850000      0.0000000E+00
  -5.840000      0.0000000E+00
  -5.830000      0.0000000E+00
  -5.820000      0.0000000E+00
  -5.810000      0.0000000E+00
  -5.800000      0.0000000E+00
  -5.790000      0.0000000E+00
  -5.780000      0.0000000E+00
  -5.770000      0.0000000E+00
  -5.760000      0.0000000E+00
  -5.750000      0.0000000E+00
  -5.740000      0.0000000E+00
  -5.730000      0.0000000E+00
  -5.720000      0.0000000E+00
  -5.710000      0.0000000E+00
  -5.700000      0.0000000E+00
  -5.690000      0.0000000E+00
  -5.680000      0.0000000E+00
  -5.670000      0.0000000E+00
  -5.660000      0.0000000E+00
  -5.650000      0.0000000E+00
  -5.640000      0.0000000E+00
  -5.630000      0.0000000E+00
  -5.620000      0.0000000E+00
  -5.610000      0.0000000E+00
  -5.600000      0.0000000E+00
  -5.590000      0.0000000E+00
  -5.580000      0.0000000E+00
  -5.570000      0.0000000E+00
  -5.560000      0.0000000E+00
  -5.550000      0.0000000E+00
  -5.540000      0.0000000E+00
  -5.530000      0.0000000E+00
  -5.520000      0.0000000E+00
  -5.510000      0.0000000E+00
  -5.500000      0.0000000E+00
  -5.490000      0.0000000E+00
  -5.480000      0.0000000E+00
  -5.470000      0.0000000E+00
  -5.460000      0.0000000E+00
  -5.450000      0.0000000E+00
  -5.440000      0.0000000E+00
  -5.430000      0.0000000E+00
  -5.420000      0.0000000E+00
  -5.410000      0.0000000E+00
  -5.400000      0.0000000E+00
  -5.390000      0.0000000E+00
  -5.380000      0.0000000E+00
  -5.370000      0.0000000E+00
  -5.360000      0.0000000E+00
  -5.350000      0.0000000E+00
  -5.340000      0.0000000E+00
  -5.330000      0.0000000E+00
  -5.320000      0.0000000E+00
  -5.310000      0.0000000E+00
  -5.300000      0.0000000E+00
  -5.290000      0.0000000E+00
  -5.280000      0.0000000E+00
  -5.270000      0.0000000E+00
  -5.260000      0.0000000E+00
  -5.250000      0.0000000E+00
  -5.240000      0.0000000E+00
  -5.230000      0.0000000E+00
  -5.220000      0.0000000E+00
  -5.210000      0.0000000E+00
  -5.200000      0.0000000E+00
  -5.190000      0.0000000E+00
  -5.180000      0.0000000E+00
  -5.170000      0.0000000E+00
  -5.160000      0.0000000E+00
  -5.150000      0.0000000E+00
  -5.140000      0.0000000E+00
  -5.130000      0.0000000E+00
  -5.120000      0.0000000E+00
  -5.110000      0.0000000E+00
  -5.100000      0.0000000E+00
  -5.090000      0.0000000E+00
  -5.080000      0.0000000E+00
  -5.070000      0.0000000E+00
  -5.060000      0.0000000E+00
  -5.050000      0.0000000E+00
  -5.040000      0.0000000E+00
  -5.030000      0.0000000E+00
  -5.020000      0.0000000E+00
  -5.010000      0.0000000E+00
  -5.000000      0.0000000E+00
  -4.990000      0.0000000E+00
  -4.980000      0.0000000E+00
  -4.970000      0.0000000E+00
  -4.960000      0.0000000E+00
  -4.950000      0.0000000E+00
  -4.940000      0.0000000E+00
  -4.930000      0.0000000E+00
  -4.920000      0.0000000E+00
  -4.910000      0.0000000E+00
  -4.900000      0.0000000E+00
  -4.890000      0.0000000E+00
  -4.880000      0.0000000E+00
  -4.870000      0.0000000E+00
  -4.860000      0.0000000E+00
  -4.850000      0.0000000E+00
  -4.840000      0.0000000E+00
  -4.830000      0.0000000E+00
  -4.820000      0.0000000E+00
  -4.810000      0.0000000E+00
  -4.800000      0.0000000E+00
  -4.790000      0.0000000E+00
  -4.780000      0.0000000E+00
  -4.770000      0.0000000E+00
  -4.760000      0.0000000E+00
  -4.750000      0.0000000E+00
  -4.740000      0.0000000E+00
  -4.730000      0.0000000E+00
  -4.720000      0.0000000E+00
  -4.710000      0.0000000E+00
  -4.700000      0.0000000E+00
  -4.690000      0.0000000E+00
  -4.680000      0.0000000E+00
  -4.670000      0.0000000E+00
  -4.660000      0.0000000E+00
  -4.650000      0.0000000E+00
  -4.640000      0.0000000E+00
  -4.630000      0.0000000E+00
  -4.620000      0.0000000E+00
  -4.610000      0.0000000E+00
  -4.600000      0.0000000E+00
  -4.590000      0.0000000E+00
  -4.580000      0.0000000E+00
  -4.570000      0.0000000E+00
  -4.560000      0.0000000E+00
  -4.550000      0.0000000E+00
  -4.540000      0.0000000E+00
  -4.530000      0.0000000E+00
  -4.520000      0.0000000E+00
  -4.510000      0.0000000E+00
  -4.500000      0.0000000E+00
  -4.490000      0.0000000E+00
  -4.480000      0.0000000E+00
  -4.470000      0.0000000E+00
  -4.460000      0.0000000E+00
  -4.450000      0.0000000E+00
  -4.440000      0.0000000E+00
  -4.430000      0.0000000E+00
  -4.420000      0.0000000E+00
  -4.410000      0.0000000E+00
  -4.400000      0.0000000E+00
  -4.390000      0.0000000E+00
  -4.380000      0.0000000E+00
  -4.370000      0.0000000E+00
  -4.360000      0.0000000E+00
  -4.350000      0.0000000E+00
  -4.340000      0.0000000E+00
  -4.330000      0.0000000E+00
  -4.320000      0.0000000E+00
  -4.310000      0.0000000E+00
  -4.300000      0.0000000E+00
  -4.290000      0.0000000E+00
  -4.280000      0.0000000E+00
  -4.270000      0.0000000E+00
  -4.260000      0.0000000E+00
  -4.250000      0.0000000E+00
  -4.240000      0.0000000E+00
  -4.230000      0.0000000E+00
  -4.220000      0.0000000E+00
  -4.210000      0.0000000E+00
  -4.200000      0.0000000E+00
  -4.190000      0.0000000E+00
  -4.180000      0.0000000E+00
  -4.170000      0.0000000E+00
  -4.160000      0.0000000E+00
  -4.150000      0.0000000E+00
  -4.140000      0.0000000E+00
  -4.130000      0.0000000E+00
  -4.120000      0.0000000E+00
  -4.110000      0.0000000E+00
  -4.100000      0.0000000E+00
  -4.090000      0.0000000E+00
  -4.080000      0.0000000E+00
  -4.070000      0.0000000E+00
  -4.060000      0.0000000E+00
  -4.050000      0.0000000E+00
  -4.040000      0.0000000E+00
  -4.030000      0.0000000E+00
  -4.020000      0.0000000E+00
  -4.010000      0.0000000E+00
  -4.000000      0.0000000E+00
  -3.990000      0.0000000E+00
  -3.980000      0.0000000E+00
  -3.970000      0.0000000E+00
  -3.960000      0.0000000E+00
  -3.950000      0.0000000E+00
  -3.940000      0.0000000E+00
  -3.930000      0.0000000E+00
  -3.920000      0.0000000E+00
  -3.910000      0.0000000E+00
  -3.900000      0.0000000E+00
  -3.890000      0.0000000E+00
  -3.880000      0.0000000E+00
  -3.870000      0.0000000E+00
  -3.860000      0.0000000E+00
  -3.850000      0.0000000E+00
  -3.840000      0.0000000E+00
  -3.830000      0.0000000E+00
  -3.820000      0.0000000E+00
  -3.810000      0.0000000E+00
  -3.800000      0.0000000E+00
  -3.790000      0.0000000E+00
  -3.780000      0.0000000E+00
  -3.770000      0.0000000E+00
  -3.760000      0.0000000E+00
  -3.750000      0.0000000E+00
  -3.740000      0.0000000E+00
  -3.730000      0.0000000E+00
  -3.720000      0.0000000E+00
  -3.710000      0.0000000E+00
  -3.700000      0.0000000E+00
  -3.690000      0.0000000E+00
  -3.680000      0.0000000E+00
  -3.670000      0.0000000E+00
  -3.660000      0.0000000E+00
  -3.650000      0.0000000E+00
  -3.640000      0.0000000E+00
  -3.630000      0.0000000E+00
  -3.620000      0.0000000E+00
  -3.610000      0.0000000E+00
  -3.600000      0.0000000E+00
  -3.590000      0.0000000E+00
  -3.580000      0.0000000E+00
  -3.570000      0.0000000E+00
  -3.560000      0.0000000E+00
  -3.550000      0.0000000E+00
  -3.540000      0.0000000E+00
  -3.530000      0.0000000E+00
  -3.520000      0.0000000E+00
  -3.510000      0.0000000E+00
  -3.500000      0.0000000E+00
  -3.490000      0.0000000E+00
  -3.480000      0.0000000E+00
  -3.470000      0.0000000E+00
  -3.460000      0.0000000E+00
  -3.450000      0.0000000E+00
  -3.440000      0.0000000E+00
  -3.430000      0.0000000E+00
  -3.420000      0.0000000E+00
  -3.410000      0.0000000E+00
  -3.400000      0.0000000E+00
  -3.390000      0.0000000E+00
  -3.380000      0.0000000E+00
  -3.370000      0.0000000E+00
  -3.360000      0.0000000E+00
  -3.350000      0.0000000E+00
  -3.340000      0.0000000E+00
  -3.330000      0.0000000E+00
  -3.320000      0.0000000E+00
  -3.310000      0.0000000E+00
  -3.300000      0.0000000E+00
  -3.290000      0.0000000E+00
  -3.280000      0.0000000E+00
  -3.270000      0.0000000E+00
  -3.260000      0.0000000E+00
  -3.250000      0.0000000E+00
  -3.240000      0.0000000E+00
  -3.230000      0.0000000E+00
  -3.220000      0.0000000E+00
  -3.210000      0.0000000E+00
  -3.200000      0.0000000E+00
  -3.190000      0.0000000E+00
  -3.180000      0.0000000E+00
  -3.170000      0.0000000E+00
  -3.160000      0.0000000E+00
  -3.150000      0.0000000E+00
  -3.140000      0.0000000E+00
  -3.130000      0.0000000E+00
  -3.120000      0.0000000E+00
  -3.110000      0.0000000E+00
  -3.100000      0.0000000E+00
  -3.090000      0.0000000E+00
  -3.080000      0.0000000E+00
  -3.070000      0.0000000E+00
  -3.060000      0.0000000E+00
  -3.050000      0.0000000E+00
  -3.040000      0.0000000E+00
  -3.030000      0.0000000E+00
  -3.020000      0.0000000E+00
  -3.010000      0.0000000E+00
  -3.000000      0.0000000E+00
  -2.990000      0.0000000E+00
  -2.980000      0.0000000E+00
  -2.970000      0.0000000E+00
  -2.960000      0.0000000E+00
  -2.950000      0.0000000E+00
  -2.940000      0.0000000E+00
  -2.930000      0.0000000E+00
  -2.920000      0.0000000E+00
  -2.910000      0.0000000E+00
  -2.900000      0.0000000E+00
  -2.890000      0.0000000E+00
  -2.880000      0.0000000E+00
  -2.870000      0.0000000E+00
  -2.860000      0.0000000E+00
  -2.850000      0.0000000E+00
  -2.840000      0.0000000E+00
  -2.830000      0.0000000E+00
  -2.820000      0.0000000E+00
  -2.810000      0.0000000E+00
  -2.800000      0.0000000E+00
  -2.790000      0.0000000E+00
  -2.780000      0.0000000E+00
  -2.770000      0.0000000E+00
  -2.760000      0.0000000E+00
  -2.750000      0.0000000E+00
  -2.740000      0.0000000E+00
  -2.730000      0.0000000E+00
  -2.720000      0.0000000E+00
  -2.710000      0.0000000E+00
  -2.700000      0.0000000E+00
  -2.690000      0.0000000E+00
  -2.680000      0.0000000E+00
  -2.670000      0.0000000E+00
  -2.660000      0.0000000E+00
  -2.650000      0.0000000E+00
  -2.640000      0.0000000E+00
  -2.630000      0.0000000E+00
  -2.620000      0.0000000E+00
  -2.610000      0.0000000E+00
  -2.600000      0.0000000E+00
  -2.590000      0.0000000E+00
  -2.580000      0.0000000E+00
  -2.570000      0.0000000E+00
  -2.560000      0.0000000E+00
  -2.550000      0.0000000E+00
  -2.540000      0.0000000E+00
  -2.530000      0.0000000E+00
  -2.520000      0.0000000E+00
  -2.510000      0.0000000E+00
  -2.500000      0.0000000E+00
  -2.490000      0.0000000E+00
  -2.480000      0.0000000E+00
  -2.470000      0.0000000E+00
  -2.460000      0.0000000E+00
  -2.450000      0.0000000E+00
  -2.440000      0.0000000E+00
  -2.430000      0.0000000E+00
  -2.420000      0.0000000E+00
  -2.410000      0.0000000E+00
  -2.400000      0.0000000E+00
  -2.390000      0.0000000E+00
  -2.380000      0.0000000E+00
  -2.370000      0.0000000E+00
  -2.360000      0.0000000E+00
  -2.350000      0.0000000E+00
  -2.340000      0.0000000E+00
  -2.330000      0.0000000E+00
  -2.320000      0.0000000E+00
  -2.310000      0.0000000E+00
  -2.300000      0.0000000E+00
  -2.290000      0.0000000E+00
  -2.280000      0.0000000E+00
  -2.270000      0.0000000E+00
  -2.260000      0.0000000E+00
  -2.250000      0.0000000E+00
  -2.240000      0.0000000E+00
  -2.230000      0.0000000E+00
  -2.220000      0.0000000E+00
  -2.210000      0.0000000E+00
  -2.200000      1.3528347E-38
  -2.190000      2.6960380E-38
  -2.180000      3.9522886E-38
  -2.170000      5.0333161E-38
  -2.160000      5.8566204E-38
  -2.150000      6.3935184E-38
  -2.140000      6.6373242E-38
  -2.130000      6.6199021E-38
  -2.120000      6.4416665E-38
  -2.110000      6.2189402E-38
  -2.100000      6.1281702E-38
  -2.090000      6.4218885E-38
  -2.080000      7.2728102E-38
  -2.070000      8.8586502E-38
  -2.060000      1.1306865E-37
  -2.050000      1.4675519E-37
  -2.040000      1.8946712E-37
  -2.030000      2.4029578E-37
  -2.020000      2.9761860E-37
  -2.010000      3.5921997E-37
  -2.000000      4.2240813E-37
  -1.990000      4.8415266E-37
  -1.980000      5.4171557E-37
  -1.970000      5.9276051E-37
  -1.960000      6.3557338E-37
  -1.950000      6.6933499E-37
  -1.940000      6.9420837E-37
  -1.930000      7.1121556E-37
  -1.920000      7.2211336E-37
  -1.910000      7.2915164E-37
  -1.900000      7.3481392E-37
  -1.890000      7.4151818E-37
  -1.880000      7.5134023E-37
  -1.870000      7.6580723E-37
  -1.860000      7.8565088E-37
  -1.850000      8.1082349E-37
  -1.840000      8.4061720E-37
  -1.830000      8.7363717E-37
  -1.820000      9.0800921E-37
  -1.810000      9.4160172E-37
  -1.800000      9.7226733E-37
  -1.790000      9.9793813E-37
  -1.780000      1.0168641E-36
  -1.770000      1.0281864E-36
  -1.760000      1.0318096E-36
  -1.750000      1.0282782E-36
  -1.740000      1.0191624E-36
  -1.730000      1.0066423E-36
  -1.720000      9.9329506E-37
  -1.710000      9.8198396E-37
  -1.700000      9.7538140E-37
  -1.690000      9.7654163E-37
  -1.680000      9.8775533E-37
  -1.670000      1.0106768E-36
  -1.660000      1.0463877E-36
  -1.650000      1.0949996E-36
  -1.640000      1.1557009E-36
  -1.630000      1.2269647E-36
  -1.620000      1.3066275E-36
  -1.610000      1.3913808E-36
  -1.600000      1.4784247E-36
  -1.590000      1.5647050E-36
  -1.580000      1.6227339E-36
  -1.570000      1.6491392E-36
  -1.560000      1.6417572E-36
  -1.550000      1.6236853E-36
  -1.540000      1.5933966E-36
  -1.530000      1.5519092E-36
  -1.520000      1.5007503E-36
  -1.510000      1.4404288E-36
  -1.500000      1.3732354E-36
  -1.490000      1.3014605E-36
  -1.480000      1.2277769E-36
  -1.470000      1.1547295E-36
  -1.460000      1.0857544E-36
  -1.450000      1.0208515E-36
  -1.440000      9.5798485E-37
  -1.430000      8.9919040E-37
  -1.420000      8.4345020E-37
  -1.410000      7.8974608E-37
  -1.400000      7.3858716E-37
  -1.390000      6.8656921E-37
  -1.380000      6.3404222E-37
  -1.370000      5.7438879E-37
  -1.360000      5.1473536E-37
  -1.350000      4.5304576E-37
  -1.340000      3.9135616E-37
  -1.330000      3.3373885E-37
  -1.320000      2.8833835E-37
  -1.310000      2.5719082E-37
  -1.300000      2.4538658E-37
  -1.290000      2.8855803E-37
  -1.280000      3.8670515E-37
  -1.270000      4.9706913E-37
  -1.260000      6.0743311E-37
  -1.250000      6.9743571E-37
  -1.240000      7.5893240E-37
  -1.230000      7.3083908E-37
  -1.220000      5.1949340E-37
  -1.210000      1.0249794E-37
  -1.200000     -5.0996668E-37
  -1.190000     -1.3097558E-36
  -1.180000     -2.1584122E-36
  -1.170000     -2.9582012E-36
  -1.160000     -3.5788103E-36
  -1.150000     -3.9225046E-36
  -1.140000     -3.8426827E-36
  -1.130000     -3.3026939E-36
  -1.120000     -2.1070690E-36
  -1.110000     -3.5761478E-37
  -1.100000      1.8805122E-36
  -1.090000      4.2489518E-36
  -1.080000      6.2264531E-36
  -1.070000      7.2917657E-36
  -1.060000      7.3797319E-36
  -1.050000      6.2623055E-36
  -1.040000      3.9206518E-36
  -1.030000      2.9215954E-37
  -1.020000     -4.2811003E-36
  -1.010000     -8.8543603E-36
  -1.000000     -1.2645744E-35
 -0.9900000     -1.4873374E-35
 -0.9800000     -1.4885687E-35
 -0.9700000     -1.2356901E-35
 -0.9600000     -7.3521733E-36
 -0.9500000     -1.7285169E-37
 -0.9400000      8.5376447E-36
 -0.9300000      1.7639079E-35
 -0.9200000      2.5437385E-35
 -0.9100000      3.0629437E-35
 -0.9000000      3.1521165E-35
 -0.8900000      2.7591326E-35
 -0.8800000      1.8839913E-35
 -0.8700000      5.5275541E-36
 -0.8600000     -1.1205515E-35
 -0.8500000     -2.9241711E-35
 -0.8400000     -4.5714155E-35
 -0.8300000     -5.8798463E-35
 -0.8200000     -6.5627764E-35
 -0.8100000     -6.4117047E-35
 -0.8000000     -5.3745065E-35
 -0.7900000     -3.4381502E-35
 -0.7800000     -6.9385484E-36
 -0.7700000      2.5586603E-35
 -0.7600000      5.9936132E-35
 -0.7500000      9.0636905E-35
 -0.7400000      1.1404016E-34
 -0.7300000      1.2545465E-34
 -0.7200000      1.1966785E-34
 -0.7100000      9.3031016E-35
 -0.7000000      4.6326017E-35
 -0.6900000     -1.6211980E-35
 -0.6800000     -8.8914375E-35
 -0.6700000     -1.6213803E-34
 -0.6600000     -2.2910667E-34
 -0.6500000     -2.7939529E-34
 -0.6400000     -3.0049385E-34
 -0.6300000     -2.8614733E-34
 -0.6200000     -2.3322825E-34
 -0.6100000     -1.4382158E-34
 -0.6000000     -2.6853775E-35
 -0.5900000      1.0887907E-34
 -0.5800000      2.4044191E-34
 -0.5700000      3.5532471E-34
 -0.5600000      4.2850741E-34
 -0.5500000      4.4956501E-34
 -0.5400000      3.9973250E-34
 -0.5300000      2.8109484E-34
 -0.5200000      9.9907067E-35
 -0.5100000     -1.1985329E-34
 -0.5000000     -3.6254868E-34
 -0.4900000     -5.8856405E-34
 -0.4800000     -7.5202926E-34
 -0.4700000     -8.1541435E-34
 -0.4600000     -7.7037914E-34
 -0.4500000     -6.0441376E-34
 -0.4400000     -3.1751815E-34
 -0.4300000      6.1117630E-35
 -0.4200000      4.9813350E-34
 -0.4100000      9.2263936E-34
 -0.4000000      1.3054452E-33
 -0.3900000      1.5214507E-33
 -0.3800000      1.5372958E-33
 -0.3700000      1.2946004E-33
 -0.3600000      8.0170450E-34
 -0.3500000      5.8608105E-35
 -0.3400000     -8.6901111E-34