  -10.0000000         1.00000002E-24
  -9.94999981         1.00000002E-24
  -9.89999962         1.00000002E-24
  -9.85000038         1.00000012E-24
  -9.80000019         1.00000022E-24
  -9.75000000         1.00000022E-24
  -9.69999981         1.00000022E-24
  -9.64999962         1.00000022E-24
  -9.60000038         1.00000022E-24
  -9.55000019         1.00000012E-24
  -9.50000000         1.00000002E-24
  -9.44999981         1.00000229E-24
  -9.39999962         1.00002724E-24
  -9.35000038         1.00017120E-24
  -9.30000019         1.00066907E-24
  -9.25000000         1.00149422E-24
  -9.19999981         9.99841261E-25
  -9.14999962         9.81959559E-25
  -9.10000038         9.04363454E-25
  -9.05000019         6.59370472E-25
  -9.00000000         1.75589159E-26
  -8.94999981        -1.47469322E-24
  -8.89999962        -4.68855890E-24
  -8.85000038        -1.12100298E-23
  -8.80000019        -2.34809608E-23
  -8.75000000        -4.37886433E-23
  -8.69999981        -7.00426064E-23
  -8.64999962        -8.60716920E-23
  -8.60000038        -4.75395507E-23
  -8.55000019         1.25366406E-22
  -8.50000000         5.21108185E-22
  -8.44999981         1.13690624E-21
  -8.39999962         1.68532769E-21
  -8.35000038         1.36780565E-21
  -8.30000019        -1.17079994E-21
  -8.25000000        -7.32635403E-21
  -8.19999981        -1.70699818E-20
  -8.14999962        -2.65494684E-20
  -8.10000038        -2.57772873E-20
  -8.05000019         1.14460360E-21
  -8.00000000         6.97835931E-20
  -7.94999981         1.80531419E-19
  -7.90000010         2.97014140E-19
  -7.84999990         3.28003453E-19
  -7.80000019         1.32761532E-19
  -7.75000000        -4.26034050E-19
  -7.69999981        -1.36857177E-18
  -7.65000010        -2.44390264E-18
  -7.59999990        -3.01012307E-18
  -7.55000019        -2.07638484E-18
  -7.50000000         1.35436618E-18
  -7.44999981         7.58305005E-18
  -7.40000010         1.52937324E-17
  -7.34999990         2.08447347E-17
  -7.30000019         1.84576619E-17
  -7.25000000         2.00799417E-18
  -7.19999981        -3.13185767E-17
  -7.15000010        -7.62325550E-17
  -7.09999990        -1.15494173E-16
  -7.05000019        -1.20241740E-16
  -7.00000000        -5.77599244E-17
  -6.94999981         9.20034813E-17
  -6.90000010         3.14142550E-16
  -6.84999990         5.39449132E-16
  -6.80000019         6.41649586E-16
  -6.75000000         4.65386847E-16
  -6.69999981        -1.08143026E-16
  -6.65000010        -1.06734929E-15
  -6.59999990        -2.18016180E-15
  -6.55000019        -2.95994202E-15
  -6.50000000        -2.74504214E-15
  -6.44999981        -9.27462008E-16
  -6.40000010         2.68969193E-15
  -6.34999990         7.50744529E-15
  -6.30000019         1.19004216E-14
  -6.25000000         1.33587531E-14
  -6.19999981         9.16865054E-15
  -6.15000010        -2.36986118E-15
  -6.09999990        -2.04578193E-14
  -6.05000019        -4.06095784E-14
  -6.00000000        -5.45189233E-14
  -5.94999981        -5.16727266E-14
  -5.90000010        -2.29738951E-14
  -5.84999990         3.41647792E-14
  -5.80000019         1.10788176E-13
  -5.75000000         1.83788436E-13
  -5.69999981         2.18265876E-13
  -5.65000010         1.76534433E-13
  -5.59999990         3.33421848E-14
  -5.55000019        -2.06133640E-13
  -5.50000000        -4.91998640E-13
  -5.44999981        -7.27269698E-13
  -5.40000010        -7.84626108E-13
  -5.34999990        -5.44841299E-13
  -5.30000019         4.86039940E-14
  -5.25000000         9.33853038E-13
  -5.19999981         1.89690603E-12
  -5.15000010         2.58455778E-12
  -5.09999990         2.58110373E-12
  -5.05000019         1.54743037E-12
  -5.00000000        -6.05291370E-13
  -4.94999981        -3.56200985E-12
  -4.90000010        -6.54160883E-12
  -4.84999990        -8.39238054E-12
  -4.80000019        -7.87726395E-12
  -4.75000000        -4.11920801E-12
  -4.69999981         2.89943091E-12
  -4.65000010         1.19559015E-11
  -4.59999990         2.05229583E-11
  -4.55000019         2.51787705E-11
  -4.50000000         2.25285016E-11
  -4.44999981         1.04930665E-11
  -4.40000010        -1.03775556E-11
  -4.34999990        -3.60534033E-11
  -4.30000019        -5.91363625E-11
  -4.25000000        -7.02639405E-11
  -4.19999981        -6.07740733E-11
  -4.15000010        -2.61182534E-11
  -4.09999990         3.09551586E-11
  -4.05000019         9.86959681E-11
  -4.00000000         1.57276803E-10
  -3.95000005         1.82944632E-10
  -3.90000010         1.55031502E-10
  -3.84999990         6.42972897E-11
  -3.79999995        -7.99178501E-11
  -3.75000000        -2.46666770E-10
  -3.70000005        -3.86923854E-10
  -3.65000010        -4.44558279E-10
  -3.59999990        -3.73298253E-10
  -3.54999995        -1.55666396E-10
  -3.50000000         1.82064600E-10
  -3.45000005         5.65280101E-10
  -3.40000010         8.81501760E-10
  -3.34999990         1.00682607E-09
  -3.29999995         8.43980941E-10
  -3.25000000         3.62415792E-10
  -3.20000005        -3.72567421E-10
  -3.15000010        -1.19454335E-09
  -3.09999990        -1.86289739E-09
  -3.04999995        -2.12168860E-09
  -3.00000000        -1.77931170E-09
  -2.95000005        -7.87902965E-10
  -2.90000010         7.03951564E-10
  -2.84999990         2.34949216E-09
  -2.79999995         3.66645314E-09
  -2.75000000         4.15943679E-09
  -2.70000005         3.47634965E-09
  -2.65000010         1.55575874E-09
  -2.59999990        -1.28522060E-09
  -2.54999995        -4.36514913E-09
  -2.50000000        -6.77346446E-09
  -2.45000005        -7.61010011E-09
  -2.40000010        -6.27496766E-09
  -2.34999990        -2.72432787E-09
  -2.29999995         2.39628895E-09
  -2.25000000         7.81211806E-09
  -2.20000005         1.18935528E-08
  -2.15000010         1.31009994E-08
  -2.09999990         1.04917479E-08
  -2.04999995         4.13810941E-09
  -2.00000000        -4.69559236E-09
  -1.95000005        -1.37218095E-08
  -1.89999998        -2.01576462E-08
  -1.85000002        -2.15116795E-08
  -1.79999995        -1.64267568E-08
  -1.75000000        -5.31941780E-09
  -1.70000005         9.42636280E-09
  -1.64999998         2.38548132E-08
  -1.60000002         3.34038468E-08
  -1.54999995         3.42347271E-08
  -1.50000000         2.45670417E-08
  -1.45000005         5.59563240E-09
  -1.39999998        -1.83735072E-08
  -1.35000002        -4.07444283E-08
  -1.29999995        -5.43105863E-08
  -1.25000000        -5.34043565E-08
  -1.20000005        -3.59161447E-08
  -1.14999998        -4.52664617E-09
  -1.10000002         3.33601697E-08
  -1.04999995         6.71666172E-08
  -1.00000000         8.59183871E-08
 -0.949999988         8.15697661E-08
 -0.899999976         5.19230383E-08
 -0.850000024         2.17396878E-09
 -0.800000012        -5.55976918E-08
 -0.750000000        -1.05131001E-07
 -0.699999988        -1.30355517E-07
 -0.649999976        -1.20315775E-07
 -0.600000024        -7.32070262E-08
 -0.550000012         1.84052418E-09
 -0.500000000         8.60781739E-08
 -0.449999988         1.55561366E-07
 -0.400000006         1.87727508E-07
 -0.349999994         1.68392674E-07
 -0.300000012         9.70820508E-08
 -0.250000000        -1.11412728E-08
 -0.200000003        -1.28338854E-07
 -0.150000006        -2.20586543E-07
 -0.100000001        -2.57502819E-07
  -5.00000007E-02    -2.21831257E-07
   0.00000000        -1.16170121E-07
   5.00000007E-02     3.55290766E-08
  0.100000001         1.92754655E-07
  0.150000006         3.08787719E-07
  0.200000003         3.44108656E-07
  0.250000000         2.79139840E-07
  0.300000012         1.22390333E-07
  0.349999994        -8.89744456E-08
  0.400000006        -2.97149995E-07
  0.449999988        -4.38820706E-07
  0.500000000        -4.63611457E-07
  0.550000012        -3.50663612E-07
  0.600000024        -1.18144229E-07
  0.649999976         1.77922530E-07
  0.699999988         4.56282265E-07
  0.750000000         6.31953583E-07
  0.800000012         6.41098325E-07
  0.850000024         4.62182669E-07
  0.899999976         1.26752411E-07
  0.949999988        -2.84412437E-07
   1.00000000        -6.60054070E-07
   1.04999995        -8.87985095E-07
   1.10000002        -8.87719352E-07
   1.14999998        -6.36849052E-07
   1.20000005        -1.82845085E-07
   1.25000000         3.64472101E-07
   1.29999995         8.59245006E-07
   1.35000002         1.15854539E-06
   1.39999998         1.16363276E-06
   1.45000005         8.51634695E-07
   1.50000000         2.87664790E-07
   1.54999995        -3.87625306E-07
   1.60000002        -9.93219601E-07
   1.64999998        -1.35699224E-06
   1.70000005        -1.36564631E-06
   1.75000000        -1.00079967E-06
   1.79999995        -3.49757215E-07
   1.85000002         4.13832169E-07
   1.89999998         1.07569508E-06
   1.95000005         1.44128569E-06
   2.00000000         1.39394683E-06
   2.04999995         9.33603417E-07
   2.09999990         1.83327174E-07
   2.15000010        -6.40236465E-07
   2.20000005        -1.28618024E-06
   2.25000000        -1.54277154E-06
   2.29999995        -1.30417038E-06
   2.34999990        -6.10142706E-07
   2.40000010         3.54952931E-07
   2.45000005         1.30658293E-06
   2.50000000         1.93793312E-06
   2.54999995         2.01078933E-06
   2.59999990         1.43358852E-06
   2.65000010         3.02672220E-07
   2.70000005        -1.10826841E-06
   2.75000000        -2.41160342E-06
   2.79999995        -3.20782260E-06
   2.84999990        -3.19981405E-06
   2.90000010        -2.28748513E-06
   2.95000005        -6.14214002E-07
   3.00000000         1.45161005E-06
   3.04999995         3.39936287E-06
   3.09999990         4.70441046E-06
   3.15000010         4.96891562E-06
   3.20000005         4.03691138E-06
   3.25000000         2.05046399E-06
   3.29999995        -5.71448368E-07
   3.34999990        -3.22896790E-06
   3.40000010        -5.28901137E-06
   3.45000005        -6.24609584E-06
   3.50000000        -5.85313683E-06
   3.54999995        -4.18635636E-06
   3.59999990        -1.62614572E-06
   3.65000010         1.24114729E-06
   3.70000005         3.77352785E-06
   3.75000000         5.43440228E-06
   3.79999995         5.92048946E-06
   3.84999990         5.22286837E-06
   3.90000010         3.60720105E-06
   3.95000005         1.52265807E-06
   4.00000000        -5.30875809E-07
   4.05000019        -2.13702015E-06
   4.09999990        -3.06000038E-06
   4.15000010        -3.27938915E-06
   4.19999981        -2.95769337E-06
   4.25000000        -2.35695552E-06
   4.30000019        -1.73541673E-06
   4.34999990        -1.25959571E-06
   4.40000010        -9.59877752E-07
   4.44999981        -7.41681731E-07
   4.50000000        -4.44944789E-07
   4.55000019         7.15338544E-08
   4.59999990         8.52272535E-07
   4.65000010         1.80257302E-06
   4.69999981         2.69800898E-06
   4.75000000         3.24535495E-06
   4.80000019         3.17740592E-06
   4.84999990         2.35268885E-06
   4.90000010         8.28491522E-07
   4.94999981        -1.11761483E-06
   5.00000000        -3.02873059E-06
   5.05000019        -4.36608752E-06
   5.09999990        -4.64163713E-06
   5.15000010        -3.55432644E-06
   5.19999981        -1.09618588E-06
   5.25000000         2.40012423E-06
   5.30000019         6.28839052E-06
   5.34999990         9.71037480E-06
   5.40000010         1.17545069E-05
   5.44999981         1.16401980E-05
   5.50000000         8.88794239E-06
   5.55000019         3.43565080E-06
   5.59999990        -4.32868046E-06
   5.65000010        -1.36300905E-05
   5.69999981        -2.34550826E-05
   5.75000000        -3.27533417E-05
   5.80000019        -4.06460749E-05
   5.84999990        -4.65918420E-05
   5.90000010        -5.04722302E-05
   5.94999981        -5.25827418E-05
   6.00000000        -5.35416766E-05
   6.05000019        -5.41530499E-05
   6.09999990        -5.52694000E-05
   6.15000010        -5.76929815E-05
   6.19999981        -6.21314466E-05
   6.25000000        -6.91950409E-05
   6.30000019        -7.93995132E-05
   6.34999990        -9.31336981E-05
   6.40000010        -1.10568173E-04
   6.44999981        -1.31517416E-04
   6.50000000        -1.55308997E-04
   6.55000019        -1.80739808E-04
   6.59999990        -2.06195837E-04
   6.65000010        -2.29969883E-04
   6.69999981        -2.50741199E-04
   6.75000000        -2.68102478E-04
   6.80000019        -2.82965484E-04
   6.84999990        -2.97673338E-04
   6.90000010        -3.15708283E-04
   6.94999981        -3.40999512E-04
   7.00000000        -3.76972661E-04
   7.05000019        -4.25596605E-04
   7.09999990        -4.86727076E-04
   7.15000010        -5.57995634E-04
   7.19999981        -6.35350007E-04
   7.25000000        -7.14154507E-04
   7.30000019        -7.90571561E-04
   7.34999990        -8.62827059E-04
   7.40000010        -9.31966526E-04
   7.44999981        -1.00183813E-03
   7.50000000        -1.07826514E-03
   7.55000019        -1.16762274E-03
   7.59999990        -1.27522682E-03
   7.65000010        -1.40401756E-03
   7.69999981        -1.55394420E-03
   7.75000000        -1.72224396E-03
   7.80000019        -1.90453848E-03
   7.84999990        -2.09642155E-03
   7.90000010        -2.29506055E-03
   7.94999981        -2.50034221E-03
   8.00000000        -2.71523977E-03
   8.05000019        -2.94532184E-03
   8.10000038        -3.19757964E-03
   8.14999962        -3.47894593E-03
   8.19999981        -3.79492948E-03
   8.25000000        -4.14874265E-03
   8.30000019        -4.54110606E-03
   8.35000038        -4.97073354E-03
   8.39999962        -5.43529447E-03
   8.44999981        -5.93256950E-03
   8.50000000        -6.46150345E-03
   8.55000019        -7.02291820E-03
   8.60000038        -7.61978561E-03
   8.64999962        -8.25705100E-03
   8.69999981        -8.94110650E-03
   8.75000000        -9.67905018E-03
   8.80000019        -1.04778884E-02
   8.85000038        -1.13438638E-02
   8.89999962        -1.22820288E-02
   8.94999981        -1.32962074E-02
   9.00000000        -1.43893845E-02
   9.05000019        -1.55644687E-02
   9.10000038        -1.68252643E-02
   9.14999962        -1.81773771E-02
   9.19999981        -1.96287036E-02
   9.25000000        -2.11892836E-02
   9.30000019        -2.28703823E-02
   9.35000038        -2.46829819E-02
   9.39999962        -2.66360939E-02
   9.44999981        -2.87355073E-02
   9.50000000        -3.09834722E-02
   9.55000019        -3.33796889E-02
   9.60000038        -3.59234959E-02
   9.64999962        -3.86167429E-02
   9.69999981        -4.14665230E-02
   9.75000000        -4.44868468E-02
   9.80000019        -4.76985499E-02
   9.85000038        -5.11273220E-02
   9.89999962        -5.48002869E-02
   9.94999981        -5.87420575E-02
   10.0000000        -6.29714802E-02
   10.0500002        -6.75000846E-02
   10.1000004        -7.23327100E-02
   10.1499996        -7.74702579E-02
   10.1999998        -8.29135925E-02
   10.2500000        -8.86674747E-02
   10.3000002        -9.47435200E-02
   10.3500004       -0.101161204    
   10.3999996       -0.107946992    
   10.4499998       -0.115131989    
   10.5000000       -0.122748934    
   10.5500002       -0.130829558    
   10.6000004       -0.139402866    
   10.6499996       -0.148494318    
   10.6999998       -0.158125997    
   10.7500000       -0.168317124    
   10.8000002       -0.179084688    
   10.8500004       -0.190444037    
   10.8999996       -0.202409968    
   10.9499998       -0.214998052    
   11.0000000       -0.228226915    
   11.0500002       -0.242120937    
   11.1000004       -0.256712377    
   11.1499996       -0.272042304    
   11.1999998       -0.288159579    
   11.2500000       -0.305116922    
   11.3000002       -0.322966069    
   11.3500004       -0.341752082    
   11.3999996       -0.361509800    
   11.4499998       -0.382263005    
   11.5000000       -0.404027730    
   11.5500002       -0.426818281    
   11.6000004       -0.450654298    
   11.6499996       -0.475566447    
   11.6999998       -0.501598597    
   11.7500000       -0.528805315    
   11.8000002       -0.557245970    
   11.8500004       -0.586977005    
   11.8999996       -0.618045747    
   11.9499998       -0.650487721    
   12.0000000       -0.684328914    
   12.0500002       -0.719591856    
   12.1000004       -0.756302953    
   12.1499996       -0.794498742    
   12.1999998       -0.834227324    
   12.2500000       -0.875546217    
   12.3000002       -0.918515325    
   12.3500004       -0.963189960    
   12.3999996        -1.00961637    
   12.4499998        -1.05783117    
   12.5000000        -1.10786641    
   12.5500002        -1.15975714    
   12.6000004        -1.21354747    
   12.6499996        -1.26929343    
   12.6999998        -1.32705939    
   12.7500000        -1.38690829    
   12.8000002        -1.44889164    
   12.8500004        -1.51304162    
   12.8999996        -1.57936966    
   12.9499998        -1.64787471    
   13.0000000        -1.71855688    
   13.0500002        -1.79143190    
   13.1000004        -1.86654162    
   13.1499996        -1.94395328    
   13.1999998        -2.02374887    
   13.2500000        -2.10600758    
   13.3000002        -2.19078398    
   13.3500004        -2.27809834    
   13.3999996        -2.36793685    
   13.4499998        -2.46026707    
   13.5000000        -2.55506158    
   13.5500002        -2.65232444    
   13.6000004        -2.75210357    
   13.6499996        -2.85448933    
   13.6999998        -2.95959306    
   13.7500000        -3.06751561    
   13.8000002        -3.17831445    
   13.8500004        -3.29198408    
   13.8999996        -3.40845728    
   13.9499998        -3.52762985    
   14.0000000        -3.64939809    
   14.0500002        -3.77369833    
   14.1000004        -3.90053225    
   14.1499996        -4.02996731    
   14.1999998        -4.16211414    
   14.2500000        -4.29708290    
   14.3000002        -4.43494034    
   14.3500004        -4.57568264    
   14.3999996        -4.71923208    
   14.4499998        -4.86546755    
   14.5000000        -5.01426125    
   14.5500002        -5.16553259    
   14.6000004        -5.31927156    
   14.6499996        -5.47553921    
   14.6999998        -5.63443708    
   14.7500000        -5.79606104    
   14.8000002        -5.96045256    
   14.8500004        -6.12757015    
   14.8999996        -6.29729366    
   14.9499998        -6.46945620    
   15.0000000        -6.64389896    
   15.0500002        -6.82051420    
   15.1000004        -6.99927568    
   15.1499996        -7.18022871    
   15.1999998        -7.36345148    
   15.2500000        -7.54899931    
   15.3000002        -7.73685980    
   15.3500004        -7.92693520    
   15.3999996        -8.11905956    
   15.4499998        -8.31304455    
   15.5000000        -8.50874424    
   15.5500002        -8.70609856    
   15.6000004        -8.90514660    
   15.6499996        -9.10599518    
   15.6999998        -9.30876064    
   15.7500000        -9.51349354    
   15.8000002        -9.72013283    
   15.8500004        -9.92849541    
   15.8999996        -10.1383228    
   15.9499998        -10.3493462    
   16.0000000        -10.5613737    
   16.0499992        -10.7743387    
   16.1000004        -10.9883127    
   16.1499996        -11.2034492    
   16.2000008        -11.4199018    
   16.2500000        -11.6377401    
   16.2999992        -11.8568888    
   16.3500004        -12.0771341    
   16.3999996        -12.2981787    
   16.4500008        -12.5197353    
   16.5000000        -12.7416229    
   16.5499992        -12.9638166    
   16.6000004        -13.1864471    
   16.6499996        -13.4097233    
   16.7000008        -13.6338263    
   16.7500000        -13.8588190    
   16.7999992        -14.0845861    
   16.8500004        -14.3108511    
   16.8999996        -14.5372648    
   16.9500008        -14.7635164    
   17.0000000        -14.9894476    
   17.0499992        -15.2150927    
   17.1000004        -15.4406605    
   17.1499996        -15.6664305    
   17.2000008        -15.8926277    
   17.2500000        -16.1193161    
   17.2999992        -16.3463440    
   17.3500004        -16.5733871    
   17.3999996        -16.8000565    
   17.4500008        -17.0260372    
   17.5000000        -17.2512074    
   17.5499992        -17.4756775    
   17.6000004        -17.6997375    
   17.6499996        -17.9237442    
   17.7000008        -18.1479626    
   17.7500000        -18.3724537    
   17.7999992        -18.5970306    
   17.8500004        -18.8213310    
   17.8999996        -19.0449429    
   17.9500008        -19.2675591    
   18.0000000        -19.4890957    
   18.0499992        -19.7097206    
   18.1000004        -19.9297848    
   18.1499996        -20.1496735    
   18.2000008        -20.3696442    
   18.2500000        -20.5897217    
   18.2999992        -20.8096733    
   18.3500004        -21.0291138    
   18.3999996        -21.2476349    
   18.4500008        -21.4649906    
   18.5000000        -21.6811905    
   18.5499992        -21.8965092    
   18.6000004        -22.1113701    
   18.6499996        -22.3261871    
   18.7000008        -22.5411873    
   18.7500000        -22.7563248    
   18.7999992        -22.9712906    
   18.8500004        -23.1856461    
   18.8999996        -23.3989906    
   18.9500008        -23.6111507    
   19.0000000        -23.8222446    
   19.0499992        -24.0326595    
   19.1000004        -24.2429008    
   19.1499996        -24.4533920    
   19.2000008        -24.6643085    
   19.2500000        -24.8755054    
   19.2999992        -25.0865688    
   19.3500004        -25.2969856    
   19.3999996        -25.5063438    
   19.4500008        -25.7145195    
   19.5000000        -25.9217262    
   19.5499992        -26.1284485    
   19.6000004        -26.3352604    
   19.6499996        -26.5426044    
   19.7000008        -26.7506161    
   19.7500000        -26.9590778    
   19.7999992        -27.1675110    
   19.8500004        -27.3753719    
   19.8999996        -27.5822697    
   19.9500008        -27.7881413    
   20.0000000        -27.9932728    
   20.0499992        -28.1982059    
   20.1000004        -28.4035034    
   20.1499996        -28.6095467    
   20.2000008        -28.8163643    
   20.2500000        -29.0236187    
   20.2999992        -29.2307472    
   20.3500004        -29.4371796    
   20.3999996        -29.6425743    
   20.4500008        -29.8469601    
   20.5000000        -30.0507259    
   20.5499992        -30.2544861    
   20.6000004        -30.4588146    
   20.6499996        -30.6640301    
   20.7000008        -30.8700619    
   20.7500000        -31.0764561    
   20.7999992        -31.2825565    
   20.8500004        -31.4877586    
   20.8999996        -31.6917381    
   20.9500008        -31.8945732    
   21.0000000        -32.0967026    
   21.0499992        -32.2987366    
   21.1000004        -32.5012245    
   21.1499996        -32.7043991    
   21.2000008        -32.9080963    
   21.2500000        -33.1118050    
   21.2999992        -33.3148537    
   21.3500004        -33.5166855    
   21.3999996        -33.7170525    
   21.4500008        -33.9161072    
   21.5000000        -34.1143112    
   21.5499992        -34.3122139    
   21.6000004        -34.5102005    
   21.6499996        -34.7083015    
   21.7000008        -34.9061165    
   21.7500000        -35.1029510    
   21.7999992        -35.2980423    
   21.8500004        -35.4908295    
   21.8999996        -35.6811447    
   21.9500008        -35.8692322    
   22.0000000        -36.0556183    
   22.0499992        -36.2408600    
   22.1000004        -36.4252625    
   22.1499996        -36.6087036    
   22.2000008        -36.7906227    
   22.2500000        -36.9701538    
   22.2999992        -37.1464157    
   22.3500004        -37.3187790    
   22.3999996        -37.4870262    
   22.4500008        -37.6513596    
   22.5000000        -37.8122444    
   22.5499992        -37.9701195    
   22.6000004        -38.1251526    
   22.6499996        -38.2770653    
   22.7000008        -38.4251556    
   22.7500000        -38.5684662    
   22.7999992        -38.7060814    
   22.8500004        -38.8373260    
   22.8999996        -38.9619484    
   22.9500008        -39.0800591    
   23.0000000        -39.1919594    
   23.0499992        -39.2978706    
   23.1000004        -39.3976784    
   23.1499996        -39.4908485    
   23.2000008        -39.5764580    
   23.2500000        -39.6534119    
   23.2999992        -39.7207146    
   23.3500004        -39.7776871    
   23.3999996        -39.8240738    
   23.4500008        -39.8599625    
   23.5000000        -39.8855591    
   23.5499992        -39.9009209    
   23.6000004        -39.9057388    
   23.6499996        -39.8992310    
   23.7000008        -39.8802567    
   23.7500000        -39.8475189    
   23.7999992        -39.7998581    
   23.8500004        -39.7364388    
   23.8999996        -39.6568642    
   23.9500008        -39.5610619    
   24.0000000        -39.4490662    
   24.0499992        -39.3207970    
   24.1000004        -39.1758041    
   24.1499996        -39.0132523    
   24.2000008        -38.8319778    
   24.2500000        -38.6307106    
   24.2999992        -38.4083061    
   24.3500004        -38.1639252    
   24.3999996        -37.8971024    
   24.4500008        -37.6076164    
   24.5000000        -37.2953339    
   24.5499992        -36.9599495    
   24.6000004        -36.6008606    
   24.6499996        -36.2171135    
   24.7000008        -35.8075333    
   24.7500000        -35.3708878    
   24.7999992        -34.9061470    
   24.8500004        -34.4125900    
   24.8999996        -33.8898582    
   24.9500008        -33.3378258    
   25.0000000        -32.7564125    
   25.0499992        -32.1453934    
   25.1000004        -31.5042458    
   25.1499996        -30.8321457    
   25.2000008        -30.1280746    
   25.2500000        -29.3910065    
   25.2999992        -28.6200924    
   25.3500004        -27.8148022    
   25.3999996        -26.9749451    
   25.4500008        -26.1005707    
   25.5000000        -25.1918106    
   25.5499992        -24.2486935    
   25.6000004        -23.2710400    
   25.6499996        -22.2584457    
   25.7000008        -21.2103672    
   25.7500000        -20.1262836    
   25.7999992        -19.0058498    
   25.8500004        -17.8489990    
   25.8999996        -16.6559715    
   25.9500008        -15.4272146    
   26.0000000        -14.1632586    
   26.0499992        -12.8645601    
   26.1000004        -11.5314150    
   26.1499996        -10.1639547    
   26.2000008        -8.76222706    
   26.2500000        -7.32633734    
   26.2999992        -5.85658836    
   26.3500004        -4.35357428    
   26.3999996        -2.81819248    
   26.4500008        -1.25156057    
   26.5000000        0.345115483    
   26.5499992         1.97068560    
   26.6000004         3.62415361    
   26.6499996         5.30469513    
   26.7000008         7.01158428    
   26.7500000         8.74406528    
   26.7999992         10.5012045    
   26.8500004         12.2817860    
   26.8999996         14.0842819    
   26.9500008         15.9069061    
   27.0000000         17.7477493    
   27.0499992         19.6049137    
   27.1000004         21.4766464    
   27.1499996         23.3613701    
   27.2000008         25.2576351    
   27.2500000         27.1640358    
   27.2999992         29.0790272    
   27.3500004         31.0008354    
   27.3999996         32.9274101    
   27.4500008         34.8564491    
   27.5000000         36.7855339    
   27.5499992         38.7122574    
   27.6000004         40.6343575    
   27.6499996         42.5497932    
   27.7000008         44.4566956    
   27.7500000         46.3532524    
   27.7999992         48.2376060    
   27.8500004         50.1076698    
   27.8999996         51.9611320    
   27.9500008         53.7954521    
   28.0000000         55.6080093    
   28.0499992         57.3962479    
   28.1000004         59.1578369    
   28.1499996         60.8907013    
   28.2000008         62.5930367    
   28.2500000         64.2631454    
   28.2999992         65.8992844    
   28.3500004         67.4995270    
   28.3999996         69.0616913    
   28.4500008         70.5834351    
   28.5000000         72.0623245    
   28.5499992         73.4961090    
   28.6000004         74.8828125    
   28.6499996         76.2208405    
   28.7000008         77.5089188    
   28.7500000         78.7459412    
   28.7999992         79.9307632    
   28.8500004         81.0620651    
   28.8999996         82.1382980    
   28.9500008         83.1577148    
   29.0000000         84.1185608    
   29.0499992         85.0193100    
   29.1000004         85.8587952    
   29.1499996         86.6362839    
   29.2000008         87.3514328    
   29.2500000         88.0040741    
   29.2999992         88.5939865    
   29.3500004         89.1207581    
   29.3999996         89.5836945    
   29.4500008         89.9819717    
   29.5000000         90.3147659    
   29.5499992         90.5815430    
   29.6000004         90.7822342    
   29.6499996         90.9172592    
   29.7000008         90.9874191    
   29.7500000         90.9936447    
   29.7999992         90.9368057    
   29.8500004         90.8174973    
   29.8999996         90.6360016    
   29.9500008         90.3924255    
   30.0000000         90.0869370    
   30.0499992         89.7200012    
   30.1000004         89.2925873    
   30.1499996         88.8061676    
   30.2000008         88.2625427    
   30.2500000         87.6636200    
   30.2999992         87.0111313    
   30.3500004         86.3064804    
   30.3999996         85.5507126    
   30.4500008         84.7447128    