  -10.0000000         1.00000002E-24
  -9.94999981         1.00000002E-24
  -9.89999962         1.00000002E-24
  -9.85000038         1.00000012E-24
  -9.80000019         1.00000022E-24
  -9.75000000         1.00000022E-24
  -9.69999981         1.00000022E-24
  -9.64999962         1.00000022E-24
  -9.60000038         1.00000012E-24
  -9.55000019         1.01993986E-24
  -9.50000000         1.26597719E-24
  -9.44999981         2.69194583E-24
  -9.39999962         7.48317872E-24
  -9.35000038         1.55754275E-23
  -9.30000019         7.98625899E-24
  -9.25000000        -8.62868743E-23
  -9.19999981        -3.94371383E-22
  -9.14999962        -9.20342233E-22
  -9.10000038        -9.59931792E-22
  -9.05000019         1.79608800E-21
  -9.00000000         1.11611690E-20
  -8.94999981         2.79172067E-20
  -8.89999962         3.61578482E-20
  -8.85000038        -1.98415264E-20
  -8.80000019        -2.52521749E-19
  -8.75000000        -7.97338366E-19
  -8.69999981        -1.65895022E-18
  -8.64999962        -2.38852869E-18
  -8.60000038        -1.66915566E-18
  -8.55000019         2.85276705E-18
  -8.50000000         1.38360698E-17
  -8.44999981         3.18541795E-17
  -8.39999962         5.11247249E-17
  -8.35000038         5.47023704E-17
  -8.30000019         1.29532199E-17
  -8.25000000        -1.08603851E-16
  -8.19999981        -3.26255042E-16
  -8.14999962        -5.99609594E-16
  -8.10000038        -7.89880193E-16
  -8.05000019        -6.43938746E-16
  -8.00000000         1.54215186E-16
  -7.94999981         1.82842459E-15
  -7.90000010         4.25318663E-15
  -7.84999990         6.66888521E-15
  -7.80000019         7.53435722E-15
  -7.75000000         4.74266495E-15
  -7.69999981        -3.60836544E-15
  -7.65000010        -1.78857444E-14
  -7.59999990        -3.53675524E-14
  -7.55000019        -4.92067019E-14
  -7.50000000        -4.89203201E-14
  -7.44999981        -2.32833314E-14
  -7.40000010         3.42241257E-14
  -7.34999990         1.18581807E-13
  -7.30000019         2.07717768E-13
  -7.25000000         2.62090344E-13
  -7.19999981         2.32828459E-13
  -7.15000010         7.95715829E-14
  -7.09999990        -2.05125793E-13
  -7.05000019        -5.73049529E-13
  -7.00000000        -9.11181178E-13
  -6.94999981        -1.05781291E-12
  -6.90000010        -8.49401604E-13
  -6.84999990        -1.91713114E-13
  -6.80000019         8.65753216E-13
  -6.75000000         2.08439320E-12
  -6.69999981         3.05361791E-12
  -6.65000010         3.28978489E-12
  -6.59999990         2.40710663E-12
  -6.55000019         3.14106163E-13
  -6.50000000        -2.64064335E-12
  -6.44999981        -5.65598219E-12
  -6.40000010        -7.65203786E-12
  -6.34999990        -7.61897316E-12
  -6.30000019        -5.04613105E-12
  -6.25000000        -2.68052724E-13
  -6.19999981         5.45359331E-12
  -6.15000010         1.02322699E-11
  -6.09999990         1.22241123E-11
  -6.05000019         1.04629144E-11
  -6.00000000         5.51601863E-12
  -5.94999981        -4.20760920E-13
  -5.90000010        -4.23454327E-12
  -5.84999990        -3.34922433E-12
  -5.80000019         2.53994807E-12
  -5.75000000         1.02454399E-11
  -5.69999981         1.32528866E-11
  -5.65000010         3.83188663E-12
  -5.59999990        -2.30699695E-11
  -5.55000019        -6.52696577E-11
  -5.50000000        -1.10096120E-10
  -5.44999981        -1.34708203E-10
  -5.40000010        -1.11630032E-10
  -5.34999990        -1.94968174E-11
  -5.30000019         1.43383555E-10
  -5.25000000         3.47432860E-10
  -5.19999981         5.28284361E-10
  -5.15000010         5.96731886E-10
  -5.09999990         4.64178418E-10
  -5.05000019         7.99445024E-11
  -5.00000000        -5.29756017E-10
  -4.94999981        -1.23648047E-09
  -4.90000010        -1.81412674E-09
  -4.84999990        -1.98440353E-09
  -4.80000019        -1.50234980E-09
  -4.75000000        -2.64769873E-10
  -4.69999981         1.59147706E-09
  -4.65000010         3.64351149E-09
  -4.59999990         5.22702681E-09
  -4.55000019         5.58932012E-09
  -4.50000000         4.13368806E-09
  -4.44999981         6.96837643E-10
  -4.40000010        -4.23287050E-09
  -4.34999990        -9.45915613E-09
  -4.30000019        -1.32614995E-08
  -4.25000000        -1.38336036E-08
  -4.19999981        -9.90127180E-09
  -4.15000010        -1.35225597E-09
  -4.09999990         1.03486677E-08
  -4.05000019         2.21796768E-08
  -4.00000000         3.01462819E-08
  -3.95000005         3.03920160E-08
  -3.90000010         2.05928128E-08
  -3.84999990         1.21616150E-09
  -3.79999995        -2.38470523E-08
  -3.75000000        -4.76834252E-08
  -3.70000005        -6.19356371E-08
  -3.65000010        -5.93176956E-08
  -3.59999990        -3.64224277E-08
  -3.54999995         4.09974321E-09
  -3.50000000         5.29258664E-08
  -3.45000005         9.56236335E-08
  -3.40000010         1.16382445E-07
  -3.34999990         1.03127306E-07
  -3.29999995         5.25496837E-08
  -3.25000000        -2.67280171E-08
  -3.20000005        -1.14391241E-07
  -3.15000010        -1.82762733E-07
  -3.09999990        -2.04626218E-07
  -3.04999995        -1.62594787E-07
  -3.00000000        -5.71178980E-08
  -2.95000005         8.99138968E-08
  -2.90000010         2.38107958E-07
  -2.84999990         3.38366533E-07
  -2.79999995         3.47564708E-07
  -2.75000000         2.44084248E-07
  -2.70000005         3.91352835E-08
  -2.65000010        -2.20703598E-07
  -2.59999990        -4.62153821E-07
  -2.54999995        -6.04209447E-07
  -2.50000000        -5.82928010E-07
  -2.45000005        -3.74894654E-07
  -2.40000010        -1.15139738E-08
  -2.34999990         4.21924994E-07
  -2.29999995         8.04423792E-07
  -2.25000000         1.01143053E-06
  -2.20000005         9.52782784E-07
  -2.15000010         6.05300158E-07
  -2.09999990         2.91419724E-08
  -2.04999995        -6.39214477E-07
  -2.00000000        -1.21808273E-06
  -1.95000005        -1.52909547E-06
  -1.89999998        -1.45038837E-06
  -1.85000002        -9.58902206E-07
  -1.79999995        -1.47968962E-07
  -1.75000000         7.87564488E-07
  -1.70000005         1.59746367E-06
  -1.64999998         2.04287630E-06
  -1.60000002         1.96611427E-06
  -1.54999995         1.34340519E-06
  -1.50000000         3.03824123E-07
  -1.45000005        -8.93999015E-07
  -1.39999998        -1.92436414E-06
  -1.35000002        -2.48168431E-06
  -1.29999995        -2.36964183E-06
  -1.25000000        -1.56712042E-06
  -1.20000005        -2.50108741E-07
  -1.14999998         1.24065298E-06
  -1.10000002         2.48217725E-06
  -1.04999995         3.08329595E-06
  -1.00000000         2.80100721E-06
 -0.949999988         1.62623076E-06
 -0.899999976        -1.88692951E-07
 -0.850000024        -2.17488855E-06
 -0.800000012        -3.75930995E-06
 -0.750000000        -4.41980774E-06
 -0.699999988        -3.84297209E-06
 -0.649999976        -2.03930676E-06
 -0.600000024         6.22677192E-07
 -0.550000012         3.48272602E-06
 -0.500000000         5.74749174E-06
 -0.449999988         6.70533700E-06
 -0.400000006         5.94019320E-06
 -0.349999994         3.48119920E-06
 -0.300000012        -1.62803431E-07
 -0.250000000        -4.10556004E-06
 -0.200000003        -7.30497140E-06
 -0.150000006        -8.84856581E-06
 -0.100000001        -8.22301081E-06
  -5.00000007E-02    -5.48589287E-06
   0.00000000        -1.28132706E-06
   5.00000007E-02     3.31537285E-06
  0.100000001         7.08724110E-06
  0.150000006         9.01918429E-06
  0.200000003         8.59438842E-06
  0.250000000         5.95247866E-06
  0.300000012         1.85759916E-06
  0.349999994        -2.51817391E-06
  0.400000006        -5.93341792E-06
  0.449999988        -7.43667169E-06
  0.500000000        -6.63836545E-06
  0.550000012        -3.81482414E-06
  0.600000024         1.83187964E-07
  0.649999976         4.18412719E-06
  0.699999988         7.03000705E-06
  0.750000000         7.88978741E-06
  0.800000012         6.46380613E-06
  0.850000024         3.03197453E-06
  0.899999976        -1.64952166E-06
  0.949999988        -6.55411213E-06
   1.00000000        -1.06227344E-05
   1.04999995        -1.29691061E-05
   1.10000002        -1.30148728E-05
   1.14999998        -1.05510671E-05
   1.20000005        -5.74711157E-06
   1.25000000         8.66099413E-07
   1.29999995         8.42652116E-06
   1.35000002         1.57953964E-05
   1.39999998         2.16631324E-05
   1.45000005         2.47308817E-05
   1.50000000         2.39654128E-05
   1.54999995         1.88835238E-05
   1.60000002         9.78488515E-06
   1.64999998        -2.16037847E-06
   1.70000005        -1.50380874E-05
   1.75000000        -2.65384533E-05
   1.79999995        -3.44577056E-05
   1.85000002        -3.72196555E-05
   1.89999998        -3.42606581E-05
   1.95000005        -2.61538717E-05
   2.00000000        -1.44297310E-05
   2.04999995        -1.15150226E-06
   2.09999990         1.16113479E-05
   2.15000010         2.22374965E-05
   2.20000005         2.97966963E-05
   2.25000000         3.40315819E-05
   2.29999995         3.51355193E-05
   2.34999990         3.34626056E-05
   2.40000010         2.93209705E-05
   2.45000005         2.29441448E-05
   2.50000000         1.46314542E-05
   2.54999995         4.94631604E-06
   2.59999990        -5.18736533E-06
   2.65000010        -1.46149841E-05
   2.70000005        -2.23195239E-05
   2.75000000        -2.78990992E-05
   2.79999995        -3.19222090E-05
   2.84999990        -3.59269325E-05
   2.90000010        -4.19492681E-05
   2.95000005        -5.16727596E-05
   3.00000000        -6.55032709E-05
   3.04999995        -8.19885754E-05
   3.09999990        -9.79474353E-05
   3.15000010        -1.09436420E-04
   3.20000005        -1.13335693E-04
   3.25000000        -1.09010747E-04
   3.29999995        -9.93537251E-05
   3.34999990        -9.06242130E-05
   3.40000010        -9.08955917E-05
   3.45000005        -1.07452106E-04
   3.50000000        -1.43973550E-04
   3.54999995        -1.98577764E-04
   3.59999990        -2.63627531E-04
   3.65000010        -3.27656075E-04
   3.70000005        -3.78990517E-04
   3.75000000        -4.09936940E-04
   3.79999995        -4.20024473E-04
   3.84999990        -4.16983006E-04
   3.90000010        -4.14840062E-04
   3.95000005        -4.29552514E-04
   4.00000000        -4.73567750E-04
   4.05000019        -5.51250298E-04
   4.09999990        -6.56959484E-04
   4.15000010        -7.76714878E-04
   4.19999981        -8.93104647E-04
   4.25000000        -9.91836539E-04
   4.30000019        -1.06758939E-03
   4.34999990        -1.12691591E-03
   4.40000010        -1.18690834E-03
   4.44999981        -1.26985088E-03
   4.50000000        -1.39560946E-03
   4.55000019        -1.57445727E-03
   4.59999990        -1.80302246E-03
   4.65000010        -2.06500781E-03
   4.69999981        -2.33663362E-03
   4.75000000        -2.59500206E-03
   4.80000019        -2.82644271E-03
   4.84999990        -3.03183519E-03
   4.90000010        -3.22695985E-03
   4.94999981        -3.43774515E-03
   5.00000000        -3.69215640E-03
   5.05000019        -4.01170179E-03
   5.09999990        -4.40564146E-03
   5.15000010        -4.86989086E-03
   5.19999981        -5.39079867E-03
   5.25000000        -5.95208770E-03
   5.30000019        -6.54211594E-03
   5.34999990        -7.15859560E-03
   5.40000010        -7.80910347E-03
   5.44999981        -8.50751158E-03
   5.50000000        -9.26820654E-03
   5.55000019        -1.01008480E-02
   5.59999990        -1.10080829E-02
   5.65000010        -1.19872103E-02
   5.69999981        -1.30349398E-02
   5.75000000        -1.41528547E-02
   5.80000019        -1.53507683E-02
   5.84999990        -1.66460238E-02
   5.90000010        -1.80586632E-02
   5.94999981        -1.96044408E-02
   6.00000000        -2.12889668E-02
   6.05000019        -2.31061336E-02
   6.09999990        -2.50423998E-02
   6.15000010        -2.70859301E-02
   6.19999981        -2.92372145E-02
   6.25000000        -3.15166228E-02
   6.30000019        -3.39650102E-02
   6.34999990        -3.66359539E-02
   6.40000010        -3.95816863E-02
   6.44999981        -4.28375304E-02
   6.50000000        -4.64110225E-02
   6.55000019        -5.02805598E-02
   6.59999990        -5.44051677E-02
   6.65000010        -5.87426648E-02
   6.69999981        -6.32699281E-02
   6.75000000        -6.79977909E-02
   6.80000019        -7.29744658E-02
   6.84999990        -7.82757029E-02
   6.90000010        -8.39848965E-02
   6.94999981        -9.01703313E-02
   7.00000000        -9.68683213E-02
   7.05000019       -0.104078926    
   7.09999990       -0.111776382    
   7.15000010       -0.119930319    
   7.19999981       -0.128529698    
   7.25000000       -0.137599975    
   7.30000019       -0.147206232    
   7.34999990       -0.157440752    
   7.40000010       -0.168399334    
   7.44999981       -0.180155694    
   7.50000000       -0.192744285    
   7.55000019       -0.206158459    
   7.59999990       -0.220365673    
   7.65000010       -0.235333785    
   7.69999981       -0.251058489    
   7.75000000       -0.267580956    
   7.80000019       -0.284988254    
   7.84999990       -0.303396523    
   7.90000010       -0.322923124    
   7.94999981       -0.343659103    
   8.00000000       -0.365653247    
   8.05000019       -0.388914376    
   8.10000038       -0.413431078    
   8.14999962       -0.439201266    
   8.19999981       -0.466258794    
   8.25000000       -0.494686335    
   8.30000019       -0.524608493    
   8.35000038       -0.556167126    
   8.39999962       -0.589489162    
   8.44999981       -0.624659598    
   8.50000000       -0.661711454    
   8.55000019       -0.700638056    
   8.60000038       -0.741421759    
   8.64999962       -0.784070313    
   8.69999981       -0.828643262    
   8.75000000       -0.875259578    
   8.80000019       -0.924081147    
   8.85000038       -0.975279272    
   8.89999962        -1.02899611    
   8.94999981        -1.08531880    
   9.00000000        -1.14427507    
   9.05000019        -1.20585501    
   9.10000038        -1.27004850    
   9.14999962        -1.33688533    
   9.19999981        -1.40646112    
   9.25000000        -1.47893655    
   9.30000019        -1.55451214    
   9.35000038        -1.63338637    
   9.39999962        -1.71571445    
   9.44999981        -1.80158401    
   9.50000000        -1.89101779    
   9.55000019        -1.98400247    
   9.60000038        -2.08053184    
   9.64999962        -2.18064475    
   9.69999981        -2.28444481    
   9.75000000        -2.39209414    
   9.80000019        -2.50377846    
   9.85000038        -2.61966825    
   9.89999962        -2.73988175    
   9.94999981        -2.86447501    
   10.0000000        -2.99345827    
   10.0500002        -3.12683177    
   10.1000004        -3.26462913    
   10.1499996        -3.40694356    
   10.1999998        -3.55392981    
   10.2500000        -3.70577598    
   10.3000002        -3.86265826    
   10.3500004        -4.02469730    
   10.3999996        -4.19193792    
   10.4499998        -4.36435604    
   10.5000000        -4.54190254    
   10.5500002        -4.72455311    
   10.6000004        -4.91235590    
   10.6499996        -5.10544729    
   10.6999998        -5.30402756    
   10.7500000        -5.50830936    
   10.8000002        -5.71845341    
   10.8500004        -5.93451881    
   10.8999996        -6.15645266    
   10.9499998        -6.38412142    
   11.0000000        -6.61737967    
   11.0500002        -6.85614300    
   11.1000004        -7.10044289    
   11.1499996        -7.35043478    
   11.1999998        -7.60635805    
   11.2500000        -7.86845636    
   11.3000002        -8.13689804    
   11.3500004        -8.41171360    
   11.3999996        -8.69279385    
   11.4499998        -8.97992706    
   11.5000000        -9.27288532    
   11.5500002        -9.57150936    
   11.6000004        -9.87576389    
   11.6499996        -10.1857491    
   11.6999998        -10.5016518    
   11.7500000        -10.8236656    
   11.8000002        -11.1519032    
   11.8500004        -11.4863472    
   11.8999996        -11.8268528    
   11.9499998        -12.1731911    
   12.0000000        -12.5251293    
   12.0500002        -12.8825130    
   12.1000004        -13.2452993    
   12.1499996        -13.6135483    
   12.1999998        -13.9873657    
   12.2500000        -14.3668337    
   12.3000002        -14.7519331    
   12.3500004        -15.1425314    
   12.3999996        -15.5384045    
   12.4499998        -15.9393063    
   12.5000000        -16.3450451    
   12.5500002        -16.7555351    
   12.6000004        -17.1708088    
   12.6499996        -17.5909672    
   12.6999998        -18.0160904    
   12.7500000        -18.4461727    
   12.8000002        -18.8810616    
   12.8500004        -19.3204823    
   12.8999996        -19.7640896    
   12.9499998        -20.2115669    
   13.0000000        -20.6627121    
   13.0500002        -21.1174755    
   13.1000004        -21.5759411    
   13.1499996        -22.0382423    
   13.1999998        -22.5044594    
   13.2500000        -22.9745426    
   13.3000002        -23.4482632    
   13.3500004        -23.9252625    
   13.3999996        -24.4051418    
   13.4499998        -24.8875656    
   13.5000000        -25.3723602    
   13.5500002        -25.8595238    
   13.6000004        -26.3492031    
   13.6499996        -26.8415775    
   13.6999998        -27.3367500    
   13.7500000        -27.8346615    
   13.8000002        -28.3350754    
   13.8500004        -28.8376198    
   13.8999996        -29.3418999    
   13.9499998        -29.8476067    
   14.0000000        -30.3545914    
   14.0500002        -30.8628826    
   14.1000004        -31.3726254    
   14.1499996        -31.8839684    
   14.1999998        -32.3969765    
   14.2500000        -32.9115372    
   14.3000002        -33.4273949    
   14.3500004        -33.9441948    
   14.3999996        -34.4616013    
   14.4499998        -34.9793892    
   14.5000000        -35.4975014    
   14.5500002        -36.0160408    
   14.6000004        -36.5351753    
   14.6499996        -37.0550537    
   14.6999998        -37.5757065    
   14.7500000        -38.0970116    
   14.8000002        -38.6187057    
   14.8500004        -39.1404724    
   14.8999996        -39.6620483    
   14.9499998        -40.1832771    
   15.0000000        -40.7041588    
   15.0500002        -41.2248154    
   15.1000004        -41.7453995    
   15.1499996        -42.2660103    
   15.1999998        -42.7866249    
   15.2500000        -43.3070908    
   15.3000002        -43.8271675    
   15.3500004        -44.3465958    
   15.3999996        -44.8651962    
   15.4499998        -45.3828735    
   15.5000000        -45.8996620    
   15.5500002        -46.4156609    
   15.6000004        -46.9309616    
   15.6499996        -47.4456062    
   15.6999998        -47.9595299    
   15.7500000        -48.4725876    
   15.8000002        -48.9846001    
   15.8500004        -49.4953995    
   15.8999996        -50.0048981    
   15.9499998        -50.5130539    
   16.0000000        -51.0198936    
   16.0499992        -51.5254326    
   16.1000004        -52.0296555    
   16.1499996        -52.5324669    
   16.2000008        -53.0337334    
   16.2500000        -53.5332794    
   16.2999992        -54.0309753    
   16.3500004        -54.5267067    
   16.3999996        -55.0204163    
   16.4500008        -55.5120392    
   16.5000000        -56.0014839    
   16.5499992        -56.4885826    
   16.6000004        -56.9731102    
   16.6499996        -57.4547997    
   16.7000008        -57.9333954    
   16.7500000        -58.4087067    
   16.7999992        -58.8806152    
   16.8500004        -59.3490448    
   16.8999996        -59.8139305    
   16.9500008        -60.2751198    
   17.0000000        -60.7323341    
   17.0499992        -61.1851807    
   17.1000004        -61.6331863    
   17.1499996        -62.0758705    
   17.2000008        -62.5128708    
   17.2500000        -62.9439430    
   17.2999992        -63.3689575    
   17.3500004        -63.7878304    
   17.3999996        -64.2003860    
   17.4500008        -64.6062698    
   17.5000000        -65.0049057    
   17.5499992        -65.3955307    
   17.6000004        -65.7773361    
   17.6499996        -66.1495743    
   17.7000008        -66.5116959    
   17.7500000        -66.8633652    
   17.7999992        -67.2043915    
   17.8500004        -67.5345993    
   17.8999996        -67.8536530    
   17.9500008        -68.1609421    
   18.0000000        -68.4555588    
   18.0499992        -68.7363968    
   18.1000004        -69.0023270    
   18.1499996        -69.2523575    
   18.2000008        -69.4857864    
   18.2500000        -69.7021484    
   18.2999992        -69.9011917    
   18.3500004        -70.0825806    
   18.3999996        -70.2457428    
   18.4500008        -70.3897400    
   18.5000000        -70.5132751    
   18.5499992        -70.6148453    
   18.6000004        -70.6929779    
   18.6499996        -70.7464142    
   18.7000008        -70.7742615    
   18.7500000        -70.7759018    
   18.7999992        -70.7509308    
   18.8500004        -70.6987991    
   18.8999996        -70.6186981    
   18.9500008        -70.5094299    
   19.0000000        -70.3694458    
   19.0499992        -70.1970673    
   19.1000004        -69.9906921    
   19.1499996        -69.7490234    
   19.2000008        -69.4711151    
   19.2500000        -69.1563721    
   19.2999992        -68.8042374    
   19.3500004        -68.4140167    
   19.3999996        -67.9846878    
   19.4500008        -67.5148468    
   19.5000000        -67.0028152    
   19.5499992        -66.4468765    
   19.6000004        -65.8454971    
   19.6499996        -65.1975479    
   19.7000008        -64.5023041    
   19.7500000        -63.7593117    
   19.7999992        -62.9681549    
   19.8500004        -62.1282272    
   19.8999996        -61.2385826    
   19.9500008        -60.2979240    
   20.0000000        -59.3047981    
   20.0499992        -58.2578049    
   20.1000004        -57.1558418    
   20.1499996        -55.9982414    
   20.2000008        -54.7847099    
   20.2500000        -53.5151863    
   20.2999992        -52.1895714    
   20.3500004        -50.8075714    
   20.3999996        -49.3685837    
   20.4500008        -47.8717842    
   20.5000000        -46.3163223    
   20.5499992        -44.7015419    
   20.6000004        -43.0271645    
   20.6499996        -41.2933350    
   20.7000008        -39.5005150    
   20.7500000        -37.6493225    
   20.7999992        -35.7402763    
   20.8500004        -33.7737083    
   20.8999996        -31.7497368    
   20.9500008        -29.6684170    
   21.0000000        -27.5299320    
   21.0499992        -25.3347855    
   21.1000004        -23.0838795    
   21.1499996        -20.7784824    
   21.2000008        -18.4200611    
   21.2500000        -16.0100899    
   21.2999992        -13.5499058    
   21.3500004        -11.0406733    
   21.3999996        -8.48348141    
   21.4500008        -5.87953329    
   21.5000000        -3.23033500    
   21.5499992       -0.537801325    
   21.6000004         2.19576859    
   21.6499996         4.96784782    
   21.7000008         7.77589464    
   21.7500000         10.6175394    
   21.7999992         13.4906540    
   21.8500004         16.3932705    
   21.8999996         19.3233833    
   21.9500008         22.2787132    
   22.0000000         25.2565384    
   22.0499992         28.2536793    
   22.1000004         31.2666378    
   22.1499996         34.2918434    
   22.2000008         37.3259048    
   22.2500000         40.3657761    
   22.2999992         43.4087296    
   22.3500004         46.4521751    
   22.3999996         49.4933853    
   22.4500008         52.5292511    
   22.5000000         55.5561600    
   22.5499992         58.5700836    
   22.6000004         61.5668068    
   22.6499996         64.5422897    
   22.7000008         67.4928818    
   22.7500000         70.4154358    
   22.7999992         73.3072128    
   22.8500004         76.1655502    
   22.8999996         78.9875717    
   22.9500008         81.7699356    
   23.0000000         84.5087891    
   23.0499992         87.1999588    
   23.1000004         89.8392334    
   23.1499996         92.4228210    
   23.2000008         94.9475174    
   23.2500000         97.4107666    
   23.2999992         99.8104248    
   23.3500004         102.144440    
   23.3999996         104.410439    
   23.4500008         106.605598    
   23.5000000         108.726555    
   23.5499992         110.769775    
   23.6000004         112.731880    
   23.6499996         114.610100    
   23.7000008         116.402390    
   23.7500000         118.107430    
   23.7999992         119.724335    
   23.8500004         121.252243    
   23.8999996         122.689941    
   23.9500008         124.035721    
   24.0000000         125.287460    
   24.0499992         126.442932    
   24.1000004         127.500259    
   24.1499996         128.458221    
   24.2000008         129.316422    
   24.2500000         130.075180    
   24.2999992         130.735123    
   24.3500004         131.296921    
   24.3999996         131.760742    
   24.4500008         132.126404    
   24.5000000         132.393326    
   24.5499992         132.560928    
   24.6000004         132.629044    
   24.6499996         132.598221    
   24.7000008         132.469727    
   24.7500000         132.245483    
   24.7999992         131.927689    
   24.8500004         131.518372    
   24.8999996         131.019180    
   24.9500008         130.431381    
   25.0000000         129.755875    
   25.0499992         128.993652    
   25.1000004         128.146103    
   25.1499996         127.215202    
   25.2000008         126.203560    
   25.2500000         125.114235    
   25.2999992         123.950424    
   25.3500004         122.715149    
   25.3999996         121.411049    
   25.4500008         120.040375    
   25.5000000         118.605179    
   25.5499992         117.107552    
   25.6000004         115.549927    
   25.6499996         113.935165    
   25.7000008         112.266563    
   25.7500000         110.547676    
   25.7999992         108.782066    
   25.8500004         106.973068    
   25.8999996         105.123688    
   25.9500008         103.236649    
   26.0000000         101.314491    
   26.0499992         99.3597946    
   26.1000004         97.3753128    
   26.1499996         95.3640747    
   26.2000008         93.3293076    
   26.2500000         91.2743073    
   26.2999992         89.2022934    
   26.3500004         87.1163025    
   26.3999996         85.0191193    
   26.4500008         82.9133377    
   26.5000000         80.8014221    
   26.5499992         78.6858368    
   26.6000004         76.5690536    
   26.6499996         74.4535904    
   26.7000008         72.3419800    
   26.7500000         70.2366638    
   26.7999992         68.1400070    
   26.8500004         66.0542450    
   26.8999996         63.9815025    
   26.9500008         61.9238167    
   27.0000000         59.8831596    
   27.0499992         57.8614311    
   27.1000004         55.8604355    
   27.1499996         53.8818169    
   27.2000008         51.9270706    
   27.2500000         49.9975700    
   27.2999992         48.0945854    
   27.3500004         46.2193947    
   27.3999996         44.3733063    
   27.4500008         42.5576515    
   27.5000000         40.7737198    
   27.5499992         39.0226669    
   27.6000004         37.3054199    
   27.6499996         35.6226196    
   27.7000008         33.9746704    
   27.7500000         32.3618317    
   27.7999992         30.7843742    
   27.8500004         29.2426929    
   27.8999996         27.7373543    
   27.9500008         26.2690392    
   28.0000000         24.8384056    
   28.0499992         23.4459152    
   28.1000004         22.0917015    
   28.1499996         20.7755451    
   28.2000008         19.4969521    
   28.2500000         18.2553368    
   28.2999992         17.0502148    
   28.3500004         15.8813534    
   28.3999996         14.7487879    
   28.4500008         13.6527166    
   28.5000000         12.5933094    
   28.5499992         11.5704889    
   28.6000004         10.5838089    
   28.6499996         9.63244820    
   28.7000008         8.71535015    
   28.7500000         7.83144617    
   28.7999992         6.97987461    
   28.8500004         6.16010761    
   28.8999996         5.37192726    
   28.9500008         4.61526823    
   29.0000000         3.88998461    
   29.0499992         3.19563675    
   29.1000004         2.53138971    
   29.1499996         1.89606667    
   29.2000008         1.28833318    
   29.2500000        0.706950545    
   29.2999992        0.150985494    
   29.3500004       -0.380102247    
   29.3999996       -0.886532903    
   29.4500008        -1.36840844    
   29.5000000        -1.82596612    
   29.5499992        -2.25977445    
   29.6000004        -2.67079687    
   29.6499996        -3.06029773    
   29.7000008        -3.42962408    
   29.7500000        -3.77995849    
   29.7999992        -4.11213684    
   29.8500004        -4.42660666    
   29.8999996        -4.72353268    
   29.9500008        -5.00301600    
   30.0000000        -5.26532745    
   30.0499992        -5.51106119    
   30.1000004        -5.74115133    
   30.1499996        -5.95674467    
   30.2000008        -6.15898228    
   30.2500000        -6.34878445    
   30.2999992        -6.52671814    
   30.3500004        -6.69300604    
   30.3999996        -6.84766483    
   30.4500008        -6.99072027    