  -10.0000000       0.00000000    
  -9.94999981       0.00000000    
  -9.89999962       0.00000000    
  -9.85000038       0.00000000    
  -9.80000019       0.00000000    
  -9.75000000       0.00000000    
  -9.69999981       0.00000000    
  -9.64999962       0.00000000    
  -9.60000038       1.04430719E-22
  -9.55000019       7.94886477E-23
  -9.50000000      -2.60123847E-21
  -9.44999981      -1.03402165E-20
  -9.39999962      -1.39316974E-20
  -9.35000038      -1.67314679E-20
  -9.30000019      -1.39100863E-19
  -9.25000000      -5.12708516E-19
  -9.19999981      -3.49041448E-19
  -9.14999962       2.93258047E-18
  -9.10000038       9.93548389E-18
  -9.05000019       8.09335597E-18
  -9.00000000      -3.07181627E-17
  -8.94999981      -1.05465462E-16
  -8.89999962      -9.48108132E-17
  -8.85000038       2.35990341E-16
  -8.80000019       8.88457199E-16
  -8.75000000       1.02501342E-15
  -8.69999981      -9.74950275E-16
  -8.64999962      -5.47957641E-15
  -8.60000038      -8.11284176E-15
  -8.55000019       4.88471778E-16
  -8.50000000       2.51492874E-14
  -8.44999981       4.85843089E-14
  -8.39999962       2.58877494E-14
  -8.35000038      -7.93879597E-14
  -8.30000019      -2.18068741E-13
  -8.25000000      -2.09969263E-13
  -8.19999981       1.48534573E-13
  -8.14999962       7.90704741E-13
  -8.10000038       1.11985096E-12
  -8.05000019       2.26881543E-13
  -8.00000000      -2.15942303E-12
  -7.94999981      -4.51560143E-12
  -7.90000010      -3.57409978E-12
  -7.84999990       3.16326262E-12
  -7.80000019       1.32518406E-11
  -7.75000000       1.73209693E-11
  -7.69999981       4.05500720E-12
  -7.65000010      -2.74806324E-11
  -7.59999990      -5.67162949E-11
  -7.55000019      -4.64643012E-11
  -7.50000000       2.78181905E-11
  -7.44999981       1.38009715E-10
  -7.40000010       1.90275323E-10
  -7.34999990       7.63018398E-11
  -7.30000019      -2.17406787E-10
  -7.25000000      -5.18561083E-10
  -7.19999981      -5.10896991E-10
  -7.15000010       3.66170878E-11
  -7.09999990       9.61140389E-10
  -7.05000019       1.58824776E-09
  -7.00000000       1.06407128E-09
  -6.94999981      -8.95491847E-10
  -6.90000010      -3.32521788E-09
  -6.84999990      -4.13990620E-09
  -6.80000019      -1.47160328E-09
  -6.75000000       4.34766889E-09
  -6.69999981       9.72054259E-09
  -6.65000010       9.25229759E-09
  -6.59999990      -1.49734600E-10
  -6.55000019      -1.49633852E-08
  -6.50000000      -2.45586111E-08
  -6.44999981      -1.71664354E-08
  -6.40000010       9.77181802E-09
  -6.34999990       4.22701696E-08
  -6.30000019       5.39590594E-08
  -6.25000000       2.38265514E-08
  -6.19999981      -4.20329336E-08
  -6.15000010      -1.02705144E-07
  -6.09999990      -1.02595699E-07
  -6.05000019      -1.41410466E-08
  -6.00000000       1.25228283E-07
  -5.94999981       2.17644015E-07
  -5.90000010       1.64705000E-07
  -5.84999990      -4.73121275E-08
  -5.80000019      -3.01878572E-07
  -5.75000000      -4.01919038E-07
  -5.69999981      -2.07788872E-07
  -5.65000010       2.23554835E-07
  -5.59999990       6.17899559E-07
  -5.55000019       6.40395854E-07
  -5.50000000       1.55097212E-07
  -5.44999981      -5.99687610E-07
  -5.40000010      -1.09465611E-06
  -5.34999990      -8.59242220E-07
  -5.30000019       1.17229391E-07
  -5.25000000       1.25222130E-06
  -5.19999981       1.68690360E-06
  -5.15000010       9.08913876E-07
  -5.09999990      -7.53134486E-07
  -5.05000019      -2.19699609E-06
  -5.00000000      -2.25020835E-06
  -4.94999981      -5.82266125E-07
  -4.90000010       1.86210968E-06
  -4.84999990       3.35042387E-06
  -4.80000019       2.56182125E-06
  -4.75000000      -3.15246979E-07
  -4.69999981      -3.46359502E-06
  -4.65000010      -4.55199961E-06
  -4.59999990      -2.42086162E-06
  -4.55000019       1.86362104E-06
  -4.50000000       5.47438140E-06
  -4.44999981       5.66258541E-06
  -4.40000010       1.77972424E-06
  -4.34999990      -3.97837721E-06
  -4.30000019      -7.78604954E-06
  -4.25000000      -6.69557403E-06
  -4.19999981      -7.96802681E-07
  -4.15000010       6.50216543E-06
  -4.09999990       1.04272121E-05
  -4.05000019       7.89565820E-06
  -4.00000000      -2.55713331E-07
  -3.95000005      -9.39110851E-06
  -3.90000010      -1.36632107E-05
  -3.84999990      -9.64246919E-06
  -3.79999995       1.19573315E-06
  -3.75000000       1.28018819E-05
  -3.70000005       1.78187620E-05
  -3.65000010       1.21066269E-05
  -3.59999990      -2.15637669E-06
  -3.54999995      -1.69805317E-05
  -3.50000000      -2.29006000E-05
  -3.45000005      -1.49153238E-05
  -3.40000010       3.62532933E-06
  -3.34999990       2.20772235E-05
  -3.29999995       2.85270489E-05
  -3.25000000       1.74421039E-05
  -3.20000005      -5.97525468E-06
  -3.15000010      -2.80290496E-05
  -3.09999990      -3.45602821E-05
  -3.04999995      -1.99785445E-05
  -3.00000000       8.52740413E-06
  -2.95000005       3.45865410E-05
  -2.90000010       4.21084842E-05
  -2.84999990       2.49456170E-05
  -2.79999995      -8.99718361E-06
  -2.75000000      -4.15542490E-05
  -2.70000005      -5.38332024E-05
  -2.65000010      -3.64588996E-05
  -2.59999990       4.55543568E-06
  -2.54999995       4.92735089E-05
  -2.50000000       7.25963691E-05
  -2.45000005       5.72282952E-05
  -2.40000010       5.12700035E-06
  -2.34999990      -5.93592013E-05
  -2.29999995      -9.91439811E-05
  -2.25000000      -8.47805641E-05
  -2.20000005      -1.52999110E-05
  -2.15000010       7.47589002E-05
  -2.09999990       1.30942790E-04
  -2.04999995       1.11724403E-04
  -2.00000000       1.89484308E-05
  -1.95000005      -9.65383733E-05
  -1.89999998      -1.62553071E-04
  -1.85000002      -1.31787441E-04
  -1.79999995      -1.59699921E-05
  -1.75000000       1.17424213E-04
  -1.70000005       1.86420555E-04
  -1.64999998       1.46943741E-04
  -1.60000002       2.07481244E-05
  -1.54999995      -1.19521254E-04
  -1.50000000      -1.96081121E-04
  -1.45000005      -1.70364510E-04
  -1.39999998      -5.86931492E-05
  -1.35000002       8.40524081E-05
  -1.29999995       1.94508379E-04
  -1.25000000       2.24389223E-04
  -1.20000005       1.52301989E-04
  -1.14999998      -8.24809922E-06
  -1.10000002      -2.00939510E-04
  -1.04999995      -3.31395218E-04
  -1.00000000      -3.03222740E-04
 -0.949999988      -8.26254691E-05
 -0.899999976       2.47562566E-04
 -0.850000024       5.00012946E-04
 -0.800000012       4.83399344E-04
 -0.750000000       1.43390687E-04
 -0.699999988      -3.57913494E-04
 -0.649999976      -7.07411789E-04
 -0.600000024      -6.38008176E-04
 -0.550000012      -1.33201916E-04
 -0.500000000       5.18249755E-04
 -0.449999988       8.86757218E-04
 -0.400000006       6.94302260E-04
 -0.349999994       3.07615883E-05
 -0.300000012      -6.77795091E-04
 -0.250000000      -9.50020098E-04
 -0.200000003      -5.90280688E-04
 -0.150000006       1.59663527E-04
 -0.100000001       7.81868002E-04
  -5.00000007E-02   8.49425909E-04
   0.00000000       3.33354576E-04
   5.00000007E-02  -3.80346813E-04
  0.100000001      -7.78954651E-04
  0.150000006      -6.00996951E-04
  0.200000003      -1.86680045E-05
  0.250000000       5.10621059E-04
  0.300000012       6.04055240E-04
  0.349999994       2.41844114E-04
  0.400000006      -2.39313813E-04
  0.449999988      -4.36696195E-04
  0.500000000      -2.15736363E-04
  0.550000012       1.85361132E-04
  0.600000024       3.70125141E-04
  0.649999976       1.38871183E-04
  0.699999988      -3.16679478E-04
  0.750000000      -5.59134758E-04
  0.800000012      -2.88918964E-04
  0.850000024       3.52932082E-04
  0.899999976       8.41981149E-04
  0.949999988       6.83400838E-04
   1.00000000      -1.32728528E-04
   1.04999995      -1.03030913E-03
   1.10000002      -1.24219758E-03
   1.14999998      -4.39074705E-04
   1.20000005       9.08967282E-04
   1.25000000       1.79066090E-03
   1.29999995       1.40789640E-03
   1.35000002      -1.33183683E-04
   1.39999998      -1.77842565E-03
   1.45000005      -2.25646584E-03
   1.50000000      -1.08098681E-03
   1.54999995       9.70650290E-04
   1.60000002       2.35866662E-03
   1.64999998       1.95726799E-03
   1.70000005       6.41309725E-06
   1.75000000      -1.97654334E-03
   1.79999995      -2.35444820E-03
   1.85000002      -7.25947320E-04
   1.89999998       1.63998047E-03
   1.95000005       2.74597039E-03
   2.00000000       1.51288556E-03
   2.04999995      -1.20463513E-03
   2.09999990      -3.17230728E-03
   2.15000010      -2.57037720E-03
   2.20000005       3.85498890E-04
   2.25000000       3.41109582E-03
   2.29999995       3.89431929E-03
   2.34999990       1.09749113E-03
   2.40000010      -3.01666488E-03
   2.45000005      -5.16499579E-03
   2.50000000      -3.37008038E-03
   2.54999995       1.29067095E-03
   2.59999990       5.31735225E-03
   2.65000010       5.47326542E-03
   2.70000005       1.42666115E-03
   2.75000000      -3.84237431E-03
   2.79999995      -6.28773449E-03
   2.84999990      -3.98654770E-03
   2.90000010       1.31700316E-03
   2.95000005       5.57856401E-03
   3.00000000       5.65547589E-03
   3.04999995       1.74030464E-03
   3.09999990      -2.95318686E-03
   3.15000010      -4.92679002E-03
   3.20000005      -3.20343138E-03
   3.25000000       1.20445926E-04
   3.29999995       1.96443102E-03
   3.34999990       1.06775877E-03
   3.40000010      -1.00534037E-03
   3.45000005      -1.51788245E-03
   3.50000000       6.58262055E-04
   3.54999995       3.74920992E-03
   3.59999990       4.59762244E-03
   3.65000010       1.68699911E-03
   3.70000005      -3.06729903E-03
   3.75000000      -5.63973840E-03
   3.79999995      -3.42732668E-03
   3.84999990       2.07552221E-03
   3.90000010       6.04227278E-03
   3.95000005       4.23571048E-03
   4.00000000      -2.99117784E-03
   4.05000019      -1.02376593E-02
   4.09999990      -1.09323608E-02
   4.15000010      -2.79296516E-03
   4.19999981       9.60767549E-03
   4.25000000       1.75846368E-02
   4.30000019       1.46894678E-02
   4.34999990       1.88283902E-03
   4.40000010      -1.25576584E-02
   4.44999981      -1.87300593E-02
   4.50000000      -1.23250075E-02
   4.55000019       2.08822615E-03
   4.59999990       1.41967060E-02
   4.65000010       1.53580708E-02
   4.69999981       4.86604590E-03
   4.75000000      -9.52048786E-03
   4.80000019      -1.72028597E-02
   4.84999990      -1.24134552E-02
   4.90000010       1.61908614E-03
   4.94999981       1.50174433E-02
   5.00000000       1.83765702E-02
   5.05000019       9.48131084E-03
   5.09999990      -5.15240757E-03
   5.15000010      -1.51405009E-02
   5.19999981      -1.37026077E-02
   5.25000000      -2.59701069E-03
   5.30000019       9.28286836E-03
   5.34999990       1.26896715E-02
   5.40000010       4.99910535E-03
   5.44999981      -7.64220767E-03
   5.50000000      -1.48873832E-02
   5.55000019      -1.01667522E-02
   5.59999990       3.79294925E-03
   5.65000010       1.65983308E-02
   5.69999981       1.78501122E-02
   5.75000000       5.42801712E-03
   5.80000019      -1.21633587E-02
   5.84999990      -2.17282083E-02
   5.90000010      -1.53331375E-02
   5.94999981       3.15605244E-03
   6.00000000       2.02130862E-02
   6.05000019       2.27119233E-02
   6.09999990       8.00654478E-03
   6.15000010      -1.34339808E-02
   6.19999981      -2.55326759E-02
   6.25000000      -1.87206622E-02
   6.30000019       2.47455062E-03
   6.34999990       2.25074962E-02
   6.40000010       2.63064578E-02
   6.44999981       1.06295124E-02
   6.50000000      -1.32420193E-02
   6.55000019      -2.80428994E-02
   6.59999990      -2.31099632E-02
   6.65000010      -2.22209375E-03
   6.69999981       1.96393933E-02
   6.75000000       2.74022296E-02
   6.80000019       1.66042689E-02
   6.84999990      -4.12909547E-03
   6.90000010      -2.01436672E-02
   6.94999981      -2.13481989E-02
   7.00000000      -8.62997957E-03
   7.05000019       8.10254086E-03
   7.09999990       1.75906159E-02
   7.15000010       1.48678850E-02
   7.19999981       3.33490316E-03
   7.25000000      -8.77148006E-03
   7.30000019      -1.42748412E-02
   7.34999990      -1.09932302E-02
   7.40000010      -2.08431110E-03
   7.44999981       6.75247796E-03
   7.50000000       1.05272010E-02
   7.55000019       7.54775386E-03
   7.59999990      -6.47796551E-05
   7.65000010      -7.23662414E-03
   7.69999981      -8.70217942E-03
   7.75000000      -2.42374395E-03
   7.80000019       8.02946463E-03
   7.84999990       1.47841936E-02
   7.90000010       1.07003935E-02
   7.94999981      -4.47618309E-03
   8.00000000      -2.18645725E-02
   8.05000019      -2.80311890E-02
   8.10000038      -1.46535831E-02
   8.14999962       1.33816302E-02
   8.19999981       3.86927798E-02
   8.25000000       4.20740619E-02
   8.30000019       1.68926623E-02
   8.35000038      -2.39442214E-02
   8.39999962      -5.42524345E-02
   8.44999981      -5.19491360E-02
   8.50000000      -1.53397014E-02
   8.55000019       3.36469710E-02
   8.60000038       6.30422160E-02
   8.64999962       5.24900407E-02
   8.69999981       8.02912749E-03
   8.75000000      -4.11649272E-02
   8.80000019      -6.23384044E-02
   8.85000038      -4.17817831E-02
   8.89999962       5.62176201E-03
   8.94999981       4.67751250E-02
   9.00000000       5.36798313E-02
   9.05000019       2.29569096E-02
   9.10000038      -2.21281201E-02
   9.14999962      -4.88137417E-02
   9.19999981      -3.85306850E-02
   9.25000000      -1.76410569E-04
   9.30000019       3.67730893E-02
   9.35000038       4.43288125E-02
   9.39999962       1.69259086E-02
   9.44999981      -2.42910869E-02
   9.50000000      -4.72383797E-02
   9.55000019      -3.31755467E-02
   9.60000038       8.61338619E-03
   9.64999962       4.70645316E-02
   9.69999981       5.21968938E-02
   9.75000000       1.79214422E-02
   9.80000019      -3.25071141E-02
   9.85000038      -6.27598986E-02
   9.89999962      -4.98622172E-02
   9.94999981      -1.28048903E-03
   10.0000000       4.98919412E-02
   10.0500002       6.82809874E-02
   10.1000004       4.11200039E-02
   10.1499996      -1.31141376E-02
   10.1999998      -5.80551475E-02
   10.2500000      -6.46390393E-02
   10.3000002      -3.01452707E-02
   10.3500004       2.15294529E-02
   10.3999996       5.71450479E-02
   10.4499998       5.59739657E-02
   10.5000000       2.15537120E-02
   10.5500002      -2.29235217E-02
   10.6000004      -5.05887270E-02
   10.6499996      -4.69677895E-02
   10.6999998      -1.68072693E-02
   10.7500000       2.06853021E-02
   10.8000002       4.37950008E-02
   10.8500004       4.02682722E-02
   10.8999996       1.34424167E-02
   10.9499998      -2.00568382E-02
   11.0000000      -3.98114994E-02
   11.0500002      -3.36806364E-02
   11.1000004      -5.72133390E-03
   11.1499996       2.54667234E-02
   11.1999998       3.84261757E-02
   11.2500000       2.36953758E-02
   11.3000002      -8.47380515E-03
   11.3500004      -3.43966745E-02
   11.3999996      -3.41330804E-02
   11.4499998      -7.13930326E-03
   11.5000000       2.61253882E-02
   11.5500002       3.93064730E-02
   11.6000004       2.10629366E-02
   11.6499996      -1.50142526E-02
   11.6999998      -4.02657203E-02
   11.7500000      -3.37195843E-02
   11.8000002       5.24704519E-04
   11.8500004       3.57624218E-02
   11.8999996       4.37469743E-02
   11.9499998       1.74806900E-02
   12.0000000      -2.29330901E-02
   12.0500002      -4.62293327E-02
   12.1000004      -3.47641818E-02
   12.1499996       2.05843942E-03
   12.1999998       3.61794792E-02
   12.2500000       4.32709903E-02
   12.3000002       2.06387714E-02
   12.3500004      -1.31408814E-02
   12.3999996      -3.45575660E-02
   12.4499998      -3.26199383E-02
   12.5000000      -1.36421090E-02
   12.5500002       7.84573052E-03
   12.6000004       2.14317981E-02
   12.6499996       2.52323020E-02
   12.6999998       2.12663058E-02
   12.7500000       9.84119624E-03
   12.8000002      -9.21672955E-03
   12.8500004      -3.01685911E-02
   12.8999996      -3.94337066E-02
   12.9499998      -2.44280864E-02
   13.0000000       1.23632029E-02
   13.0500002       4.84133810E-02
   13.1000004       5.45296371E-02
   13.1499996       1.92086045E-02
   13.1999998      -3.66679430E-02
   13.2500000      -7.09195957E-02
   13.3000002      -5.23568690E-02
   13.3500004       1.08292075E-02
   13.3999996       7.22833574E-02
   13.4499998       8.14928561E-02
   13.5000000       2.54140720E-02
   13.5500002      -5.68204708E-02
   13.6000004     -0.101193182    
   13.6499996      -6.89591616E-02
   13.6999998       2.01481935E-02
   13.7500000       9.99793857E-02
   13.8000002      0.107994027    
   13.8500004       3.46614830E-02
   13.8999996      -6.72527254E-02
   13.9499998     -0.121880256    
   14.0000000      -8.79602581E-02
   14.0500002       9.66056436E-03
   14.1000004       9.89447609E-02
   14.1499996      0.114987634    
   14.1999998       4.79194708E-02
   14.2500000      -5.13485819E-02
   14.3000002     -0.110294811    
   14.3500004      -8.81341025E-02
   14.3999996      -3.75698810E-03
   14.4499998       8.04936811E-02
   14.5000000      0.104987681    
   14.5500002       5.44976629E-02
   14.6000004      -3.33247148E-02
   14.6499996      -9.63223949E-02
   14.6999998      -9.13677886E-02
   14.7500000      -2.29391232E-02
   14.8000002       6.13758042E-02
   14.8500004      0.103868842    
   14.8999996       7.55468160E-02
   14.9499998      -4.65142122E-03
   15.0000000      -8.25425163E-02
   15.0500002     -0.105007984    
   15.1000004      -5.61179742E-02
   15.1499996       3.12422551E-02
   15.1999998       9.70638320E-02
   15.2500000       9.55048427E-02
   15.3000002       2.75457799E-02
   15.3500004      -5.87601736E-02
   15.3999996     -0.101992466    
   15.4499998      -7.16648325E-02
   15.5000000       9.31431260E-03
   15.5500002       8.13970268E-02
   15.6000004       9.25232321E-02
   15.6499996       3.65869775E-02
   15.6999998      -4.29956950E-02
   15.7500000      -8.71351287E-02
   15.8000002      -6.58291429E-02
   15.8500004       8.05160147E-04
   15.8999996       6.05815798E-02
   15.9499998       7.06928521E-02
   16.0000000       2.91825403E-02
   16.0499992      -2.73308549E-02
   16.1000004      -5.54038957E-02
   16.1499996      -3.86546329E-02
   16.2000008       3.03039048E-03
   16.2500000       3.37603241E-02
   16.2999992       3.20270397E-02
   16.3500004       5.68959629E-03
   16.3999996      -1.87622886E-02
   16.4500008      -2.07614508E-02
   16.5000000      -2.13732896E-03
   16.5499992       1.72024518E-02
   16.6000004       1.84064172E-02
   16.6499996       9.52772825E-06
   16.7000008      -2.17878856E-02
   16.7500000      -2.75466964E-02
   16.7999992      -1.06850201E-02
   16.8500004       1.75015908E-02
   16.8999996       3.65820564E-02
   16.9500008       3.17985937E-02
   17.0000000       4.28494299E-03
   17.0499992      -2.93660257E-02
   17.1000004      -4.71297652E-02
   17.1499996      -3.52149457E-02
   17.2000008       2.08362821E-03
   17.2500000       4.24763784E-02
   17.2999992       5.77715598E-02
   17.3500004       3.29671279E-02
   17.3999996      -1.96556449E-02
   17.4500008      -6.40237704E-02
   17.5000000      -6.37809560E-02
   17.5499992      -1.18008852E-02
   17.6000004       5.78805506E-02
   17.6499996       9.03877988E-02
   17.7000008       5.23753650E-02
   17.7500000      -3.57538126E-02
   17.7999992     -0.107938841    
   17.8500004     -0.101274602    
   17.8999996      -1.00215608E-02
   17.9500008      0.101282515    
   18.0000000      0.143031120    
   18.0499992       7.30087385E-02
   18.1000004      -6.27562180E-02
   18.1499996     -0.159365609    
   18.2000008     -0.134958372    
   18.2500000      -6.13278011E-04
   18.2999992      0.141875803    
   18.3500004      0.177961454    
   18.3999996       7.37135932E-02
   18.4500008      -9.25139934E-02
   18.5000000     -0.189562142    
   18.5499992     -0.138511524    
   18.6000004       2.20396053E-02
   18.6499996      0.165286168    
   18.7000008      0.177743122    
   18.7500000       5.05332984E-02
   18.7999992     -0.114060611    
   18.8500004     -0.185773417    
   18.8999996     -0.110704064    
   18.9500008       4.79219370E-02
   19.0000000      0.163689241    
   19.0499992      0.149073258    
   19.1000004       2.20602006E-02
   19.1499996     -0.113886282    
   19.2000008     -0.155536383    
   19.2500000      -7.92472064E-02
   19.2999992       4.77431901E-02
   19.3500004      0.126881033    
   19.3999996      0.105729461    
   19.4500008       1.16823614E-02
   19.5000000      -7.83649981E-02
   19.5499992     -0.100939937    
   19.6000004      -4.96845022E-02
   19.6499996       2.92664487E-02
   19.7000008       7.81621113E-02
   19.7500000       6.85903057E-02
   19.7999992       1.43573601E-02
   19.8500004      -4.52319086E-02
   19.8999996      -7.31719732E-02
   19.9500008      -5.45214340E-02
   20.0000000      -1.14032906E-03
   20.0499992       5.59079610E-02
   20.1000004       8.15458745E-02
   20.1499996       5.57328127E-02
   20.2000008      -1.11732539E-02
   20.2500000      -7.83999190E-02
   20.2999992      -9.73684564E-02
   20.3500004      -4.71197218E-02
   20.3999996       4.32387590E-02
   20.4500008      0.108509660    
   20.5000000       9.47131738E-02
   20.5499992       5.47364261E-03
   20.6000004      -9.32806954E-02
   20.6499996     -0.121251173    
   20.7000008      -5.01186475E-02
   20.7500000       6.72538057E-02
   20.7999992      0.134637624    
   20.8500004       9.11105648E-02
   20.8999996      -3.40746045E-02
   20.9500008     -0.139860749    
   21.0000000     -0.134741977    
   21.0499992      -1.53406188E-02
   21.1000004      0.125612602    
   21.1499996      0.172295958    
   21.2000008       8.16543326E-02
   21.2500000      -7.81258419E-02
   21.2999992     -0.180585906    
   21.3500004     -0.143241182    
   21.3999996       5.06800925E-03
   21.4500008      0.147327453    
   21.5000000      0.172990769    
   21.5499992       6.57345429E-02
   21.6000004      -8.63364786E-02
   21.6499996     -0.164068773    
   21.7000008     -0.112095654    
   21.7500000       2.15326585E-02
   21.7999992      0.129177749    
   21.8500004      0.130999401    
   21.8999996       3.40322629E-02
   21.9500008      -8.05568621E-02
   22.0000000     -0.125718743    
   22.0499992      -7.43376315E-02
   22.1000004       2.69737653E-02
   22.1499996      0.100158796    
   22.2000008       9.56560671E-02
   22.2500000       2.39510201E-02
   22.2999992      -5.92551455E-02
   22.3500004      -9.63989794E-02
   22.3999996      -6.61036745E-02
   22.4500008       7.46341795E-03
   22.5000000       7.43825883E-02
   22.5499992       9.13545862E-02
   22.6000004       4.73914258E-02
   22.6499996      -2.99289878E-02
   22.7000008      -9.03132111E-02
   22.7500000      -9.13008675E-02
   22.7999992      -2.74904594E-02
   22.8500004       6.10536262E-02
   22.8999996      0.111664549    
   22.9500008       8.27697963E-02
   23.0000000      -1.12668136E-02
   23.0499992     -0.103959307    
   23.1000004     -0.122987151    
   23.1499996      -4.73271050E-02
   23.2000008       7.04804733E-02
   23.2500000      0.140056998    
   23.2999992      0.103358634    
   23.3500004      -1.59502123E-02
   23.3999996     -0.126945242    
   23.4500008     -0.141874358    
   23.5000000      -4.72748727E-02
   23.5499992       8.34001228E-02
   23.6000004      0.147823274    
   23.6499996       9.70268473E-02
   23.7000008      -2.58452557E-02
   23.7500000     -0.122070484    
   23.7999992     -0.118194386    
   23.8500004      -2.36466285E-02
   23.8999996       8.11381564E-02
   23.9500008      0.113493413    
   24.0000000       5.46789505E-02
   24.0499992      -4.04551327E-02
   24.1000004      -9.40005928E-02
   24.1499996      -6.92997649E-02
   24.2000008       4.88013308E-03
   24.2500000       6.54983968E-02
   24.2999992       6.95886761E-02
   24.3500004       2.41803583E-02
   24.3999996      -2.86655724E-02
   24.4500008      -5.14937043E-02
   24.5000000      -3.81823741E-02
   24.5499992      -8.58153310E-03
   24.6000004       1.58708598E-02
   24.6499996       2.82749329E-02
   24.7000008       3.15504707E-02
   24.7500000       2.52418891E-02
   24.7999992       3.77013977E-03
   24.8500004      -3.03582568E-02
   24.8999996      -5.63727394E-02
   24.9500008      -4.65888679E-02
   25.0000000       5.34536224E-03
   25.0499992       6.72807097E-02
   25.1000004       8.65930617E-02
   25.1499996       3.53321619E-02
   25.2000008      -5.65753877E-02
   25.2500000     -0.116090707    
   25.2999992      -8.55579525E-02
   25.3500004       2.25184951E-02
   25.3999996      0.125967294    
   25.4500008      0.136110470    
   25.5000000       3.44125591E-02
   25.5499992     -0.104341678    
   25.6000004     -0.167843416    
   25.6499996      -9.88275558E-02
   25.7000008       5.31838685E-02
   25.7500000      0.167809859    
   25.7999992      0.150967330    
   25.8500004       1.33658163E-02
   25.8999996     -0.136079922    
   25.9500008     -0.178008497    
   26.0000000      -7.94411078E-02
   26.0499992       8.00858065E-02
   26.1000004      0.173877046    
   26.1499996      0.130098268    
   26.2000008      -1.29454695E-02
   26.2500000     -0.140999928    
   26.2999992     -0.156405732    
   26.3500004      -5.27851656E-02
   26.3999996       8.55266377E-02
   26.4500008      0.153488532    
   26.5000000      0.105491593    
   26.5499992      -1.59217026E-02
   26.6000004     -0.118906178    
   26.6499996     -0.132515609    
   26.7000008      -5.39669208E-02
   26.7500000       5.69355488E-02
   26.7999992      0.124413572    
   26.8500004      0.107190944    
   26.8999996       2.06106063E-02
   26.9500008      -7.78182074E-02
   27.0000000     -0.125445276    
   27.0499992      -9.16156471E-02
   27.1000004       3.97397205E-03
   27.1499996      0.100983381    
   27.2000008      0.133470729    
   27.2500000       7.32959062E-02
   27.2999992      -4.50497083E-02
   27.3500004     -0.140226394    
   27.3999996     -0.137940943    
   27.4500008      -2.91053765E-02
   27.5000000      0.113411851    
   27.5499992      0.181170911    
   27.6000004      0.112470947    
   27.6499996      -5.19952774E-02
   27.7000008     -0.190190181    
   27.7500000     -0.189222366    
   27.7999992      -3.80523838E-02
   27.8500004      0.154407084    
   27.8999996      0.237889305    
   27.9500008      0.139382377    
   28.0000000      -7.31111318E-02
   28.0499992     -0.237596840    
   28.1000004     -0.223521456    
   28.1499996      -3.70060652E-02
   28.2000008      0.180162996    
   28.2500000      0.260117829    
   28.2999992      0.140981689    
   28.3500004      -8.41705501E-02
   28.3999996     -0.240775868    
   28.4500008     -0.209900349    
   28.5000000      -1.98055375E-02
   28.5499992      0.179468378    
   28.6000004      0.235499620    
   28.6499996      0.110835001    
   28.7000008      -9.29156393E-02
   28.7500000     -0.218650341    
   28.7999992     -0.175456047    
   28.8500004      -3.51177971E-03
   28.8999996      0.163419724    
   28.9500008      0.202805459    
   29.0000000       9.25989226E-02
   29.0499992      -7.94530436E-02
   29.1000004     -0.186624244    
   29.1499996     -0.156186432    
   29.2000008      -1.68151073E-02
   29.2500000      0.128453299    
   29.2999992      0.178173900    
   29.3500004      0.101667866    
   29.3999996      -4.39095609E-02
   29.4500008     -0.155886173    
   29.5000000     -0.156603619    
   29.5499992      -4.55150455E-02
   29.6000004      0.100238234    
   29.6499996      0.177333236    
   29.7000008      0.127308205    
   29.7500000      -1.97550319E-02
   29.7999992     -0.161139071    
   29.8500004     -0.191018492    
   29.8999996      -7.86496848E-02
   29.9500008      0.102021374    
   30.0000000      0.218961537    
   30.0499992      0.177800238    
   30.1000004      -2.13932083E-03
   30.1499996     -0.192998886    
   30.2000008     -0.248875514    
   30.2500000     -0.118152693    
   30.2999992      0.109480672    
   30.3500004      0.263933301    
   30.3999996      0.223057285    
   30.4500008       1.07032266E-02
   30.5000000     -0.215245366    
   30.5499992     -0.281056643    
   30.6000004     -0.132494390    
   30.6499996      0.119496986    
   30.7000008      0.281787455    
   30.7500000      0.228402913    
   30.7999992      -4.66063153E-04
   30.8500004     -0.228598103    
   30.8999996     -0.280419886    
   30.9500008     -0.117282368    
   31.0000000      0.133481532    
   31.0499992      0.278714776    
   31.1000004      0.209311694    
   31.1499996      -1.74251199E-02
   31.2000008     -0.225443244    
   31.2500000     -0.257611424    
   31.2999992      -9.48867574E-02
   31.3500004      0.133750528    
   31.3999996      0.254257768    
   31.4500008      0.180491954    
   31.5000000      -2.47480236E-02
   31.5499992     -0.203268722    
   31.6000004     -0.223716766    
   31.6499996      -7.77148083E-02
   31.7000008      0.119974688    
   31.7500000      0.221891314    
   31.7999992      0.157301784    
   31.8500004      -2.02112775E-02
   31.8999996     -0.177650094    
   31.9500008     -0.202095002    
   32.0000000      -8.05265382E-02
   32.0499992       9.54482853E-02
   32.0999985      0.198968232    
   32.1500015      0.158808365    
   32.2000008       7.34127266E-03
   32.2500000     -0.145657569    
   32.2999992     -0.192249686    
   32.3499985     -0.101926059    
   32.4000015       5.86573184E-02
   32.4500008      0.174276263    
   32.5000000      0.163224190    
   32.5499992       3.51301022E-02
   32.5999985     -0.116389148    
   32.6500015     -0.181211114    
   32.7000008     -0.112548776    
   32.7500000       3.85545120E-02
   32.7999992      0.160043657    