  -10.0000000       0.00000000    
  -9.94999981       0.00000000    
  -9.89999962       0.00000000    
  -9.85000038       0.00000000    
  -9.80000019       0.00000000    
  -9.75000000       0.00000000    
  -9.69999981       0.00000000    
  -9.64999962       0.00000000    
  -9.60000038       0.00000000    
  -9.55000019       0.00000000    
  -9.50000000       0.00000000    
  -9.44999981      -2.69814414E-33
  -9.39999962       2.79427773E-31
  -9.35000038       1.88253521E-30
  -9.30000019       5.26243129E-30
  -9.25000000       1.78140169E-29
  -9.19999981       8.22801147E-29
  -9.14999962       1.22517769E-28
  -9.10000038      -7.98891630E-28
  -9.05000019      -4.28852136E-27
  -9.00000000      -5.73314100E-27
  -8.94999981       1.64412510E-26
  -8.89999962       7.09774641E-26
  -8.85000038       2.90096480E-26
  -8.80000019      -4.27132287E-25
  -8.75000000      -1.20078178E-24
  -8.69999981      -3.94162930E-25
  -8.64999962       5.28108376E-24
  -8.60000038       1.32292928E-23
  -8.55000019       3.29790066E-24
  -8.50000000      -5.26957223E-23
  -8.44999981      -1.24902771E-22
  -8.39999962      -3.94162839E-23
  -8.35000038       4.30057683E-22
  -8.30000019       1.07142205E-21
  -8.25000000       6.39572223E-22
  -8.19999981      -2.55738295E-21
  -8.14999962      -7.55193119E-21
  -8.10000038      -6.80772229E-21
  -8.05000019       1.11965520E-20
  -8.00000000       4.49450654E-20
  -7.94999981       5.58360614E-20
  -7.90000010      -2.62882328E-20
  -7.84999990      -2.22963277E-19
  -7.80000019      -3.73026894E-19
  -7.75000000      -1.05706490E-19
  -7.69999981       8.43993265E-19
  -7.65000010       1.97786267E-18
  -7.59999990       1.64453618E-18
  -7.55000019      -1.98538691E-18
  -7.50000000      -8.13265698E-18
  -7.44999981      -1.07159776E-17
  -7.40000010      -2.57473226E-19
  -7.34999990       2.60984665E-17
  -7.30000019       5.08023561E-17
  -7.25000000       3.43147440E-17
  -7.19999981      -5.57833863E-17
  -7.15000010      -1.88222076E-16
  -7.09999990      -2.31217125E-16
  -7.05000019      -1.19738091E-17
  -7.00000000       4.94955127E-16
  -6.94999981       9.58321218E-16
  -6.90000010       7.19354112E-16
  -6.84999990      -7.11903028E-16
  -6.80000019      -2.83339827E-15
  -6.75000000      -3.71838655E-15
  -6.69999981      -9.37592840E-16
  -6.65000010       5.93426455E-15
  -6.59999990       1.27565542E-14
  -6.55000019       1.13025764E-14
  -6.50000000      -4.86979909E-15
  -6.44999981      -3.11148947E-14
  -6.40000010      -4.68154127E-14
  -6.34999990      -2.46120907E-14
  -6.30000019       4.44887115E-14
  -6.25000000       1.25140160E-13
  -6.19999981       1.39411445E-13
  -6.15000010       1.71157762E-14
  -6.09999990      -2.21831329E-13
  -6.05000019      -4.17808285E-13
  -6.00000000      -3.33326764E-13
  -5.94999981       1.56318277E-13
  -5.90000010       8.50935316E-13
  -5.84999990       1.19830491E-12
  -5.80000019       6.08719563E-13
  -5.75000000      -9.79075761E-13
  -5.69999981      -2.68735641E-12
  -5.65000010      -2.95535363E-12
  -5.59999990      -6.24798282E-13
  -5.55000019       3.70446859E-12
  -5.50000000       7.20435777E-12
  -5.44999981       6.19297625E-12
  -5.40000010      -9.24809600E-13
  -5.34999990      -1.10682461E-11
  -5.30000019      -1.68335484E-11
  -5.25000000      -1.09499172E-11
  -5.19999981       7.21078796E-12
  -5.15000010       2.79567793E-11
  -5.09999990       3.49803971E-11
  -5.05000019       1.63970938E-11
  -5.00000000      -2.34022350E-11
  -4.94999981      -6.09080286E-11
  -4.90000010      -6.54583124E-11
  -4.84999990      -2.13416142E-11
  -4.80000019       5.46775368E-11
  -4.75000000       1.15987733E-10
  -4.69999981       1.12700724E-10
  -4.65000010       2.79190230E-11
  -4.59999990      -1.01506949E-10
  -4.55000019      -1.98402419E-10
  -4.50000000      -1.89498819E-10
  -4.44999981      -5.44899750E-11
  -4.40000010       1.51899382E-10
  -4.34999990       3.20640403E-10
  -4.30000019       3.41599665E-10
  -4.25000000       1.62058159E-10
  -4.19999981      -1.75017181E-10
  -4.15000010      -5.26916732E-10
  -4.09999990      -6.88575974E-10
  -4.05000019      -4.77428708E-10
  -4.00000000       1.42679979E-10
  -3.95000005       9.50013179E-10
  -3.90000010       1.46698886E-09
  -3.84999990       1.16864607E-09
  -3.79999995      -1.29121366E-10
  -3.75000000      -1.92291627E-09
  -3.70000005      -3.05559378E-09
  -3.65000010      -2.33109465E-09
  -3.59999990       5.08096953E-10
  -3.54999995       4.11419121E-09
  -3.50000000       5.92218630E-09
  -3.45000005       3.75695741E-09
  -3.40000010      -2.18689555E-09
  -3.34999990      -8.54579696E-09
  -3.29999995      -1.03479856E-08
  -3.25000000      -4.53622251E-09
  -3.20000005       6.80302570E-09
  -3.15000010       1.63560649E-08
  -3.09999990       1.58380971E-08
  -3.04999995       2.49766652E-09
  -3.00000000      -1.68380314E-08
  -2.95000005      -2.83597750E-08
  -2.90000010      -2.04455350E-08
  -2.84999990       6.18781115E-09
  -2.79999995       3.54484122E-08
  -2.75000000       4.45216628E-08
  -2.70000005       2.04480308E-08
  -2.65000010      -2.66978937E-08
  -2.59999990      -6.56459136E-08
  -2.54999995      -6.32841406E-08
  -2.50000000      -1.05049152E-08
  -2.45000005       6.44625260E-08
  -2.40000010       1.08911408E-07
  -2.34999990       8.08481673E-08
  -2.29999995      -1.58704694E-08
  -2.25000000      -1.23861625E-07
  -2.20000005      -1.64055479E-07
  -2.15000010      -9.10608975E-08
  -2.09999990       6.53414460E-08
  -2.04999995       2.06961616E-07
  -2.00000000       2.26670068E-07
  -1.95000005       8.60647518E-08
  -1.89999998      -1.43235908E-07
  -1.85000002      -3.11940227E-07
  -1.79999995      -2.88165751E-07
  -1.75000000      -5.61423512E-08
  -1.70000005       2.53053003E-07
  -1.64999998       4.32135579E-07
  -1.60000002       3.34387977E-07
  -1.54999995      -1.21217694E-08
  -1.50000000      -3.98619818E-07
  -1.45000005      -5.58167926E-07
  -1.39999998      -3.47254343E-07
  -1.35000002       1.35233833E-07
  -1.29999995       5.85305372E-07
  -1.25000000       6.81951235E-07
  -1.20000005       3.11968591E-07
  -1.14999998      -3.23668843E-07
  -1.10000002      -8.12509313E-07
  -1.04999995      -7.95283768E-07
  -1.00000000      -2.24386355E-07
 -0.949999988       5.67515769E-07
 -0.899999976       1.05846095E-06
 -0.850000024       8.80865798E-07
 -0.800000012       9.14103211E-08
 -0.750000000      -8.29614123E-07
 -0.699999988      -1.27335659E-06
 -0.649999976      -9.09694052E-07
 -0.600000024       6.92045745E-08
 -0.550000012       1.04969502E-06
 -0.500000000       1.39167491E-06
 -0.449999988       8.57963755E-07
 -0.400000006      -2.17957222E-07
 -0.349999994      -1.14893157E-06
 -0.300000012      -1.35165692E-06
 -0.250000000      -7.29560952E-07
 -0.200000003       2.82782906E-07
 -0.150000006       1.03606067E-06
 -0.100000001       1.10895394E-06
  -5.00000007E-02   5.60410967E-07
   0.00000000      -1.73701011E-07
   5.00000007E-02  -6.34155583E-07
  0.100000001      -6.56410577E-07
  0.150000006      -4.14701447E-07
  0.200000003      -1.88710686E-07
  0.250000000      -8.01442113E-08
  0.300000012       5.75777257E-08
  0.349999994       4.06911852E-07
  0.400000006       8.89044145E-07
  0.449999988       1.08961899E-06
  0.500000000       5.53203506E-07
  0.550000012      -7.35677077E-07
  0.600000024      -2.09698533E-06
  0.649999976      -2.44802413E-06
  0.699999988      -1.07284166E-06
  0.750000000       1.63755169E-06
  0.800000012       4.10121402E-06
  0.850000024       4.38578218E-06
  0.899999976       1.57885142E-06
  0.949999988      -3.22148435E-06
   1.00000000      -7.14963699E-06
   1.04999995      -7.18586307E-06
   1.10000002      -2.29166585E-06
   1.14999998       5.36320385E-06
   1.20000005       1.11808058E-05
   1.25000000       1.08113500E-05
   1.29999995       3.23046993E-06
   1.35000002      -7.88019861E-06
   1.39999998      -1.57625673E-05
   1.45000005      -1.46524499E-05
   1.50000000      -3.88518311E-06
   1.54999995       1.08300155E-05
   1.60000002       2.03265481E-05
   1.64999998       1.77130823E-05
   1.70000005       3.34718538E-06
   1.75000000      -1.45164049E-05
   1.79999995      -2.44184812E-05
   1.85000002      -1.91188392E-05
   1.89999998      -9.07915933E-07
   1.95000005       1.90992214E-05
   2.00000000       2.77691670E-05
   2.04999995       1.86735870E-05
   2.09999990      -3.14964677E-06
   2.15000010      -2.39524798E-05
   2.20000005      -3.00891625E-05
   2.25000000      -1.71255597E-05
   2.29999995       6.98903068E-06
   2.34999990       2.70168475E-05
   2.40000010       3.04391815E-05
   2.45000005       1.55721118E-05
   2.50000000      -7.71392115E-06
   2.54999995      -2.49697896E-05
   2.59999990      -2.67712621E-05
   2.65000010      -1.42212875E-05
   2.70000005       3.15376269E-06
   2.75000000       1.49462549E-05
   2.79999995       1.68679890E-05
   2.84999990       1.20971017E-05
   2.90000010       6.64323261E-06
   2.95000005       3.25616338E-06
   3.00000000      -5.68056578E-07
   3.04999995      -8.67233484E-06
   3.09999990      -2.00616651E-05
   3.15000010      -2.66979187E-05
   3.20000005      -1.86707439E-05
   3.25000000       6.26843030E-06
   3.29999995       3.67084576E-05
   3.34999990       5.18552879E-05
   3.40000010       3.54325275E-05
   3.45000005      -9.81471476E-06
   3.50000000      -5.88149487E-05
   3.54999995      -7.74851360E-05
   3.59999990      -4.60955853E-05
   3.65000010       2.31232370E-05
   3.70000005       8.85706322E-05
   3.75000000       1.03926475E-04
   3.79999995       5.04465024E-05
   3.84999990      -4.54270485E-05
   3.90000010      -1.24079234E-04
   3.95000005      -1.29847758E-04
   4.00000000      -5.00369897E-05
   4.05000019       7.14705529E-05
   4.09999990       1.58362818E-04
   4.15000010       1.50604174E-04
   4.19999981       4.60382362E-05
   4.25000000      -9.41657636E-05
   4.30000019      -1.82282602E-04
   4.34999990      -1.60369105E-04
   4.40000010      -3.90219102E-05
   4.44999981       1.07870837E-04
   4.50000000       1.89712955E-04
   4.55000019       1.56705268E-04
   4.59999990       3.08621493E-05
   4.65000010      -1.09424669E-04
   4.69999981      -1.79661976E-04
   4.75000000      -1.41345197E-04
   4.80000019      -2.29240159E-05
   4.84999990       1.01282210E-04
   4.90000010       1.58197712E-04
   4.94999981       1.18953198E-04
   5.00000000       1.25104343E-05
   5.05000019      -9.50913964E-05
   5.09999990      -1.40608594E-04
   5.15000010      -9.94232396E-05
   5.19999981       2.22376207E-06
   5.25000000       1.03124949E-04
   5.30000019       1.42135163E-04
   5.34999990       9.37281293E-05
   5.40000010      -1.52570765E-05
   5.44999981      -1.19080054E-04
   5.50000000      -1.51751723E-04
   5.55000019      -8.99857696E-05
   5.59999990       2.78705847E-05
   5.65000010       1.23060236E-04
   5.69999981       1.29670632E-04
   5.75000000       4.42266864E-05
   5.80000019      -6.65831176E-05
   5.84999990      -1.11902838E-04
   5.90000010      -4.90326711E-05
   5.94999981       7.54338980E-05
   6.00000000       1.52990193E-04
   6.05000019       9.89558321E-05
   6.09999990      -6.86535495E-05
   6.15000010      -2.25957192E-04
   6.19999981      -2.32431470E-04
   6.25000000      -5.08260346E-05
   6.30000019       2.00279130E-04
   6.34999990       3.18906648E-04
   6.40000010       1.79878043E-04
   6.44999981      -1.41229917E-04
   6.50000000      -3.94159171E-04
   6.55000019      -3.34113080E-04
   6.59999990       6.44977190E-05
   6.65000010       5.41934685E-04
   6.69999981       7.09658605E-04
   6.75000000       3.48296628E-04
   6.80000019      -3.82192578E-04
   6.84999990      -1.00028969E-03
   6.90000010      -1.02843915E-03
   6.94999981      -3.59592406E-04
   7.00000000       6.10241899E-04
   7.05000019       1.22718466E-03
   7.09999990       1.04191329E-03
   7.15000010       1.63155360E-04
   7.19999981      -7.88719102E-04
   7.25000000      -1.11864100E-03
   7.30000019      -5.81896398E-04
   7.34999990       4.12465160E-04
   7.40000010       1.08690222E-03
   7.44999981       8.82776279E-04
   7.50000000      -9.10117378E-05
   7.55000019      -1.11414969E-03
   7.59999990      -1.39165425E-03
   7.65000010      -6.69701258E-04
   7.69999981       5.51796693E-04
   7.75000000       1.38196175E-03
   7.80000019       1.22834940E-03
   7.84999990       2.56882224E-04
   7.90000010      -7.34935631E-04
   7.94999981      -9.64903680E-04
   8.00000000      -3.02833534E-04
   8.05000019       6.11084106E-04
   8.10000038       8.92614189E-04
   8.14999962       1.76389571E-04
   8.19999981      -1.01925980E-03
   8.25000000      -1.66029693E-03
   8.30000019      -1.04027032E-03
   8.35000038       5.76317543E-04
   8.39999962       2.05396651E-03
   8.44999981       2.22229562E-03
   8.50000000       8.22081696E-04
   8.55000019      -1.21602532E-03
   8.60000038      -2.41934904E-03
   8.64999962      -1.88113959E-03
   8.69999981      -8.81461801E-07
   8.75000000       1.78396516E-03
   8.80000019       2.10931129E-03
   8.85000038       7.46894919E-04
   8.89999962      -1.19074434E-03
   8.94999981      -2.11510668E-03
   9.00000000      -1.22530153E-03
   9.05000019       7.86136254E-04
   9.10000038       2.26779003E-03
   9.14999962       1.92517473E-03
   9.19999981      -8.78096253E-05
   9.25000000      -2.22384813E-03
   9.30000019      -2.73210672E-03
   9.35000038      -1.08264724E-03
   9.39999962       1.53654593E-03
   9.44999981       3.08431010E-03
   9.50000000       2.26595509E-03
   9.55000019      -3.70369613E-04
   9.60000038      -2.78758304E-03
   9.64999962      -3.03235650E-03
   9.69999981      -8.03394709E-04
   9.75000000       2.18519825E-03
   9.80000019       3.51848104E-03
   9.85000038       1.99336116E-03
   9.89999962      -1.34505820E-03
   9.94999981      -3.90078896E-03
   10.0000000      -3.50919086E-03
   10.0500002      -2.18672823E-04
   10.1000004       3.59862647E-03
   10.1499996       4.98994114E-03
   10.1999998       2.69657047E-03
   10.2500000      -1.76320772E-03
   10.3000002      -5.13082463E-03
   10.3500004      -4.88353195E-03
   10.3999996      -1.16313575E-03
   10.4499998       3.27771646E-03
   10.5000000       5.14104357E-03
   10.5500002       3.16140498E-03
   10.6000004      -9.73120099E-04
   10.6499996      -3.93130258E-03
   10.6999998      -3.44774290E-03
   10.7500000      -9.28198206E-05
   10.8000002       3.19771376E-03
   10.8500004       3.56944511E-03
   10.8999996       6.51433307E-04
   10.9499998      -3.06983897E-03
   11.0000000      -4.29590512E-03
   11.0500002      -1.77013909E-03
   11.1000004       2.52592517E-03
   11.1499996       4.87780105E-03
   11.1999998       2.97701685E-03
   11.2500000      -1.91408664E-03
   11.3000002      -5.70963183E-03
   11.3500004      -4.75516450E-03
   11.3999996       8.74780759E-04
   11.4499998       6.98635401E-03
   11.5000000       8.29322916E-03
   11.5500002       2.79281288E-03
   11.6000004      -6.13298081E-03
   11.6499996      -1.18210642E-02
   11.6999998      -9.29662213E-03
   11.7500000       5.83574350E-04
   11.8000002       1.12056769E-02
   11.8500004       1.48155997E-02
   11.8999996       8.27568024E-03
   11.9499998      -4.30469913E-03
   12.0000000      -1.42995277E-02
   12.0500002      -1.47450473E-02
   12.1000004      -5.44168800E-03
   12.1499996       6.94905547E-03
   12.1999998       1.38232624E-02
   12.2500000       1.08747641E-02
   12.3000002       1.03284849E-03
   12.3500004      -8.10761191E-03
   12.3999996      -1.01075033E-02
   12.4499998      -4.36372496E-03
   12.5000000       3.91616439E-03
   12.5500002       8.09274521E-03
   12.6000004       5.30854426E-03
   12.6499996      -1.59169477E-03
   12.6999998      -6.71025505E-03
   12.7500000      -6.02356251E-03
   12.8000002      -5.08661382E-04
   12.8500004       4.86783544E-03
   12.8999996       5.43190725E-03
   12.9499998       7.07093684E-04
   13.0000000      -5.13502955E-03
   13.0500002      -6.70187548E-03
   13.1000004      -1.87319866E-03
   13.1499996       6.18777610E-03
   13.1999998       1.12297460E-02
   13.2500000       8.67579039E-03
   13.3000002      -6.88195403E-04
   13.3500004      -1.08947894E-02
   13.3999996      -1.48703624E-02
   13.4499998      -9.48758144E-03
   13.5000000       2.04569753E-03
   13.5500002       1.22293960E-02
   13.6000004       1.43646356E-02
   13.6499996       7.15312827E-03
   13.6999998      -4.38250555E-03
   13.7500000      -1.23508032E-02
   13.8000002      -1.14309164E-02
   13.8500004      -2.54378957E-03
   13.8999996       7.84398243E-03
   13.9499998       1.23055289E-02
   14.0000000       7.75857130E-03
   14.0500002      -2.31977622E-03
   14.1000004      -1.04114134E-02
   14.1499996      -1.04726423E-02
   14.1999998      -2.49146391E-03
   14.2500000       7.39818439E-03
   14.3000002       1.14146322E-02
   14.3500004       6.07813522E-03
   14.3999996      -4.90769465E-03
   14.4499998      -1.31594734E-02
   14.5000000      -1.18325213E-02
   14.5500002      -9.75766277E-04
   14.6000004       1.21139875E-02
   14.6499996       1.79790165E-02
   14.6999998       1.18712364E-02
   14.7500000      -2.64491094E-03
   14.8000002      -1.60815883E-02
   14.8500004      -1.96068343E-02
   14.8999996      -1.10729476E-02
   14.9499998       3.83980735E-03
   15.0000000       1.57884490E-02
   15.0500002       1.79975275E-02
   15.1000004       1.01419343E-02
   15.1499996      -2.36167270E-03
   15.1999998      -1.24124801E-02
   15.2500000      -1.53468717E-02
   15.3000002      -1.07062040E-02
   15.3500004      -1.39013818E-03
   15.3999996       8.30186438E-03
   15.4499998       1.42152533E-02
   15.5000000       1.35210212E-02
   15.5500002       5.83172776E-03
   15.6000004      -5.85503085E-03
   15.6499996      -1.56061752E-02
   15.6999998      -1.72704179E-02
   15.7500000      -8.63246992E-03
   15.8000002       6.04441529E-03
   15.8500004       1.77384838E-02
   15.8999996       1.84736382E-02
   15.9499998       7.33096991E-03
   16.0000000      -8.18079803E-03
   16.0499992      -1.71811115E-02
   16.1000004      -1.35205165E-02
   16.1499996      -6.90507470E-04
   16.2000008       1.08455680E-02
   16.2500000       1.19634196E-02
   16.2999992       2.40437384E-03
   16.3500004      -8.98291077E-03
   16.3999996      -1.16621656E-02
   16.4500008      -2.60663824E-03
   16.5000000       1.06832692E-02
   16.5499992       1.61984414E-02
   16.6000004       7.77002843E-03
   16.6499996      -8.98448378E-03
   16.7000008      -2.05267016E-02
   16.7500000      -1.64472833E-02
   16.7999992       1.44709926E-03
   16.8500004       1.97094269E-02
   16.8999996       2.36525033E-02
   16.9500008       9.28946305E-03
   17.0000000      -1.29021136E-02
   17.0499992      -2.58405805E-02
   17.1000004      -1.92497112E-02
   17.1499996       2.11178651E-03
   17.2000008       2.20074896E-02
   17.2500000       2.53288075E-02
   17.2999992       9.75250173E-03
   17.3500004      -1.27144475E-02
   17.3999996      -2.52657551E-02
   17.4500008      -1.91594772E-02
   17.5000000       1.38580857E-04
   17.5499992       1.78951658E-02
   17.6000004       2.16548052E-02
   17.6499996       1.02026742E-02
   17.7000008      -6.66746125E-03
   17.7500000      -1.64997652E-02
   17.7999992      -1.35068018E-02
   17.8500004      -1.78319379E-03
   17.8999996       9.16159153E-03
   17.9500008       1.20816650E-02
   18.0000000       6.62459992E-03
   18.0499992      -1.94207276E-03
   18.1000004      -7.71357724E-03
   18.1499996      -8.23467039E-03
   18.2000008      -4.85908706E-03
   18.2500000      -2.86721392E-04
   18.2999992       3.69084859E-03
   18.3500004       6.34421082E-03
   18.3999996       6.86524017E-03
   18.4500008       4.14152397E-03
   18.5000000      -1.72674109E-03
   18.5499992      -7.87125155E-03
   18.6000004      -9.55113303E-03
   18.6499996      -3.87512380E-03
   18.7000008       6.55262219E-03
   18.7500000       1.39863398E-02
   18.7999992       1.09582776E-02
   18.8500004      -2.87922076E-03
   18.8999996      -1.84885003E-02
   18.9500008      -2.29697339E-02
   19.0000000      -9.73323081E-03
   19.0499992       1.45686585E-02
   19.1000004       3.29191387E-02
   19.1499996       2.99121663E-02
   19.2000008       4.35276795E-03
   19.2500000      -2.77450569E-02
   19.2999992      -4.34318781E-02
   19.3500004      -2.97040809E-02
   19.3999996       5.68478927E-03
   19.4500008       3.84981893E-02
   19.5000000       4.51856814E-02
   19.5499992       2.04783753E-02
   19.6000004      -1.81377158E-02
   19.6499996      -4.30041142E-02
   19.7000008      -3.67576145E-02
   19.7500000      -5.14071155E-03
   19.7999992       2.77379714E-02
   19.8500004       3.80026996E-02
   19.8999996       1.99870467E-02
   19.9500008      -1.03450892E-02
   20.0000000      -2.88461335E-02
   20.0499992      -2.24519912E-02
   20.1000004       1.17464061E-03
   20.1499996       2.09983010E-02
   20.2000008       2.04339009E-02
   20.2500000       8.19470908E-04
   20.2999992      -2.03287788E-02
   20.3500004      -2.43963692E-02
   20.3999996      -7.25771626E-03
   20.4500008       1.74810067E-02
   20.5000000       2.99127866E-02
   20.5499992       2.00860612E-02
   20.6000004      -4.36069584E-03
   20.6499996      -2.49393154E-02
   20.7000008      -2.72104740E-02
   20.7500000      -1.13511346E-02
   20.7999992       9.60477535E-03
   20.8500004       2.11075880E-02
   20.8999996       1.78540628E-02
   20.9500008       5.53133618E-03
   21.0000000      -6.16681483E-03
   21.0499992      -1.16870217E-02
   21.1000004      -1.17181875E-02
   21.1499996      -9.06569138E-03
   21.2000008      -4.17544227E-03
   21.2500000       4.23684530E-03
   21.2999992       1.45726996E-02
   21.3500004       2.00000387E-02
   21.3999996       1.30088786E-02
   21.4500008      -6.09725062E-03
   21.5000000      -2.55167168E-02
   21.5499992      -2.90494375E-02
   21.6000004      -1.00302352E-02
   21.6499996       2.00024080E-02
   21.7000008       3.75953466E-02
   21.7500000       2.59532724E-02
   21.7999992      -9.07251984E-03
   21.8500004      -4.05491330E-02
   21.8999996      -4.09354158E-02
   21.9500008      -5.91231650E-03
   22.0000000       3.89936864E-02
   22.0499992       5.67974634E-02
   22.1000004       2.92485487E-02
   22.1499996      -2.59059053E-02
   22.2000008      -6.64278269E-02
   22.2500000      -5.84225170E-02
   22.2999992      -4.58321534E-03
   22.3500004       5.58853038E-02
   22.3999996       7.68989325E-02
   22.4500008       4.16920930E-02
   22.5000000      -2.36017220E-02
   22.5499992      -7.01700822E-02
   22.6000004      -6.44480437E-02
   22.6499996      -1.34493960E-02
   22.7000008       4.23587337E-02
   22.7500000       6.19122684E-02
   22.7999992       3.49908248E-02
   22.8500004      -1.25615597E-02
   22.8999996      -4.23097946E-02
   22.9500008      -3.46079990E-02
   23.0000000      -1.95541675E-03
   23.0499992       2.49383412E-02
   23.1000004       2.45360713E-02
   23.1499996       1.42828294E-03
   23.2000008      -2.04684474E-02
   23.2500000      -2.06409711E-02
   23.2999992       1.30368397E-04
   23.3500004       2.18835063E-02
   23.3999996       2.43954249E-02
   23.4500008       5.29768225E-03
   23.5000000      -1.84896495E-02
   23.5499992      -2.64250804E-02
   23.6000004      -1.24924360E-02
   23.6499996       1.02421846E-02
   23.7000008       2.20041536E-02
   23.7500000       1.39070544E-02
   23.7999992      -4.93206689E-03
   23.8500004      -1.65492799E-02
   23.8999996      -1.07196840E-02
   23.9500008       6.09177584E-03
   24.0000000       1.71697736E-02
   24.0499992       1.11721111E-02
   24.1000004      -7.30662327E-03
   24.1499996      -2.16359533E-02
   24.2000008      -1.79995857E-02
   24.2500000       2.00306997E-03
   24.2999992       2.21677739E-02
   24.3500004       2.52798107E-02
   24.3999996       7.87957851E-03
   24.4500008      -1.64404698E-02
   24.5000000      -2.80322600E-02
   24.5499992      -1.73178464E-02
   24.6000004       7.33302161E-03
   24.6499996       2.63463892E-02
   24.7000008       2.46975143E-02
   24.7500000       3.80126457E-03
   24.7999992      -1.98339112E-02
   24.8500004      -2.78422032E-02
   24.8999996      -1.43886497E-02
   24.9500008       9.62831173E-03
   25.0000000       2.54920386E-02
   25.0499992       2.13833936E-02
   25.1000004       1.25426718E-03
   25.1499996      -1.88004170E-02
   25.2000008      -2.34144069E-02
   25.2500000      -9.81443841E-03
   25.2999992       1.04937367E-02
   25.3500004       2.12341510E-02
   25.3999996       1.42837353E-02
   25.4500008      -4.13284823E-03
   25.5000000      -1.87011175E-02
   25.5499992      -1.73877887E-02
   25.6000004      -1.01836899E-03
   25.6499996       1.74429920E-02
   25.7000008       2.31531765E-02
   25.7500000       1.10199004E-02
   25.7999992      -1.04414774E-02
   25.8500004      -2.57492121E-02
   25.8999996      -2.40875538E-02
   25.9500008      -6.82059443E-03
   26.0000000       1.44351115E-02
   26.0499992       2.66937818E-02
   26.1000004       2.40900964E-02
   26.1499996       9.87541862E-03
   26.2000008      -7.84044992E-03
   26.2500000      -2.16313638E-02
   26.2999992      -2.71114148E-02
   26.3500004      -2.21394468E-02
   26.3999996      -6.43793447E-03
   26.4500008       1.62001699E-02
   26.5000000       3.57793644E-02
   26.5499992       3.89669128E-02
   26.6000004       1.82412341E-02
   26.6499996      -1.89140178E-02
   26.7000008      -5.02285175E-02
   26.7500000      -5.20462766E-02
   26.7999992      -1.80405974E-02
   26.8500004       3.19862254E-02
   26.8999996       6.32688403E-02
   26.9500008       5.14409468E-02
   27.0000000       2.94651580E-03
   27.0499992      -4.73412722E-02
   27.1000004      -6.18625022E-02
   27.1499996      -3.01362481E-02
   27.2000008       2.20013633E-02
   27.2500000       5.26396260E-02
   27.2999992       3.80402580E-02
   27.3500004      -7.58445496E-03
   27.3999996      -4.39373590E-02
   27.4500008      -3.90562862E-02
   27.5000000       2.83618970E-03
   27.5499992       4.43622321E-02
   27.6000004       4.71600220E-02
   27.6499996       5.95184695E-03
   27.7000008      -4.53495570E-02
   27.7500000      -6.17837347E-02
   27.7999992      -2.62590777E-02
   27.8500004       3.43236513E-02
   27.8999996       7.04371184E-02
   27.9500008       5.13039827E-02
   28.0000000      -8.79571959E-03
   28.0499992      -6.19085059E-02
   28.1000004      -6.60376847E-02
   28.1499996      -1.95223149E-02
   28.2000008       3.86586674E-02
   28.2500000       6.21945858E-02
   28.2999992       3.55355404E-02
   28.3500004      -1.53016932E-02
   28.3999996      -4.69999053E-02
   28.4500008      -3.60803455E-02
   28.5000000       3.16321151E-03
   28.5499992       3.39743160E-02
   28.6000004       3.04567665E-02
   28.6499996      -9.12185467E-04
   28.7000008      -2.94588339E-02
   28.7500000      -2.90832929E-02
   28.7999992      -1.16117997E-03
   28.8500004       2.81927641E-02
   28.8999996       3.25978622E-02
   28.9500008       8.74176063E-03
   29.0000000      -2.18796264E-02
   29.0499992      -3.30726951E-02
   29.1000004      -1.68677513E-02
   29.1499996       1.10145481E-02
   29.2000008       2.66169887E-02
   29.2500000       1.89292356E-02
   29.2999992      -2.19287048E-03
   29.3500004      -1.70432515E-02
   29.3999996      -1.44320875E-02
   29.4500008      -3.18697916E-04
   29.5000000       9.94140282E-03
   29.5499992       6.97920751E-03
   29.6000004      -4.36082389E-03
   29.6499996      -1.10280812E-02
   29.7000008      -5.04455715E-03
   29.7500000       8.89243651E-03
   29.7999992       1.81345344E-02
   29.8500004       1.38594639E-02
   29.8999996      -1.31142372E-03
   29.9500008      -1.62729118E-02
   30.0000000      -2.10483670E-02
   30.0499992      -1.38950925E-02
   30.1000004      -4.51188011E-04
   30.1499996       1.21207107E-02
   30.2000008       1.94375087E-02
   30.2500000       1.95051003E-02
   30.2999992       1.08989738E-02
   30.3500004      -5.98953571E-03
   30.3999996      -2.51621567E-02
   30.4500008      -3.44930030E-02
   30.5000000      -2.30035949E-02
   30.5499992       8.06131959E-03
   30.6000004       4.08321545E-02
   30.6499996       5.06700762E-02
   30.7000008       2.54149754E-02
   30.7500000      -2.14146134E-02
   30.7999992      -5.70536926E-02
   30.8500004      -5.34325354E-02
   30.8999996      -1.04916412E-02
   30.9500008       4.11590934E-02
   31.0000000       6.26427829E-02
   31.0499992       3.72947939E-02
   31.1000004      -1.54549582E-02
   31.1499996      -5.49969859E-02
   31.2000008      -5.16242124E-02
   31.2500000      -9.69966967E-03
   31.2999992       3.67661007E-02
   31.3500004       5.20492531E-02
   31.3999996       2.68400218E-02
   31.4500008      -1.60939284E-02
   31.5000000      -4.21045236E-02
   31.5499992      -3.28780301E-02
   31.6000004       5.50451048E-04
   31.6499996       2.92617716E-02
   31.7000008       3.10976729E-02
   31.7500000       7.56219029E-03
   31.7999992      -1.97124537E-02
   31.8500004      -2.81623583E-02
   31.8999996      -1.21984342E-02
   31.9500008       1.38687249E-02
   32.0000000       2.86569633E-02
   32.0499992       2.06067842E-02
   32.0999985      -4.02177963E-03
   32.1500015      -2.68596821E-02
   32.2000008      -3.11213844E-02
   32.2500000      -1.32535631E-02
   32.2999992       1.49216847E-02
   32.3499985       3.41122150E-02
   32.4000015       3.02475505E-02
   32.4500008       4.35956754E-03
   32.5000000      -2.67508086E-02
   32.5499992      -4.06299606E-02
   32.5999985      -2.48472616E-02
   32.6500015       1.20296823E-02
   32.7000008       4.37342450E-02
   32.7500000       4.42924872E-02
   32.7999992       9.10373684E-03