  -10.0000000       0.00000000    
  -9.94999981       0.00000000    
  -9.89999962       0.00000000    
  -9.85000038       0.00000000    
  -9.80000019       0.00000000    
  -9.75000000       0.00000000    
  -9.69999981       0.00000000    
  -9.64999962       0.00000000    
  -9.60000038       4.40437198E-18
  -9.55000019       3.32906368E-16
  -9.50000000       2.70175558E-15
  -9.44999981       9.06159405E-15
  -9.39999962       8.44899017E-15
  -9.35000038      -4.46712844E-14
  -9.30000019      -1.96654867E-13
  -9.25000000      -3.08521221E-13
  -9.19999981       1.62081774E-13
  -9.14999962       1.79142421E-12
  -9.10000038       3.60279927E-12
  -9.05000019       1.37387866E-12
  -9.00000000      -1.01061165E-11
  -8.94999981      -2.73144476E-11
  -8.89999962      -2.69193036E-11
  -8.85000038       2.61927736E-11
  -8.80000019       1.33856787E-10
  -8.75000000       2.05971143E-10
  -8.69999981       7.21887272E-11
  -8.64999962      -3.55011326E-10
  -8.60000038      -8.31124003E-10
  -8.55000019      -7.34080907E-10
  -8.50000000       4.59130095E-10
  -8.44999981       2.29464514E-09
  -8.39999962       2.92418356E-09
  -8.35000038       2.41877685E-10
  -8.30000019      -5.47100498E-09
  -8.25000000      -9.63412994E-09
  -8.19999981      -5.52204549E-09
  -8.14999962       8.75261019E-09
  -8.10000038       2.35830804E-08
  -8.05000019       2.07393249E-08
  -8.00000000      -9.94222571E-09
  -7.94999981      -5.04578992E-08
  -7.90000010      -5.45440280E-08
  -7.84999990       1.59338924E-08
  -7.80000019       1.35050470E-07
  -7.75000000       1.91944238E-07
  -7.69999981       5.78136969E-08
  -7.65000010      -2.73678694E-07
  -7.59999990      -5.84574707E-07
  -7.55000019      -5.14323006E-07
  -7.50000000       1.42091920E-07
  -7.44999981       1.10766177E-06
  -7.40000010       1.60500974E-06
  -7.34999990       8.52077335E-07
  -7.30000019      -1.14834063E-06
  -7.25000000      -3.17271656E-06
  -7.19999981      -3.32161039E-06
  -7.15000010      -5.00260796E-07
  -7.09999990       4.16015973E-06
  -7.05000019       7.33444404E-06
  -7.00000000       5.59057935E-06
  -6.94999981      -1.56921078E-06
  -6.90000010      -1.01422547E-05
  -6.84999990      -1.34989123E-05
  -6.80000019      -7.20291746E-06
  -6.75000000       6.53820462E-06
  -6.69999981       1.87973274E-05
  -6.65000010       1.95129760E-05
  -6.59999990       5.42069938E-06
  -6.55000019      -1.58082566E-05
  -6.50000000      -2.94601814E-05
  -6.44999981      -2.39865367E-05
  -6.40000010      -2.55177184E-07
  -6.34999990       2.76445862E-05
  -6.30000019       4.14505812E-05
  -6.25000000       3.11923359E-05
  -6.19999981       1.69973691E-06
  -6.15000010      -3.13473756E-05
  -6.09999990      -5.17084445E-05
  -6.05000019      -5.05527205E-05
  -6.00000000      -2.72924335E-05
  -5.94999981       1.33345420E-05
  -5.90000010       6.10696297E-05
  -5.84999990       9.60837424E-05
  -5.80000019       9.01153617E-05
  -5.75000000       2.26647480E-05
  -5.69999981      -9.22071195E-05
  -5.65000010      -1.92061518E-04
  -5.59999990      -1.91323095E-04
  -5.55000019      -4.50505286E-05
  -5.50000000       1.90433682E-04
  -5.44999981       3.60286591E-04
  -5.40000010       3.03972920E-04
  -5.34999990      -9.16212775E-06
  -5.30000019      -4.07264190E-04
  -5.25000000      -5.93286008E-04
  -5.19999981      -3.54567252E-04
  -5.15000010       2.35264117E-04
  -5.09999990       7.96746812E-04
  -5.05000019       8.73699668E-04
  -5.00000000       2.83172412E-04
  -4.94999981      -6.74158742E-04
  -4.90000010      -1.34643319E-03
  -4.84999990      -1.16973114E-03
  -4.80000019      -1.20516714E-04
  -4.75000000       1.17585133E-03
  -4.69999981       1.82173052E-03
  -4.65000010       1.28601084E-03
  -4.59999990      -1.55748145E-04
  -4.55000019      -1.54326530E-03
  -4.50000000      -1.88266544E-03
  -4.44999981      -8.80933774E-04
  -4.40000010       7.86667166E-04
  -4.34999990       1.91321212E-03
  -4.30000019       1.61901722E-03
  -4.25000000       1.59892952E-05
  -4.19999981      -1.82276394E-03
  -4.15000010      -2.59013916E-03
  -4.09999990      -1.65856816E-03
  -4.05000019       4.71509149E-04
  -4.00000000       2.50214548E-03
  -3.95000005       3.20100714E-03
  -3.90000010       2.18573073E-03
  -3.84999990       1.06891559E-04
  -3.79999995      -1.84126524E-03
  -3.75000000      -2.69099441E-03
  -3.70000005      -2.22010724E-03
  -3.65000010      -9.32551397E-04
  -3.59999990       3.81966121E-04
  -3.54999995       1.13932439E-03
  -3.50000000       1.18745165E-03
  -3.45000005       7.14877911E-04
  -3.40000010       2.30361875E-05
  -3.34999990      -6.21235638E-04
  -3.29999995      -9.85888881E-04
  -3.25000000      -8.32653779E-04
  -3.20000005       1.81341366E-05
  -3.15000010       1.49008003E-03
  -3.09999990       3.06789973E-03
  -3.04999995       3.85195785E-03
  -3.00000000       2.96406937E-03
  -2.95000005       1.66978367E-04
  -2.90000010      -3.68040055E-03
  -2.84999990      -6.75093662E-03
  -2.79999995      -7.11359829E-03
  -2.75000000      -3.99384415E-03
  -2.70000005       1.34335691E-03
  -2.65000010       5.86887449E-03
  -2.59999990       6.40845438E-03
  -2.54999995       1.83414610E-03
  -2.50000000      -5.62533690E-03
  -2.45000005      -1.11752395E-02
  -2.40000010      -1.03099579E-02
  -2.34999990      -2.11656513E-03
  -2.29999995       9.32542700E-03
  -2.25000000       1.68930311E-02
  -2.20000005       1.49399852E-02
  -2.15000010       3.52815306E-03
  -2.09999990      -1.07836816E-02
  -2.04999995      -1.86984893E-02
  -2.00000000      -1.43866120E-02
  -1.95000005       5.10586106E-05
  -1.89999998       1.52849266E-02
  -1.85000002       2.06513088E-02
  -1.79999995       1.14976959E-02
  -1.75000000      -7.13849394E-03
  -1.70000005      -2.33935546E-02
  -1.64999998      -2.63749287E-02
  -1.60000002      -1.36826299E-02
  -1.54999995       6.61981944E-03
  -1.50000000       2.11787280E-02
  -1.45000005       2.03243047E-02
  -1.39999998       4.76036826E-03
  -1.35000002      -1.46879703E-02
  -1.29999995      -2.42584217E-02
  -1.25000000      -1.66276880E-02
  -1.20000005       3.82439024E-03
  -1.14999998       2.35025883E-02
  -1.10000002       2.83586774E-02
  -1.04999995       1.32699879E-02
  -1.00000000      -1.41274780E-02
 -0.949999988      -3.78033929E-02
 -0.899999976      -4.32727374E-02
 -0.850000024      -2.68275980E-02
 -0.800000012       1.89343526E-03
 -0.750000000       2.57747211E-02
 -0.699999988       3.08863688E-02
 -0.649999976       1.51251443E-02
 -0.600000024      -1.07554998E-02
 -0.550000012      -3.03632654E-02
 -0.500000000      -3.23054194E-02
 -0.449999988      -1.71515476E-02
 -0.400000006       3.79759003E-03
 -0.349999994       1.67429559E-02
 -0.300000012       1.46041634E-02
 -0.250000000       7.67115504E-04
 -0.200000003      -1.48167396E-02
 -0.150000006      -2.36081183E-02
 -0.100000001      -2.41432488E-02
  -5.00000007E-02  -2.12684982E-02
   0.00000000      -2.03041099E-02
   5.00000007E-02  -2.16530692E-02
  0.100000001      -2.07481943E-02
  0.150000006      -1.33344438E-02
  0.200000003      -1.10479037E-03
  0.250000000       7.92356674E-03
  0.300000012       5.43728704E-03
  0.349999994      -9.50704236E-03
  0.400000006      -2.80672312E-02
  0.449999988      -3.74583527E-02
  0.500000000      -3.11168656E-02
  0.550000012      -1.49892550E-02
  0.600000024      -4.16316977E-03
  0.649999976      -1.15287490E-02
  0.699999988      -3.68702896E-02
  0.750000000      -6.51155487E-02
  0.800000012      -7.58880153E-02
  0.850000024      -5.79460897E-02
  0.899999976      -1.82216130E-02
  0.949999988       2.11443473E-02
   1.00000000       3.59627493E-02
   1.04999995       1.47361616E-02
   1.10000002      -3.42496224E-02
   1.14999998      -8.73304307E-02
   1.20000005     -0.118126735    
   1.25000000     -0.111135356    
   1.29999995      -6.94468245E-02
   1.35000002      -1.34259956E-02
   1.39999998       2.86781434E-02
   1.45000005       3.41392532E-02
   1.50000000      -2.60099792E-03
   1.54999995      -6.57858774E-02
   1.60000002     -0.125042453    
   1.64999998     -0.150909826    
   1.70000005     -0.131373629    
   1.75000000      -7.92693496E-02
   1.79999995      -2.47779116E-02
   1.85000002       3.18411412E-03
   1.89999998      -5.41223399E-03
   1.95000005      -3.74236293E-02
   2.00000000      -6.87186122E-02
   2.04999995      -8.34115595E-02
   2.09999990      -8.49854425E-02
   2.15000010      -9.02741998E-02
   2.20000005     -0.111267373    
   2.25000000     -0.140381023    
   2.29999995     -0.152885303    
   2.34999990     -0.126509249    
   2.40000010      -6.33376017E-02
   2.45000005       4.46497370E-03
   2.50000000       3.23781185E-02
   2.54999995      -6.15663175E-03
   2.59999990      -9.82161686E-02
   2.65000010     -0.195141003    
   2.70000005     -0.240672812    
   2.75000000     -0.205694348    
   2.79999995     -0.107271679    
   2.84999990      -6.61754029E-06
   2.90000010       5.49745560E-02
   2.95000005       2.51030270E-02
   3.00000000      -7.43845031E-02
   3.04999995     -0.187723368    
   3.09999990     -0.248935789    
   3.15000010     -0.219709739    
   3.20000005     -0.114284158    
   3.25000000       4.58749617E-03
   3.29999995       6.03007935E-02
   3.34999990       1.08170072E-02
   3.40000010     -0.118454009    
   3.45000005     -0.242879570    
   3.50000000     -0.269749522    
   3.54999995     -0.163481876    
   3.59999990       2.03350447E-02
   3.65000010      0.162396163    
   3.70000005      0.157885060    
   3.75000000      -5.59706520E-03
   3.79999995     -0.228806630    
   3.84999990     -0.361649364    
   3.90000010     -0.306640804    
   3.95000005      -9.18393061E-02
   4.00000000      0.143656909    
   4.05000019      0.245632172    
   4.09999990      0.154379621    
   4.15000010      -5.30722886E-02
   4.19999981     -0.220934823    
   4.25000000     -0.229906365    
   4.30000019      -8.27653110E-02
   4.34999990      0.103609018    
   4.40000010      0.191630363    
   4.44999981      0.127926946    
   4.50000000      -2.10283846E-02
   4.55000019     -0.127255499    
   4.59999990     -0.103923000    
   4.65000010       2.96391081E-02
   4.69999981      0.169436201    
   4.75000000      0.213208541    
   4.80000019      0.139914766    
   4.84999990       2.06619930E-02
   4.90000010      -4.31030542E-02
   4.94999981      -1.40106291E-04
   5.00000000      0.115713418    
   5.05000019      0.219350770    
   5.09999990      0.243862152    
   5.15000010      0.188277587    
   5.19999981      0.108938679    
   5.25000000       6.92924708E-02
   5.30000019       9.28444564E-02
   5.34999990      0.154913187    
   5.40000010      0.212368309    
   5.44999981      0.239858508    
   5.50000000      0.241930366    
   5.55000019      0.237217635    
   5.59999990      0.235513791    
   5.65000010      0.231399372    
   5.69999981      0.217152983    
   5.75000000      0.198327124    
   5.80000019      0.193330914    
   5.84999990      0.217051372    
   5.90000010      0.264756054    
   5.94999981      0.313323200    
   6.00000000      0.338981539    
   6.05000019      0.334966034    
   6.09999990      0.312515080    
   6.15000010      0.286480099    
   6.19999981      0.261428654    
   6.25000000      0.234112754    
   6.30000019      0.208604053    
   6.34999990      0.205442652    
   6.40000010      0.249084100    
   6.44999981      0.340048492    
   6.50000000      0.437978387    
   6.55000019      0.478155822    
   6.59999990      0.417012125    
   6.65000010      0.272670031    
   6.69999981      0.124683812    
   6.75000000       6.51202127E-02
   6.80000019      0.133881092    
   6.84999990      0.286900997    
   6.90000010      0.424159050    
   6.94999981      0.458471507    
   7.00000000      0.375014067    
   7.05000019      0.237063825    
   7.09999990      0.136128560    
   7.15000010      0.125437573    
   7.19999981      0.187257513    
   7.25000000      0.255144179    
   7.30000019      0.269813508    
   7.34999990      0.223183051    
   7.40000010      0.158149809    
   7.44999981      0.128772810    
   7.50000000      0.155063674    
   7.55000019      0.207962781    
   7.59999990      0.233914405    
   7.65000010      0.197480708    
   7.69999981      0.108828455    
   7.75000000       1.68668050E-02
   7.80000019      -2.49796789E-02
   7.84999990       5.16433176E-03
   7.90000010       8.39289799E-02
   7.94999981      0.158010826    
   8.00000000      0.176495776    
   8.05000019      0.120046213    
   8.10000038       1.11117689E-02
   8.14999962      -9.84181762E-02
   8.19999981     -0.154568598    
   8.25000000     -0.130103335    
   8.30000019      -4.11907025E-02
   8.35000038       5.75233214E-02
   8.39999962       9.97198448E-02
   8.44999981       4.53438461E-02
   8.50000000      -9.03410390E-02
   8.55000019     -0.236854374    
   8.60000038     -0.304741919    
   8.64999962     -0.242399767    
   8.69999981      -7.90507942E-02
   8.75000000       7.97549561E-02
   8.80000019      0.111960709    
   8.85000038      -3.67821231E-02
   8.89999962     -0.300704777    
   8.94999981     -0.518591404    
   9.00000000     -0.532899082    
   9.05000019     -0.304299355    
   9.10000038       4.04025465E-02
   9.14999962      0.273878634    
   9.19999981      0.216953278    
   9.25000000     -0.127347499    
   9.30000019     -0.555395126    
   9.35000038     -0.787669420    
   9.39999962     -0.660031915    
   9.44999981     -0.247112140    
   9.50000000      0.178326577    
   9.55000019      0.330750078    
   9.60000038      0.112887800    
   9.64999962     -0.315193415    
   9.69999981     -0.653080404    
   9.75000000     -0.678411245    
   9.80000019     -0.403576702    
   9.85000038      -5.37546389E-02
   9.89999962      0.113070227    
   9.94999981       1.84744841E-03
   10.0000000     -0.260117739    
   10.0500002     -0.440818816    
   10.1000004     -0.397358835    
   10.1499996     -0.186697856    
   10.1999998      -6.50963746E-03
   10.2500000      -2.11808681E-02
   10.3000002     -0.221108139    
   10.3500004     -0.432078451    
   10.3999996     -0.463790804    
   10.4499998     -0.270809442    
   10.5000000       8.25797766E-03
   10.5500002      0.163191259    
   10.6000004       8.02619681E-02
   10.6499996     -0.171877280    
   10.6999998     -0.403201401    
   10.7500000     -0.452618301    
   10.8000002     -0.302859455    
   10.8500004      -7.46500120E-02
   10.8999996       8.02788064E-02
   10.9499998       9.00846049E-02
   11.0000000      -7.84507021E-03
   11.0500002     -0.124332093    
   11.1000004     -0.195990145    
   11.1499996     -0.214327604    
   11.1999998     -0.197012261    
   11.2500000     -0.149426132    
   11.3000002      -6.43083751E-02
   11.3500004       4.39505503E-02
   11.3999996      0.119009003    
   11.4499998       9.48493928E-02
   11.5000000      -3.88305224E-02
   11.5500002     -0.202789709    
   11.6000004     -0.272793949    
   11.6499996     -0.178150296    
   11.6999998       2.88408604E-02
   11.7500000      0.201150596    
   11.8000002      0.210066646    
   11.8500004       5.16970903E-02
   11.8999996     -0.145809606    
   11.9499998     -0.225114003    
   12.0000000     -0.127841055    
   12.0500002       6.05845340E-02
   12.1000004      0.186840668    
   12.1499996      0.159483731    
   12.1999998       2.03472283E-02
   12.2500000     -0.100975990    
   12.3000002     -0.104517244    
   12.3500004      -2.99527263E-03
   12.3999996      0.100347504    
   12.4499998      0.112913735    
   12.5000000       3.70034985E-02
   12.5500002      -3.90457362E-02
   12.6000004      -3.04777585E-02
   12.6499996       6.03274629E-02
   12.6999998      0.145195484    
   12.7500000      0.134356454    
   12.8000002       2.39418224E-02
   12.8500004      -9.54455137E-02
   12.8999996     -0.117742717    
   12.9499998      -1.60720274E-02
   13.0000000      0.132415861    
   13.0500002      0.212550372    
   13.1000004      0.167554334    
   13.1499996       4.10941392E-02
   13.1999998      -6.73024207E-02
   13.2500000      -8.77538994E-02
   13.3000002      -2.92017050E-02
   13.3500004       4.49200757E-02
   13.3999996       8.19446519E-02
   13.4499998       8.08366612E-02
   13.5000000       7.49744549E-02
   13.5500002       8.36493000E-02
   13.6000004       8.76540244E-02
   13.6499996       5.46467714E-02
   13.6999998      -1.50655899E-02
   13.7500000      -7.48509839E-02
   13.8000002      -6.99776411E-02
   13.8500004       7.53379287E-03
   13.8999996      0.103595473    
   13.9499998      0.145875141    
   14.0000000      0.107630558    
   14.0500002       3.01674530E-02
   14.1000004      -1.87186785E-02
   14.1499996      -1.02022858E-02
   14.1999998       2.12194733E-02
   14.2500000       1.95473265E-02
   14.3000002      -2.67444067E-02
   14.3500004      -6.40551522E-02
   14.3999996      -2.54138634E-02
   14.4499998       9.22230929E-02
   14.5000000      0.204397380    
   14.5500002      0.203236565    
   14.6000004       5.84276281E-02
   14.6499996     -0.138959378    
   14.6999998     -0.239533871    
   14.7500000     -0.158862472    
   14.8000002       4.59965430E-02
   14.8500004      0.218455419    
   14.8999996      0.231127545    
   14.9499998       9.05172974E-02
   15.0000000      -7.42068812E-02
   15.0500002     -0.127747178    
   15.1000004      -4.58576791E-02
   15.1499996       7.13458657E-02
   15.1999998       9.94187817E-02
   15.2500000       9.09715518E-03
   15.3000002     -0.105654858    
   15.3500004     -0.117117591    
   15.3999996       1.19202742E-02
   15.4499998      0.184659824    
   15.5000000      0.249880761    
   15.5500002      0.134903699    
   15.6000004      -8.64354670E-02
   15.6499996     -0.251080692    
   15.6999998     -0.238757268    
   15.7500000      -6.48406297E-02
   15.8000002      0.140965581    
   15.8500004      0.243512824    
   15.8999996      0.200813040    
   15.9499998       7.42978677E-02
   16.0000000      -4.20758128E-02
   16.0499992      -9.85279903E-02
   16.1000004     -0.105395712    
   16.1499996      -9.05033350E-02
   16.2000008      -5.65832593E-02
   16.2500000       1.25859343E-02
   16.2999992      0.109466836    
   16.3500004      0.180366740    
   16.3999996      0.160695568    
   16.4500008       4.07846496E-02
   16.5000000     -0.106018931    
   16.5499992     -0.172407478    
   16.6000004     -0.107639425    
   16.6499996       3.34603600E-02
   16.7000008      0.134333760    
   16.7500000      0.118982092    
   16.7999992       1.95862092E-02
   16.8500004      -5.57971559E-02
   16.8999996      -2.81122122E-02
   16.9500008       7.36102983E-02
   17.0000000      0.136840045    
   17.0499992       7.50148967E-02
   17.1000004      -8.02474394E-02
   17.1499996     -0.195506260    
   17.2000008     -0.152742743    
   17.2500000       3.69852558E-02
   17.2999992      0.230649397    
   17.3500004      0.270526558    
   17.3999996      0.120648138    
   17.4500008      -9.93978456E-02
   17.5000000     -0.215171546    
   17.5499992     -0.144463405    
   17.6000004       3.82926352E-02
   17.6499996      0.174135968    
   17.7000008      0.159902170    
   17.7500000       3.07454318E-02
   17.7999992      -8.40630308E-02
   17.8500004      -8.42845291E-02
   17.8999996       1.49223944E-02
   17.9500008      0.108525597    
   18.0000000      0.107085623    
   18.0499992       1.87322833E-02
   18.1000004      -6.69403300E-02
   18.1499996      -7.06602857E-02
   18.2000008       1.98236038E-03
   18.2500000       7.38914907E-02
   18.2999992       7.89741725E-02
   18.3500004       2.76957899E-02
   18.3999996      -1.00966105E-02
   18.4500008       1.50019042E-02
   18.5000000       7.42121562E-02
   18.5499992       8.77609700E-02
   18.6000004       1.24615189E-02
   18.6499996     -0.100350529    
   18.7000008     -0.142105699    
   18.7500000      -5.13687469E-02
   18.7999992      0.114706308    
   18.8500004      0.218212590    
   18.8999996      0.161749050    
   18.9500008      -1.67591963E-02
   19.0000000     -0.168621838    
   19.0499992     -0.163298681    
   19.1000004      -7.03999493E-03
   19.1499996      0.159396783    
   19.2000008      0.186056167    
   19.2500000       5.00379242E-02
   19.2999992     -0.122549802    
   19.3500004     -0.171335876    
   19.3999996      -4.92735393E-02
   19.4500008      0.132328108    
   19.5000000      0.204042152    
   19.5499992       9.33272243E-02
   19.6000004     -0.107267432    
   19.6499996     -0.221386567    
   19.7000008     -0.146310270    
   19.7500000       5.56825139E-02
   19.7999992      0.213138372    
   19.8500004      0.196117312    
   19.8999996       2.59008799E-02
   19.9500008     -0.151281625    
   20.0000000     -0.196513623    
   20.0499992      -9.41324010E-02
   20.1000004       4.91573326E-02
   20.1499996      0.110960759    
   20.2000008       6.08049259E-02
   20.2500000      -2.83455160E-02
   20.2999992      -6.46366477E-02
   20.3500004      -2.84323506E-02
   20.3999996       1.84073634E-02
   20.4500008       7.22388551E-03
   20.5000000      -5.98852672E-02
   20.5499992     -0.110309914    
   20.6000004      -7.82729089E-02
   20.6499996       2.09620595E-02
   20.7000008       9.82386619E-02
   20.7500000       7.57835880E-02
   20.7999992      -3.31818834E-02
   20.8500004     -0.131664932    
   20.8999996     -0.130309001    
   20.9500008      -3.54105942E-02
   21.0000000       5.43388054E-02
   21.0499992       4.34328429E-02
   21.1000004      -6.34630173E-02
   21.1499996     -0.159598544    
   21.2000008     -0.136777997    
   21.2500000       4.79632011E-03
   21.2999992      0.145135790    
   21.3500004      0.149375349    
   21.3999996      -4.61967289E-03
   21.4500008     -0.196381107    
   21.5000000     -0.264345288    
   21.5499992     -0.149860904    
   21.6000004       4.78560328E-02
   21.6499996      0.158690289    
   21.7000008       9.34160128E-02
   21.7500000      -7.78418407E-02
   21.7999992     -0.192410082    
   21.8500004     -0.145985380    
   21.8999996       1.13970442E-02
   21.9500008      0.123060234    
   22.0000000       7.34123290E-02
   22.0499992     -0.100750349    
   22.1000004     -0.239295930    
   22.1499996     -0.203575477    
   22.2000008      -6.02862658E-03
   22.2500000      0.193719462    
   22.2999992      0.224524811    
   22.3500004       5.17106354E-02
   22.3999996     -0.192177147    
   22.4500008     -0.318402648    
   22.5000000     -0.236145660    
   22.5499992      -1.85063034E-02
   22.6000004      0.168389142    
   22.6499996      0.202747270    
   22.7000008       9.17185694E-02
   22.7500000      -5.83431274E-02
   22.7999992     -0.143139333    
   22.8500004     -0.136538759    
   22.8999996      -8.32581148E-02
   22.9500008      -3.46794985E-02
   23.0000000      -1.40259217E-03
   23.0499992       3.43366228E-02
   23.1000004       7.29909986E-02
   23.1499996       7.96308964E-02
   23.2000008       2.03160234E-02
   23.2500000      -8.56586322E-02
   23.2999992     -0.160730600    
   23.3500004     -0.130298421    
   23.3999996       1.66336203E-03
   23.4500008      0.139265329    
   23.5000000      0.167838424    
   23.5499992       5.50897084E-02
   23.6000004     -0.112233013    
   23.6499996     -0.195951402    
   23.7000008     -0.123923436    
   23.7500000       4.58888002E-02
   23.7999992      0.173690230    
   23.8500004      0.157626450    
   23.8999996       1.95642263E-02
   23.9500008     -0.118425511    
   24.0000000     -0.143808946    
   24.0499992      -5.00118881E-02
   24.1000004       6.57553300E-02
   24.1499996       9.71761644E-02
   24.2000008       2.63291188E-02
   24.2500000      -6.53369203E-02
   24.2999992      -7.95614421E-02
   24.3500004       2.48661987E-03
   24.3999996      0.101227134    
   24.4500008      0.114437886    
   24.5000000       1.62267443E-02
   24.5499992     -0.113932669    
   24.6000004     -0.160379499    
   24.6499996      -7.61437342E-02
   24.7000008       7.20457882E-02
   24.7500000      0.159819826    
   24.7999992      0.112446390    
   24.8500004      -3.15634497E-02
   24.8999996     -0.154969707    
   24.9500008     -0.161687091    
   25.0000000      -5.41935340E-02
   25.0499992       7.54494667E-02
   25.1000004      0.126984119    
   25.1499996       7.17003793E-02
   25.2000008      -3.50510925E-02
   25.2500000     -0.110302955    
   25.2999992     -0.112215742    
   25.3500004      -6.24013320E-02
   25.3999996      -1.21805165E-02
   25.4500008       6.44286769E-03
   25.5000000      -1.40432967E-03
   25.5499992      -1.50952740E-02
   25.6000004      -2.77513769E-02
   25.6499996      -4.90085930E-02
   25.7000008      -8.13592523E-02
   25.7500000     -0.102327570    
   25.7999992      -7.98537508E-02
   25.8500004      -1.07158404E-02
   25.8999996       5.89919351E-02
   25.9500008       6.15774877E-02
   26.0000000      -3.20465080E-02
   26.0499992     -0.173065051    
   26.1000004     -0.259513527    
   26.1499996     -0.214182243    
   26.2000008      -5.36910444E-02
   26.2500000      0.112955421    
   26.2999992      0.162412584    
   26.3500004       5.24542592E-02
   26.3999996     -0.142296627    
   26.4500008     -0.284959793    
   26.5000000     -0.279004961    
   26.5499992     -0.138213888    
   26.6000004       2.90636532E-02
   26.6499996      0.105104990    
   26.7000008       4.81064431E-02
   26.7500000      -8.66174996E-02
   26.7999992     -0.198708415    
   26.8500004     -0.220267579    
   26.8999996     -0.157468617    
   26.9500008      -7.10331723E-02
   27.0000000      -2.11222842E-02
   27.0499992      -2.52011623E-02
   27.1000004      -5.82074858E-02
   27.1499996      -8.51164386E-02
   27.2000008      -9.19136703E-02
   27.2500000      -8.96305963E-02
   27.2999992      -9.45390984E-02
   27.3500004     -0.108038448    
   27.3999996     -0.115694471    
   27.4500008     -0.103781931    
   27.5000000      -7.49223381E-02
   27.5499992      -4.72291820E-02
   27.6000004      -3.84408645E-02
   27.6499996      -5.07744476E-02
   27.7000008      -7.04287812E-02
   27.7500000      -8.09863359E-02
   27.7999992      -7.71574676E-02
   27.8500004      -6.63601533E-02
   27.8999996      -5.83256148E-02
   27.9500008      -5.43253794E-02
   28.0000000      -4.71929647E-02
   28.0499992      -3.14477608E-02
   28.1000004      -1.23189855E-02
   28.1499996      -3.15097859E-03
   28.2000008      -1.24724917E-02
   28.2500000      -3.32473181E-02
   28.2999992      -4.59709316E-02
   28.3500004      -3.47944722E-02
   28.3999996      -2.55921390E-03
   28.4500008       2.98088901E-02
   28.5000000       4.10017371E-02
   28.5499992       2.90542226E-02
   28.6000004       1.45214321E-02
   28.6499996       2.22451333E-02
   28.7000008       5.66835329E-02
   28.7500000       9.37269330E-02
   28.7999992       9.95958447E-02
   28.8500004       6.27612025E-02
   28.8999996       1.09948125E-02
   28.9500008      -5.26019512E-03
   29.0000000       4.62491699E-02
   29.0499992      0.147145525    
   29.1000004      0.234408975    
   29.1499996      0.245158687    
   29.2000008      0.167207241    
   29.2500000       5.42838983E-02
   29.2999992      -9.85762104E-03
   29.3500004       2.69782245E-02
   29.3999996      0.145572126    
   29.4500008      0.269331604    
   29.5000000      0.321437806    
   29.5499992      0.280631930    
   29.6000004      0.192296192    
   29.6499996      0.128366962    
   29.7000008      0.130914554    
   29.7500000      0.184864700    
   29.7999992      0.239218652    
   29.8500004      0.254379541    
   29.8999996      0.234027714    
   29.9500008      0.215676233    
   30.0000000      0.232272342    
   30.0499992      0.280640423    
   30.1000004      0.324573785    
   30.1499996      0.327602953    
   30.2000008      0.285294354    
   30.2500000      0.228917509    
   30.2999992      0.199865058    
   30.3500004      0.218239844    
   30.3999996      0.271499813    
   30.4500008      0.328224808    
   30.5000000      0.360994309    
   30.5499992      0.358932316    
   30.6000004      0.325644404    
   30.6499996      0.272886306    
   30.7000008      0.219335750    
   30.7500000      0.191131085    
   30.7999992      0.212823734    
   30.8500004      0.286844373    
   30.8999996      0.378209025    
   30.9500008      0.426287264    
   31.0000000      0.385673761    
   31.0499992      0.268179178    
   31.1000004      0.146936715    
   31.1499996      0.108676255    
   31.2000008      0.185300753    
   31.2500000      0.321034580    
   31.2999992      0.408793181    
   31.3500004      0.373131305    
   31.3999996      0.233887136    
   31.4500008       9.48730111E-02
   31.5000000       6.21268451E-02
   31.5499992      0.156957984    
   31.6000004      0.296526313    
   31.6499996      0.360622555    
   31.7000008      0.290347666    
   31.7500000      0.136550218    
   31.7999992       1.72595195E-02
   31.8500004       1.98681895E-02
   31.8999996      0.130194664    
   31.9500008      0.246674523    
   32.0000000      0.265869915    
   32.0499992      0.166342229    
   32.0999985       2.21333746E-02
   32.1500015      -6.15738072E-02
   32.2000008      -3.36844698E-02
   32.2500000       6.69394210E-02
   32.2999992      0.149642289    
   32.3499985      0.146725059    
   32.4000015       6.18095472E-02
   32.4500008      -4.27019559E-02
   32.5000000     -0.100573488    
   32.5499992      -8.99460539E-02
   32.5999985      -3.94799784E-02
   32.6500015       3.04581271E-03
   32.7000008       7.08880927E-03
   32.7500000      -2.72752345E-02
   32.7999992      -8.05677250E-02