  -10.0000000       0.00000000    
  -9.94999981       0.00000000    
  -9.89999962       0.00000000    
  -9.85000038       0.00000000    
  -9.80000019       0.00000000    
  -9.75000000       0.00000000    
  -9.69999981       0.00000000    
  -9.64999962       0.00000000    
  -9.60000038       0.00000000    
  -9.55000019      -1.25648129E-20
  -9.50000000      -1.83415249E-20
  -9.44999981       5.57026113E-19
  -9.39999962       3.75498805E-18
  -9.35000038       1.02154771E-17
  -9.30000019       5.06456716E-18
  -9.25000000      -5.53552740E-17
  -9.19999981      -1.91253475E-16
  -9.14999962      -2.18934776E-16
  -9.10000038       3.81747373E-16
  -9.05000019       1.95330287E-15
  -9.00000000       3.06016169E-15
  -8.94999981      -8.16424988E-16
  -8.89999962      -1.41575077E-14
  -8.85000038      -3.06921982E-14
  -8.80000019      -2.21773131E-14
  -8.75000000       5.07070717E-14
  -8.69999981       1.84138945E-13
  -8.64999962       2.57403663E-13
  -8.60000038       3.92452387E-14
  -8.55000019      -6.07316281E-13
  -8.50000000      -1.35778628E-12
  -8.44999981      -1.24649217E-12
  -8.39999962       7.91578446E-13
  -8.35000038       4.51637555E-12
  -8.30000019       7.05470014E-12
  -8.25000000       3.58369888E-12
  -8.19999981      -8.61462377E-12
  -8.14999962      -2.43818802E-11
  -8.10000038      -2.87503805E-11
  -8.05000019      -5.00858990E-12
  -8.00000000       4.75558863E-11
  -7.94999981       9.83780349E-11
  -7.90000010       9.23940577E-11
  -7.84999990      -1.07266878E-11
  -7.80000019      -1.82592566E-10
  -7.75000000      -3.04297310E-10
  -7.69999981      -2.22653368E-10
  -7.65000010       1.20597449E-10
  -7.59999990       5.70282710E-10
  -7.55000019       7.74864006E-10
  -7.50000000       4.02818834E-10
  -7.44999981      -5.37528577E-10
  -7.40000010      -1.52274438E-09
  -7.34999990      -1.72230441E-09
  -7.30000019      -5.86253934E-10
  -7.25000000       1.54510471E-09
  -7.19999981       3.34792594E-09
  -7.15000010       3.23899374E-09
  -7.09999990       6.08554873E-10
  -7.05000019      -3.31816041E-09
  -7.00000000      -5.86940452E-09
  -6.94999981      -4.66280614E-09
  -6.90000010       3.49275359E-10
  -6.84999990       6.16431839E-09
  -6.80000019       8.35033287E-09
  -6.75000000       4.31375913E-09
  -6.69999981      -4.07411660E-09
  -6.65000010      -1.08764349E-08
  -6.59999990      -9.99190064E-09
  -6.55000019      -2.11606094E-10
  -6.50000000       1.24958444E-08
  -6.44999981       1.80897768E-08
  -6.40000010       9.75225234E-09
  -6.34999990      -9.59207469E-09
  -6.30000019      -2.70794711E-08
  -6.25000000      -2.77680918E-08
  -6.19999981      -6.17691454E-09
  -6.15000010       2.68687277E-08
  -6.09999990       4.86568439E-08
  -6.05000019       3.94243926E-08
  -6.00000000      -1.62573266E-09
  -5.94999981      -5.13261504E-08
  -5.90000010      -7.48494813E-08
  -5.84999990      -4.95502803E-08
  -5.80000019       1.55281921E-08
  -5.75000000       8.02840319E-08
  -5.69999981       9.78288526E-08
  -5.65000010       4.84037770E-08
  -5.59999990      -4.12328234E-08
  -5.55000019      -1.10520823E-07
  -5.50000000      -1.05860998E-07
  -5.44999981      -2.26809718E-08
  -5.40000010       8.39079348E-08
  -5.34999990       1.33671421E-07
  -5.30000019       8.12301337E-08
  -5.25000000      -4.24006430E-08
  -5.19999981      -1.43553081E-07
  -5.15000010      -1.33259391E-07
  -5.09999990      -2.09870632E-09
  -5.05000019       1.58218441E-07
  -5.00000000       2.14081439E-07
  -4.94999981       9.50976968E-08
  -4.90000010      -1.34695298E-07
  -4.84999990      -3.05426539E-07
  -4.80000019      -2.63835148E-07
  -4.75000000      -3.79732201E-09
  -4.69999981       3.02638483E-07
  -4.65000010       4.16579240E-07
  -4.59999990       2.17343086E-07
  -4.55000019      -1.79812645E-07
  -4.50000000      -4.80840697E-07
  -4.44999981      -4.24759833E-07
  -4.40000010      -3.38450240E-10
  -4.34999990       5.07119580E-07
  -4.30000019       6.99453096E-07
  -4.25000000       3.63255680E-07
  -4.19999981      -3.38891283E-07
  -4.15000010      -9.43499572E-07
  -4.09999990      -9.96106451E-07
  -4.05000019      -3.82702240E-07
  -4.00000000       5.60660794E-07
  -3.95000005       1.25089832E-06
  -3.90000010       1.23966845E-06
  -3.84999990       5.10957250E-07
  -3.79999995      -5.06854406E-07
  -3.75000000      -1.21408300E-06
  -3.70000005      -1.20812649E-06
  -3.65000010      -5.12103497E-07
  -3.59999990       4.58265589E-07
  -3.54999995       1.14077682E-06
  -3.50000000       1.13013982E-06
  -3.45000005       3.87020691E-07
  -3.40000010      -7.26703149E-07
  -3.34999990      -1.59390709E-06
  -3.29999995      -1.62804690E-06
  -3.25000000      -6.06960498E-07
  -3.20000005       1.10022427E-06
  -3.15000010       2.59048784E-06
  -3.09999990       2.84727253E-06
  -3.04999995       1.37539030E-06
  -3.00000000      -1.32239416E-06
  -2.95000005      -3.81942300E-06
  -2.90000010      -4.49518029E-06
  -2.84999990      -2.56779708E-06
  -2.79999995       1.23209463E-06
  -2.75000000       4.88373280E-06
  -2.70000005       6.18686090E-06
  -2.65000010       4.12899635E-06
  -2.59999990      -3.72129193E-07
  -2.54999995      -4.88879959E-06
  -2.50000000      -6.86824524E-06
  -2.45000005      -5.15011152E-06
  -2.40000010      -6.83731912E-07
  -2.34999990       3.99336250E-06
  -2.29999995       6.20309720E-06
  -2.25000000       4.65899120E-06
  -2.20000005       2.25691778E-07
  -2.15000010      -4.50165680E-06
  -2.09999990      -6.58266754E-06
  -2.04999995      -4.38529332E-06
  -2.00000000       1.33935237E-06
  -1.95000005       7.58647093E-06
  -1.89999998       1.05244026E-05
  -1.85000002       7.63489425E-06
  -1.79999995      -5.40714325E-07
  -1.75000000      -1.01726191E-05
  -1.70000005      -1.58756229E-05
  -1.64999998      -1.37042289E-05
  -1.60000002      -3.75526838E-06
  -1.54999995       9.32748117E-06
  -1.50000000       1.85672689E-05
  -1.45000005       1.85376302E-05
  -1.39999998       8.67756080E-06
  -1.35000002      -6.04039860E-06
  -1.29999995      -1.76608537E-05
  -1.25000000      -1.96490928E-05
  -1.20000005      -1.06432672E-05
  -1.14999998       4.59185412E-06
  -1.10000002       1.75771493E-05
  -1.04999995       2.06396890E-05
  -1.00000000       1.12042662E-05
 -0.949999988      -6.37198946E-06
 -0.899999976      -2.25224685E-05
 -0.850000024      -2.72177622E-05
 -0.800000012      -1.56498118E-05
 -0.750000000       8.08950790E-06
 -0.699999988       3.18372768E-05
 -0.649999976       4.12017835E-05
 -0.600000024       2.79711112E-05
 -0.550000012      -3.65013670E-06
 -0.500000000      -3.74939882E-05
 -0.449999988      -5.36599255E-05
 -0.400000006      -4.05448482E-05
 -0.349999994      -3.28616193E-06
 -0.300000012       3.76034368E-05
 -0.250000000       5.78212967E-05
 -0.200000003       4.44841171E-05
 -0.150000006       5.09350684E-06
 -0.100000001      -3.62749743E-05
  -5.00000007E-02  -5.38428940E-05
   0.00000000      -3.66764907E-05
   5.00000007E-02   4.05123728E-06
  0.100000001       4.21043478E-05
  0.150000006       5.30264806E-05
  0.200000003       2.97362567E-05
  0.250000000      -1.32169425E-05
  0.300000012      -4.91642422E-05
  0.349999994      -5.60623666E-05
  0.400000006      -2.96884918E-05
  0.449999988       1.45693930E-05
  0.500000000       5.15945394E-05
  0.550000012       6.13663797E-05
  0.600000024       3.97848780E-05
  0.649999976      -2.08153295E-07
  0.699999988      -3.68946603E-05
  0.750000000      -5.20774993E-05
  0.800000012      -4.04421589E-05
  0.850000024      -1.11922745E-05
  0.899999976       1.83951579E-05
  0.949999988       3.34147589E-05
   1.00000000       2.95266091E-05
   1.04999995       1.40181892E-05
   1.10000002      -6.55934173E-07
   1.14999998      -6.18302374E-06
   1.20000005      -3.67708935E-06
   1.25000000      -9.23150026E-07
   1.29999995      -3.86271313E-06
   1.35000002      -9.76078900E-06
   1.39999998      -8.79646450E-06
   1.45000005       6.07970151E-06
   1.50000000       2.92033401E-05
   1.54999995       4.22854537E-05
   1.60000002       2.74576196E-05
   1.64999998      -1.53757937E-05
   1.70000005      -6.18416234E-05
   1.75000000      -7.61525152E-05
   1.79999995      -3.76406388E-05
   1.85000002       3.86254396E-05
   1.89999998       1.05618623E-04
   1.95000005       1.14253497E-04
   2.00000000       5.01490140E-05
   2.04999995      -5.05350436E-05
   2.09999990      -1.21258359E-04
   2.15000010      -1.10139539E-04
   2.20000005      -1.85272402E-05
   2.25000000       9.60320685E-05
   2.29999995       1.56950933E-04
   2.34999990       1.20956749E-04
   2.40000010       8.68723237E-06
   2.45000005      -1.08467044E-04
   2.50000000      -1.56153532E-04
   2.54999995      -1.05989871E-04
   2.59999990       7.76739671E-06
   2.65000010       1.13454145E-04
   2.70000005       1.49601226E-04
   2.75000000       1.01990583E-04
   2.79999995       7.41725489E-06
   2.84999990      -7.41995245E-05
   2.90000010      -9.76698429E-05
   2.95000005      -5.60647823E-05
   3.00000000       2.13122839E-05
   3.04999995       9.01384556E-05
   3.09999990       1.15956529E-04
   3.15000010       8.93191609E-05
   3.20000005       2.65528088E-05
   3.25000000      -4.09211498E-05
   3.29999995      -8.22393122E-05
   3.34999990      -8.10103083E-05
   3.40000010      -4.20972247E-05
   3.45000005       1.21497424E-05
   3.50000000       5.50439290E-05
   3.54999995       7.09327433E-05
   3.59999990       6.28963680E-05
   3.65000010       4.71543754E-05
   3.70000005       3.81155478E-05
   3.75000000       3.62864994E-05
   3.79999995       2.99027815E-05
   3.84999990       9.51534184E-06
   3.90000010      -1.77372876E-05
   3.95000005      -2.91131782E-05
   4.00000000      -5.36479274E-06
   4.05000019       4.69037259E-05
   4.09999990       9.11171155E-05
   4.15000010       8.42798690E-05
   4.19999981       1.38564110E-05
   4.25000000      -8.20249479E-05
   4.30000019      -1.32688438E-04
   4.34999990      -8.47832780E-05
   4.40000010       5.13307496E-05
   4.44999981       1.96758134E-04
   4.50000000       2.51602993E-04
   4.55000019       1.65784455E-04
   4.59999990      -1.78351966E-05
   4.65000010      -1.83529584E-04
   4.69999981      -2.17429420E-04
   4.75000000      -8.72418605E-05
   4.80000019       1.29758904E-04
   4.84999990       2.93153484E-04
   4.90000010       2.91457603E-04
   4.94999981       1.17819371E-04
   5.00000000      -1.22522470E-04
   5.05000019      -2.79020518E-04
   5.09999990      -2.52867409E-04
   5.15000010      -6.03208682E-05
   5.19999981       1.78638104E-04
   5.25000000       3.17545549E-04
   5.30000019       2.75664643E-04
   5.34999990       8.60067084E-05
   5.40000010      -1.29217136E-04
   5.44999981      -2.37380853E-04
   5.50000000      -1.77152804E-04
   5.55000019       7.55441806E-06
   5.59999990       1.99945804E-04
   5.65000010       2.85096728E-04
   5.69999981       2.19219422E-04
   5.75000000       5.09436941E-05
   5.80000019      -1.14486364E-04
   5.84999990      -1.82861215E-04
   5.90000010      -1.26630810E-04
   5.94999981       4.33409696E-06
   6.00000000       1.20121178E-04
   6.05000019       1.49498854E-04
   6.09999990       8.22699803E-05
   6.15000010      -2.91672332E-05
   6.19999981      -1.06828433E-04
   6.25000000      -9.72450580E-05
   6.30000019      -3.88590342E-06
   6.34999990       1.16289659E-04
   6.40000010       1.87941594E-04
   6.44999981       1.62818716E-04
   6.50000000       4.94661290E-05
   6.55000019      -8.98636426E-05
   6.59999990      -1.73506269E-04
   6.65000010      -1.48377760E-04
   6.69999981      -2.47727639E-05
   6.75000000       1.24458646E-04
   6.80000019       2.03898628E-04
   6.84999990       1.54655558E-04
   6.90000010      -3.07994151E-06
   6.94999981      -1.74843270E-04
   7.00000000      -2.47511431E-04
   7.05000019      -1.64570156E-04
   7.09999990       2.91726810E-05
   7.15000010       2.09120466E-04
   7.19999981       2.50782818E-04
   7.25000000       1.17263146E-04
   7.30000019      -1.08337204E-04
   7.34999990      -2.73932237E-04
   7.40000010      -2.62405811E-04
   7.44999981      -7.64875949E-05
   7.50000000       1.58155875E-04
   7.55000019       2.78092572E-04
   7.59999990       1.97257017E-04
   7.65000010      -3.08060589E-05
   7.69999981      -2.49648670E-04
   7.75000000      -3.10587173E-04
   7.80000019      -1.77678186E-04
   7.84999990       4.86728604E-05
   7.90000010       2.05362230E-04
   7.94999981       1.83314551E-04
   8.00000000       2.67073892E-06
   8.05000019      -2.05867240E-04
   8.10000038      -2.96447135E-04
   8.14999962      -2.09719496E-04
   8.19999981      -9.41526469E-06
   8.25000000       1.67527920E-04
   8.30000019       2.06979821E-04
   8.35000038       9.10749441E-05
   8.39999962      -9.80495606E-05
   8.44999981      -2.39578017E-04
   8.50000000      -2.53411738E-04
   8.55000019      -1.44539241E-04
   8.60000038       1.04245019E-05
   8.64999962       1.17461779E-04
   8.69999981       1.21069606E-04
   8.75000000       2.93762114E-05
   8.80000019      -9.93582216E-05
   8.85000038      -1.93678541E-04
   8.89999962      -2.06110577E-04
   8.94999981      -1.33637295E-04
   9.00000000      -1.61984572E-05
   9.05000019       8.32736550E-05
   9.10000038       1.09147069E-04
   9.14999962       4.24110622E-05
   9.19999981      -8.45653776E-05
   9.25000000      -1.99196205E-04
   9.30000019      -2.26121090E-04
   9.35000038      -1.34304661E-04
   9.39999962       3.49642396E-05
   9.44999981       1.82962918E-04
   9.50000000       2.10553757E-04
   9.55000019       8.57781488E-05
   9.60000038      -1.24262355E-04
   9.64999962      -2.86376249E-04
   9.69999981      -2.85837101E-04
   9.75000000      -1.08905770E-04
   9.80000019       1.36945455E-04
   9.85000038       2.87525589E-04
   9.89999962       2.33522485E-04
   9.94999981       2.33754145E-06
   10.0000000      -2.52517639E-04
   10.0500002      -3.54045391E-04
   10.1000004      -2.27076569E-04
   10.1499996       4.47750463E-05
   10.1999998       2.75825936E-04
   10.2500000       3.10633826E-04
   10.3000002       1.35752431E-04
   10.3500004      -1.12967718E-04
   10.3999996      -2.53407256E-04
   10.4499998      -1.92474865E-04
   10.5000000       9.08079528E-06
   10.5500002       1.90276085E-04
   10.6000004       2.17448367E-04
   10.6499996       8.46233379E-05
   10.6999998      -9.01810490E-05
   10.7500000      -1.64830184E-04
   10.8000002      -8.56160113E-05
   10.8500004       7.72149215E-05
   10.8999996       1.93903761E-04
   10.9499998       1.81002353E-04
   11.0000000       6.06624963E-05
   11.0500002      -6.93225229E-05
   11.1000004      -1.20452234E-04
   11.1499996      -7.74939981E-05
   11.1999998       7.60212879E-06
   11.2500000       7.45488069E-05
   11.3000002       1.04771789E-04
   11.3500004       1.18041236E-04
   11.3999996       1.28987565E-04
   11.4499998       1.17682343E-04
   11.5000000       5.16982254E-05
   11.5500002      -6.09050003E-05
   11.6000004      -1.48578009E-04
   11.6499996      -1.22456782E-04
   11.6999998       3.77311553E-05
   11.7500000       2.37967091E-04
   11.8000002       3.22365289E-04
   11.8500004       1.97030546E-04
   11.8999996      -7.50443360E-05
   11.9499998      -2.99521285E-04
   12.0000000      -2.93375982E-04
   12.0500002      -3.69481459E-05
   12.1000004       2.92981917E-04
   12.1499996       4.48339008E-04
   12.1999998       3.01625812E-04
   12.2500000      -4.86216486E-05
   12.3000002      -3.48047906E-04
   12.3500004      -3.80653248E-04
   12.3999996      -1.33441077E-04
   12.4499998       1.98830516E-04
   12.5000000       3.69500951E-04
   12.5500002       2.68616219E-04
   12.6000004      -4.73072714E-06
   12.6499996      -2.35380037E-04
   12.6999998      -2.65017356E-04
   12.7500000      -1.03142709E-04
   12.8000002       1.03240156E-04
   12.8500004       1.99676855E-04
   12.8999996       1.38243180E-04
   12.9499998      -1.05878635E-05
   13.0000000      -1.37494542E-04
   13.0500002      -1.81564727E-04
   13.1000004      -1.52447989E-04
   13.1499996      -8.81874366E-05
   13.1999998      -9.42193583E-06
   13.2500000       7.92964274E-05
   13.3000002       1.52983863E-04
   13.3500004       1.52331457E-04
   13.3999996       2.84834350E-05
   13.4499998      -1.87067315E-04
   13.5000000      -3.65244778E-04
   13.5500002      -3.57884273E-04
   13.6000004      -1.24442857E-04
   13.6499996       2.02912823E-04
   13.6999998       3.91730660E-04
   13.7500000       2.82082648E-04
   13.8000002      -7.42856573E-05
   13.8500004      -4.31813591E-04
   13.8999996      -5.28346107E-04
   13.9499998      -2.89152580E-04
   14.0000000       1.07347820E-04
   14.0500002       3.62558640E-04
   14.1000004       2.89266696E-04
   14.1499996      -4.19289900E-05
   14.1999998      -3.59831785E-04
   14.2500000      -4.08927561E-04
   14.3000002      -1.52022782E-04
   14.3500004       2.02044044E-04
   14.3999996       3.66011605E-04
   14.4499998       2.02246301E-04
   14.5000000      -1.68912229E-04
   14.5500002      -4.62886645E-04
   14.6000004      -4.50017018E-04
   14.6499996      -1.29504740E-04
   14.6999998       2.71833967E-04
   14.7500000       4.69002873E-04
   14.8000002       3.25232133E-04
   14.8500004      -5.56329578E-05
   14.8999996      -4.10466251E-04
   14.9499998      -5.04420430E-04
   15.0000000      -2.87872099E-04
   15.0500002       8.23618175E-05
   15.1000004       3.61631770E-04
   15.1499996       3.85285355E-04
   15.1999998       1.69583072E-04
   15.2500000      -1.16424555E-04
   15.3000002      -2.79121014E-04
   15.3500004      -2.34107429E-04
   15.3999996      -5.26822550E-05
   15.4499998       1.06706168E-04
   15.5000000       1.26776446E-04
   15.5500002       2.12957038E-05
   15.6000004      -8.26840333E-05
   15.6499996      -5.70669581E-05
   15.6999998       1.09713561E-04
   15.7500000       2.88440555E-04
   15.8000002       3.06662696E-04
   15.8500004       9.67355809E-05
   15.8999996      -2.26588440E-04
   15.9499998      -4.32963512E-04
   16.0000000      -3.47848283E-04
   16.0499992       2.38050484E-06
   16.1000004       3.92227608E-04
   16.1499996       5.55202772E-04
   16.2000008       3.81325430E-04
   16.2500000       5.11715896E-08
   16.2999992      -3.18027392E-04
   16.3500004      -3.63795931E-04
   16.3999996      -1.37342213E-04
   16.4500008       1.71031686E-04
   16.5000000       3.41300241E-04
   16.5499992       2.89119722E-04
   16.6000004       1.05687344E-04
   16.6499996      -4.50181178E-05
   16.7000008      -6.95274721E-05
   16.7500000      -3.85345220E-06
   16.7999992       4.98789559E-05
   16.8500004       3.48384201E-05
   16.8999996      -1.08306658E-05
   16.9500008      -7.21591505E-06
   17.0000000       7.27813022E-05
   17.0499992       1.66756188E-04
   17.1000004       1.82211079E-04
   17.1499996       9.21771352E-05
   17.2000008      -3.08159142E-05
   17.2500000      -8.02592549E-05
   17.2999992      -1.87764890E-05
   17.3500004       8.37087573E-05
   17.3999996       1.18202268E-04
   17.4500008       4.71288877E-05
   17.5000000      -5.33078928E-05
   17.5499992      -6.66161868E-05
   17.6000004       4.17530064E-05
   17.6499996       1.75798021E-04
   17.7000008       1.91998057E-04
   17.7500000       4.35150941E-05
   17.7999992      -1.54592257E-04
   17.8500004      -2.15582651E-04
   17.8999996      -5.66328163E-05
   17.9500008       2.02938609E-04
   18.0000000       3.27086513E-04
   18.0499992       1.72782922E-04
   18.1000004      -1.61079690E-04
   18.1499996      -3.93490045E-04
   18.2000008      -2.97566032E-04
   18.2500000       8.57962368E-05
   18.2999992       4.53964953E-04
   18.3500004       4.83493641E-04
   18.3999996       1.11500442E-04
   18.4500008      -3.87139327E-04
   18.5000000      -6.08258881E-04
   18.5499992      -3.50492570E-04
   18.6000004       2.05260018E-04
   18.6499996       6.26486784E-04
   18.7000008       5.71225537E-04
   18.7500000       6.49693975E-05
   18.7999992      -5.13727369E-04
   18.8500004      -7.27629522E-04
   18.8999996      -4.18342039E-04
   18.9500008       1.78789938E-04
   19.0000000       6.23818836E-04
   19.0499992       6.06120389E-04
   19.1000004       1.62572658E-04
   19.1499996      -3.73620511E-04
   19.2000008      -6.32074487E-04
   19.2500000      -4.64605750E-04
   19.2999992      -2.19239628E-05
   19.3500004       3.81046557E-04
   19.3999996       4.89711412E-04
   19.4500008       2.63621740E-04
   19.5000000      -1.24908984E-04
   19.5499992      -4.19240212E-04
   19.6000004      -4.38799150E-04
   19.6499996      -1.79867828E-04
   19.7000008       1.88368387E-04
   19.7500000       4.24722821E-04
   19.7999992       3.63036612E-04
   19.8500004       2.63250859E-05
   19.8999996      -3.68426350E-04
   19.9500008      -5.39357134E-04
   20.0000000      -3.37148056E-04
   20.0499992       1.24927174E-04
   20.1000004       5.22876391E-04
   20.1499996       5.46742405E-04
   20.2000008       1.44763399E-04
   20.2500000      -4.08986671E-04
   20.2999992      -7.00992357E-04
   20.3500004      -4.94145846E-04
   20.3999996       7.35654539E-05
   20.4500008       5.79484215E-04
   20.5000000       6.40077109E-04
   20.5499992       2.14676460E-04
   20.6000004      -3.60254722E-04
   20.6499996      -6.40185317E-04
   20.7000008      -4.27537219E-04
   20.7500000       7.88067191E-05
   20.7999992       4.60336567E-04
   20.8500004       4.29064006E-04
   20.8999996       5.50980003E-05
   20.9500008      -3.14416364E-04
   21.0000000      -3.64641426E-04
   21.0499992      -7.88126636E-05
   21.1000004       2.64198228E-04
   21.1499996       3.46917222E-04
   21.2000008       9.24389533E-05
   21.2500000      -2.76031380E-04
   21.2999992      -4.37089766E-04
   21.3500004      -2.49491219E-04
   21.3999996       1.34732327E-04
   21.4500008       4.08987515E-04
   21.5000000       3.69884103E-04
   21.5499992       7.06102364E-05
   21.6000004      -2.46479729E-04
   21.6499996      -3.58558056E-04
   21.7000008      -2.25312237E-04
   21.7500000       1.68106380E-05
   21.7999992       1.92738706E-04
   21.8500004       2.20471979E-04
   21.8999996       1.33268841E-04
   21.9500008       8.97934387E-06
   22.0000000      -9.88922038E-05
   22.0499992      -1.65781516E-04
   22.1000004      -1.63676421E-04
   22.1499996      -6.20575884E-05
   22.2000008       1.19660232E-04
   22.2500000       2.73676444E-04
   22.2999992       2.56200932E-04
   22.3500004       1.77492238E-05
   22.3999996      -3.05761496E-04
   22.4500008      -4.57263348E-04
   22.5000000      -2.63214344E-04
   22.5499992       1.85937228E-04
   22.6000004       5.59239008E-04
   22.6499996       5.32641541E-04
   22.7000008       7.24451165E-05
   22.7500000      -4.95575194E-04
   22.7999992      -7.20886164E-04
   22.8500004      -3.94535804E-04
   22.8999996       2.58152286E-04
   22.9500008       7.36805785E-04
   23.0000000       6.62810926E-04
   23.0499992       8.99574006E-05
   23.1000004      -5.33364771E-04
   23.1499996      -7.24692829E-04
   23.2000008      -3.53843614E-04
   23.2500000       2.63044029E-04
   23.2999992       6.32637646E-04
   23.3500004       4.84970020E-04
   23.3999996      -2.63710608E-05
   23.4500008      -4.75735695E-04
   23.5000000      -5.22641931E-04
   23.5499992      -1.70448722E-04
   23.6000004       2.72656383E-04
   23.6499996       4.68141574E-04
   23.7000008       3.09892232E-04
   23.7500000      -3.22720662E-05
   23.7999992      -2.89222720E-04
   23.8500004      -3.11039592E-04
   23.8999996      -1.45966318E-04
   23.9500008       5.09889614E-05
   24.0000000       1.62100943E-04
   24.0499992       1.70123705E-04
   24.1000004       1.15122923E-04
   24.1499996       2.71189765E-05
   24.2000008      -8.25130410E-05
   24.2500000      -1.78373171E-04
   24.2999992      -1.86141071E-04
   24.3500004      -5.33988059E-05
   24.3999996       1.66110272E-04
   24.4500008       3.10816977E-04
   24.5000000       2.32212653E-04
   24.5499992      -5.34993051E-05
   24.6000004      -3.35611869E-04
   24.6499996      -3.63167957E-04
   24.7000008      -7.10465683E-05
   24.7500000       3.27204179E-04
   24.7999992       4.90537845E-04
   24.8500004       2.40798210E-04
   24.8999996      -2.56890809E-04
   24.9500008      -6.00744330E-04
   25.0000000      -4.79976326E-04
   25.0499992       4.76185523E-05
   25.1000004       5.76107763E-04
   25.1499996       6.72069611E-04
   25.2000008       2.35930856E-04
   25.2500000      -4.02209145E-04
   25.2999992      -7.41376192E-04
   25.3500004      -5.13492734E-04
   25.3999996       1.01414895E-04
   25.4500008       6.24269655E-04
   25.5000000       6.62300445E-04
   25.5499992       2.12162617E-04
   25.6000004      -3.58473568E-04
   25.6499996      -6.17843179E-04
   25.7000008      -4.03044833E-04
   25.7500000       8.35083338E-05
   25.7999992       4.64939629E-04
   25.8500004       4.87698795E-04
   25.8999996       1.85433251E-04
   25.9500008      -1.92950130E-04
   26.0000000      -3.95069772E-04
   26.0499992      -3.33088043E-04
   26.1000004      -9.83850623E-05
   26.1499996       1.43963844E-04
   26.2000008       2.69418524E-04
   26.2500000       2.39855377E-04
   26.2999992       8.86612906E-05
   26.3500004      -1.06657128E-04
   26.3999996      -2.44562223E-04
   26.4500008      -2.34004241E-04
   26.5000000      -5.54200669E-05
   26.5499992       1.93265456E-04
   26.6000004       3.32328345E-04
   26.6499996       2.28133969E-04
   26.7000008      -7.60997136E-05
   26.7500000      -3.54842399E-04
   26.7999992      -3.62186751E-04
   26.8500004      -4.89199374E-05
   26.8999996       3.57287237E-04
   26.9500008       5.09634265E-04
   27.0000000       2.33952203E-04
   27.0499992      -2.90770549E-04
   27.1000004      -6.42339757E-04
   27.1499996      -4.95141139E-04
   27.2000008       8.49294229E-05
   27.2500000       6.55114709E-04
   27.2999992       7.37596944E-04
   27.3500004       2.21331618E-04
   27.3999996      -5.16018830E-04
   27.4500008      -8.88739363E-04
   27.5000000      -5.73324971E-04
   27.5499992       2.14960673E-04
   27.6000004       8.75337340E-04
   27.6499996       8.90944037E-04
   27.7000008       2.38779132E-04
   27.7500000      -5.90114971E-04
   27.7999992      -9.74715687E-04
   27.8500004      -6.42490864E-04
   27.8999996       1.35143186E-04
   27.9500008       7.71331543E-04
   28.0000000       8.18845525E-04
   28.0499992       2.90142110E-04
   28.1000004      -3.89857480E-04
   28.1499996      -7.30747124E-04
   28.2000008      -5.35538187E-04
   28.2500000      -5.83550354E-06
   28.2999992       4.51497413E-04
   28.3500004       5.35463972E-04
   28.3999996       2.41290967E-04
   28.4500008      -1.82438889E-04
   28.5000000      -4.38209099E-04
   28.5499992      -3.78452707E-04
   28.6000004      -7.32501358E-05
   28.6499996       2.64782779E-04
   28.7000008       4.22762852E-04
   28.7500000       3.07371374E-04
   28.7999992      -1.04665642E-05
   28.8500004      -3.36585275E-04
   28.8999996      -4.61141870E-04
   28.9500008      -2.86892406E-04
   29.0000000       9.20628445E-05
   29.0499992       4.26271028E-04
   29.1000004       4.66556143E-04
   29.1499996       1.50558146E-04
   29.2000008      -3.20485327E-04
   29.2500000      -6.00154803E-04
   29.2999992      -4.50555701E-04
   29.3500004       5.48035277E-05
   29.3999996       5.54128317E-04
   29.4500008       6.57215132E-04
   29.5000000       2.55102059E-04
   29.5499992      -3.70605034E-04
   29.6000004      -7.46121630E-04
   29.6499996      -5.72108547E-04
   29.7000008       3.04486912E-05
   29.7500000       6.01707899E-04
   29.7999992       6.99117954E-04
   29.8500004       2.48291588E-04
   29.8999996      -3.95127892E-04
   29.9500008      -7.26629747E-04
   30.0000000      -4.92835883E-04
   30.0499992       1.11043359E-04
   30.1000004       6.02935906E-04
   30.1499996       6.00314524E-04
   30.2000008       1.18748692E-04
   30.2500000      -4.52375883E-04
   30.2999992      -6.67185755E-04
   30.3500004      -3.72286100E-04
   30.3999996       1.87790210E-04
   30.4500008       5.78343868E-04
   30.5000000       5.16333384E-04
   30.5499992       7.45569705E-05
   30.6000004      -3.97564436E-04
   30.6499996      -5.53672493E-04
   30.7000008      -3.03435401E-04
   30.7500000       1.45430575E-04
   30.7999992       4.63693752E-04
   30.8500004       4.42875142E-04
   30.8999996       1.24287530E-04
   30.9500008      -2.57468550E-04
   31.0000000      -4.49952728E-04
   31.0499992      -3.44085245E-04
   31.1000004      -2.38848716E-05
   31.1499996       3.04034358E-04
   31.2000008       4.40345408E-04
   31.2500000       3.05293390E-04
   31.2999992      -1.93486667E-05
   31.3500004      -3.34714365E-04
   31.3999996      -4.36581176E-04
   31.4500008      -2.41942456E-04
   31.5000000       1.42846140E-04
   31.5499992       4.69715713E-04
   31.6000004       5.04385855E-04
   31.6499996       1.97997171E-04
   31.7000008      -2.52776052E-04
   31.7500000      -5.24367671E-04
   31.7999992      -3.99605895E-04
   31.8500004       5.33505881E-05
   31.8999996       5.07310964E-04
   31.9500008       6.10883697E-04
   32.0000000       2.64186907E-04
   32.0499992      -2.84003880E-04
   32.0999985      -6.11581723E-04
   32.1500015      -4.49290033E-04
   32.2000008       9.65193758E-05
   32.2500000       6.10933406E-04
   32.2999992       6.87958673E-04
   32.3499985       2.53384846E-04
   32.4000015      -3.66370165E-04
   32.4500008      -6.92147529E-04
   32.5000000      -4.65809717E-04
   32.5499992       1.45423575E-04
   32.5999985       6.77164760E-04
   32.6500015       7.27630802E-04
   32.7000008       2.65171198E-04
   32.7500000      -3.55485769E-04
   32.7999992      -6.73765375E-04