  -10.0000000       0.00000000    
  -9.94999981       0.00000000    
  -9.89999962       0.00000000    
  -9.85000038       0.00000000    
  -9.80000019       0.00000000    
  -9.75000000       0.00000000    
  -9.69999981       0.00000000    
  -9.64999962       0.00000000    
  -9.60000038       1.22441209E-21
  -9.55000019      -7.49242040E-20
  -9.50000000      -4.17255492E-19
  -9.44999981       2.87316274E-20
  -9.39999962       5.88786457E-18
  -9.35000038       1.68010491E-17
  -9.30000019      -4.24261060E-18
  -9.25000000      -1.30179408E-16
  -9.19999981      -2.89793794E-16
  -9.14999962       4.24111481E-17
  -9.10000038       1.55818402E-15
  -9.05000019       3.30277840E-15
  -9.00000000       6.68642832E-16
  -8.94999981      -1.14173993E-14
  -8.89999962      -2.61891000E-14
  -8.85000038      -1.46616761E-14
  -8.80000019       5.39709268E-14
  -8.75000000       1.49060980E-13
  -8.69999981       1.33769718E-13
  -8.64999962      -1.38116040E-13
  -8.60000038      -5.62239491E-13
  -8.55000019      -6.36468363E-13
  -8.50000000       1.32212885E-13
  -8.44999981       1.31645151E-12
  -8.39999962       1.27587524E-12
  -8.35000038      -1.08830154E-12
  -8.30000019      -3.24382643E-12
  -8.25000000       9.38212182E-13
  -8.19999981       1.33351134E-11
  -8.14999962       1.98669432E-11
  -8.10000038      -7.64422727E-12
  -8.05000019      -7.86375895E-11
  -8.00000000      -1.34210379E-10
  -7.94999981      -4.46217022E-11
  -7.90000010       2.75380246E-10
  -7.84999990       6.62904842E-10
  -7.80000019       6.20960672E-10
  -7.75000000      -3.74133141E-10
  -7.69999981      -2.15610929E-09
  -7.65000010      -3.29238392E-09
  -7.59999990      -1.58629310E-09
  -7.55000019       3.89909438E-09
  -7.50000000       1.04093507E-08
  -7.44999981       1.13274039E-08
  -7.40000010       4.97346553E-10
  -7.34999990      -2.02753778E-08
  -7.30000019      -3.67146740E-08
  -7.25000000      -2.80535790E-08
  -7.19999981       1.53787241E-08
  -7.15000010       7.40663353E-08
  -7.09999990       9.99589460E-08
  -7.05000019       4.73281752E-08
  -7.00000000      -7.99030673E-08
  -6.94999981      -2.03709078E-07
  -6.90000010      -2.08270777E-07
  -6.84999990      -3.26636496E-08
  -6.80000019       2.44690199E-07
  -6.75000000       4.18331069E-07
  -6.69999981       2.97378534E-07
  -6.65000010      -1.07381986E-07
  -6.59999990      -5.18611159E-07
  -6.55000019      -5.65807113E-07
  -6.50000000      -1.18174164E-07
  -6.44999981       5.00220324E-07
  -6.40000010       6.85064208E-07
  -6.34999990       9.44900265E-08
  -6.30000019      -8.62274533E-07
  -6.25000000      -1.14312024E-06
  -6.19999981       4.76620450E-08
  -6.15000010       2.21034793E-06
  -6.09999990       3.38593168E-06
  -6.05000019       1.49938251E-06
  -6.00000000      -3.45377453E-06
  -5.94999981      -8.23712162E-06
  -5.90000010      -7.92225637E-06
  -5.84999990       8.61696279E-08
  -5.80000019       1.23585341E-05
  -5.75000000       1.98092803E-05
  -5.69999981       1.35524660E-05
  -5.65000010      -6.92871890E-06
  -5.59999990      -2.98906216E-05
  -5.55000019      -3.68987785E-05
  -5.50000000      -1.63602344E-05
  -5.44999981       2.41463295E-05
  -5.40000010       5.79320658E-05
  -5.34999990       5.55793777E-05
  -5.30000019       8.60262298E-06
  -5.25000000      -5.75874583E-05
  -5.19999981      -9.53214694E-05
  -5.15000010      -6.77133867E-05
  -5.09999990       1.89078946E-05
  -5.05000019       1.10054731E-04
  -5.00000000       1.35939772E-04
  -4.94999981       6.35695033E-05
  -4.90000010      -7.01304816E-05
  -4.84999990      -1.74445086E-04
  -4.80000019      -1.66255297E-04
  -4.75000000      -3.54717231E-05
  -4.69999981       1.36713774E-04
  -4.65000010       2.28097560E-04
  -4.59999990       1.63978126E-04
  -4.55000019      -2.08512556E-05
  -4.50000000      -1.98361347E-04
  -4.44999981      -2.37355765E-04
  -4.40000010      -1.03834398E-04
  -4.34999990       1.06376006E-04
  -4.30000019       2.34143212E-04
  -4.25000000       1.77868656E-04
  -4.19999981      -2.32555631E-05
  -4.15000010      -2.12591855E-04
  -4.09999990      -2.34660940E-04
  -4.05000019      -6.01997708E-05
  -4.00000000       1.82592645E-04
  -3.95000005       3.01954045E-04
  -3.90000010       1.93651387E-04
  -3.84999990      -6.97079231E-05
  -3.79999995      -2.87806382E-04
  -3.75000000      -2.88983952E-04
  -3.70000005      -7.25817808E-05
  -3.65000010       1.81311698E-04
  -3.59999990       2.52996717E-04
  -3.54999995       6.99271695E-05
  -3.50000000      -2.13799998E-04
  -3.45000005      -3.24323657E-04
  -3.40000010      -9.40125465E-05
  -3.34999990       3.67771398E-04
  -3.29999995       7.10682012E-04
  -3.25000000       5.89290459E-04
  -3.20000005      -4.78184666E-05
  -3.15000010      -8.51761608E-04
  -3.09999990      -1.26487541E-03
  -3.04999995      -9.09064547E-04
  -3.00000000       9.74976792E-05
  -2.95000005       1.14844763E-03
  -2.90000010       1.52490789E-03
  -2.84999990       9.09552793E-04
  -2.79999995      -3.27406480E-04
  -2.75000000      -1.31776475E-03
  -2.70000005      -1.28590676E-03
  -2.65000010      -1.53201909E-04
  -2.59999990       1.29896973E-03
  -2.54999995       1.89869455E-03
  -2.50000000       9.28719295E-04
  -2.45000005      -1.23292510E-03
  -2.40000010      -3.19412583E-03
  -2.34999990      -3.40760755E-03
  -2.29999995      -1.29001099E-03
  -2.25000000       2.18827720E-03
  -2.20000005       4.95397439E-03
  -2.15000010       5.13633806E-03
  -2.09999990       2.38836627E-03
  -2.04999995      -1.72936055E-03
  -2.00000000      -4.67852317E-03
  -1.95000005      -4.64286609E-03
  -1.89999998      -1.83765334E-03
  -1.85000002       1.55356177E-03
  -1.79999995       2.87731853E-03
  -1.75000000       9.57887270E-04
  -1.70000005      -2.90155038E-03
  -1.64999998      -5.67362038E-03
  -1.60000002      -4.69957944E-03
  -1.54999995       3.07037641E-04
  -1.50000000       6.80696731E-03
  -1.45000005       1.09637678E-02
  -1.39999998       1.01846159E-02
  -1.35000002       4.92905220E-03
  -1.29999995      -1.51537289E-03
  -1.25000000      -5.20114694E-03
  -1.20000005      -4.17033164E-03
  -1.14999998       2.49558187E-04
  -1.10000002       4.42129839E-03
  -1.04999995       4.98211524E-03
  -1.00000000       1.23681093E-03
 -0.949999988      -4.32225643E-03
 -0.899999976      -7.74959335E-03
 -0.850000024      -6.43678708E-03
 -0.800000012      -1.00808998E-03
 -0.750000000       5.02082752E-03
 -0.699999988       7.61138601E-03
 -0.649999976       4.97241085E-03
 -0.600000024      -1.18554721E-03
 -0.550000012      -6.78471755E-03
 -0.500000000      -8.11710022E-03
 -0.449999988      -4.28262865E-03
 -0.400000006       2.35366449E-03
 -0.349999994       7.95614347E-03
 -0.300000012       9.92816035E-03
 -0.250000000       8.55450612E-03
 -0.200000003       6.40143780E-03
 -0.150000006       5.99304121E-03
 -0.100000001       7.61545030E-03
  -5.00000007E-02   9.03953053E-03
   0.00000000       7.47233490E-03
   5.00000007E-02   2.23231968E-03
  0.100000001      -4.09209915E-03
  0.150000006      -7.20033236E-03
  0.200000003      -4.41375887E-03
  0.250000000       2.77856202E-03
  0.300000012       9.24357213E-03
  0.349999994       9.87873226E-03
  0.400000006       3.92960384E-03
  0.449999988      -3.49142705E-03
  0.500000000      -4.43437928E-03
  0.550000012       5.91720594E-03
  0.600000024       2.45243572E-02
  0.649999976       4.09260020E-02
  0.699999988       4.33975123E-02
  0.750000000       2.71866024E-02
  0.800000012      -8.77890328E-04
  0.850000024      -2.52118148E-02
  0.899999976      -3.06822136E-02
  0.949999988      -1.25266658E-02
   1.00000000       1.97159201E-02
   1.04999995       4.74085063E-02
   1.10000002       5.43071404E-02
   1.14999998       3.70681174E-02
   1.20000005       7.77203776E-03
   1.25000000      -1.35253537E-02
   1.29999995      -1.16441352E-02
   1.35000002       1.37626408E-02
   1.39999998       4.77531254E-02
   1.45000005       6.96104839E-02
   1.50000000       6.62070289E-02
   1.54999995       4.04735059E-02
   1.60000002       9.37884394E-03
   1.64999998      -7.23440340E-03
   1.70000005       4.93795960E-04
   1.75000000       2.64798626E-02
   1.79999995       5.35337105E-02
   1.85000002       6.55083731E-02
   1.89999998       5.82566783E-02
   1.95000005       4.17523049E-02
   2.00000000       3.20226625E-02
   2.04999995       3.88357602E-02
   2.09999990       5.82400598E-02
   2.15000010       7.55932480E-02
   2.20000005       7.70113766E-02
   2.25000000       6.07538149E-02
   2.29999995       3.97711731E-02
   2.34999990       3.29015478E-02
   2.40000010       5.07063940E-02
   2.45000005       8.63924623E-02
   2.50000000      0.118995026    
   2.54999995      0.127345696    
   2.59999990      0.105226353    
   2.65000010       6.67544156E-02
   2.70000005       3.77410091E-02
   2.75000000       3.85947675E-02
   2.79999995       7.06869066E-02
   2.84999990      0.115551770    
   2.90000010      0.147512376    
   2.95000005      0.150719553    
   3.00000000      0.128791541    
   3.04999995      0.100790910    
   3.09999990       8.71138126E-02
   3.15000010       9.57338139E-02
   3.20000005      0.118443519    
   3.25000000      0.138898522    
   3.29999995      0.145695329    
   3.34999990      0.140427068    
   3.40000010      0.134864554    
   3.45000005      0.140192702    
   3.50000000      0.156930283    
   3.54999995      0.173740178    
   3.59999990      0.176189214    
   3.65000010      0.158893913    
   3.70000005      0.131536841    
   3.75000000      0.113606475    
   3.79999995      0.121075660    
   3.84999990      0.154273301    
   3.90000010      0.196100920    
   3.95000005      0.222422034    
   4.00000000      0.217863694    
   4.05000019      0.186328903    
   4.09999990      0.148590401    
   4.15000010      0.128595740    
   4.19999981      0.137521222    
   4.25000000      0.166797310    
   4.30000019      0.194717631    
   4.34999990      0.201947182    
   4.40000010      0.185005501    
   4.44999981      0.158171713    
   4.50000000      0.142612487    
   4.55000019      0.150577039    
   4.59999990      0.176085889    
   4.65000010      0.198848888    
   4.69999981      0.198677823    
   4.75000000      0.170170859    
   4.80000019      0.127123088    
   4.84999990       9.34953541E-02
   4.90000010       8.74893293E-02
   4.94999981      0.109385058    
   5.00000000      0.141747460    
   5.05000019      0.161161125    
   5.09999990      0.153440982    
   5.15000010      0.121863544    
   5.19999981       8.31680670E-02
   5.25000000       5.54285422E-02
   5.30000019       4.61190455E-02
   5.34999990       4.90277112E-02
   5.40000010       5.08425497E-02
   5.44999981       4.22692411E-02
   5.50000000       2.48595960E-02
   5.55000019       8.59857723E-03
   5.59999990       2.48014089E-03
   5.65000010       5.47268055E-03
   5.69999981       5.42791001E-03
   5.75000000      -1.21396910E-02
   5.80000019      -5.17874174E-02
   5.84999990     -0.101684719    
   5.90000010     -0.139263660    
   5.94999981     -0.146319166    
   6.00000000     -0.123657726    
   6.05000019      -9.36233476E-02
   6.09999990      -8.69236067E-02
   6.15000010     -0.121471077    
   6.19999981     -0.188266501    
   6.25000000     -0.254941404    
   6.30000019     -0.287031621    
   6.34999990     -0.272372991    
   6.40000010     -0.231221020    
   6.44999981     -0.203452393    
   6.50000000     -0.221068770    
   6.55000019     -0.285291463    
   6.59999990     -0.364917994    
   6.65000010     -0.417439193    
   6.69999981     -0.418737650    
   6.75000000     -0.378793985    
   6.80000019     -0.333547980    
   6.84999990     -0.319167525    
   6.90000010     -0.348414361    
   6.94999981     -0.405479759    
   7.00000000     -0.461186916    
   7.05000019     -0.495183110    
   7.09999990     -0.506343782    
   7.15000010     -0.507152319    
   7.19999981     -0.507872641    
   7.25000000     -0.507319152    
   7.30000019     -0.497571141    
   7.34999990     -0.476736784    
   7.40000010     -0.457191855    
   7.44999981     -0.459057003    
   7.50000000     -0.492993504    
   7.55000019     -0.547722757    
   7.59999990     -0.593814611    
   7.65000010     -0.603456080    
   7.69999981     -0.571095109    
   7.75000000     -0.518597543    
   7.80000019     -0.480279297    
   7.84999990     -0.478240758    
   7.90000010     -0.506993890    
   7.94999981     -0.538814723    
   8.00000000     -0.545109987    
   8.05000019     -0.517084777    
   8.10000038     -0.471289456    
   8.14999962     -0.435823321    
   8.19999981     -0.430249155    
   8.25000000     -0.452638835    
   8.30000019     -0.482436359    
   8.35000038     -0.495024621    
   8.39999962     -0.476134539    
   8.44999981     -0.427991956    
   8.50000000     -0.365549862    
   8.55000019     -0.308232605    
   8.60000038     -0.272081286    
   8.64999962     -0.265059292    
   8.69999981     -0.284262359    
   8.75000000     -0.315122813    
   8.80000019     -0.334856361    
   8.85000038     -0.321714491    
   8.89999962     -0.267408431    
   8.94999981     -0.185154364    
   9.00000000     -0.105925702    
   9.05000019      -6.14605471E-02
   9.10000038      -6.44180924E-02
   9.14999962      -9.84871686E-02
   9.19999981     -0.127450600    
   9.25000000     -0.118547007    
   9.30000019      -6.43536597E-02
   9.35000038       1.21434154E-02
   9.39999962       7.40241259E-02
   9.44999981       9.65996608E-02
   9.50000000       8.47080201E-02
   9.55000019       6.80252239E-02
   9.60000038       7.80770108E-02
   9.64999962      0.124185897    
   9.69999981      0.186783090    
   9.75000000      0.233209699    
   9.80000019      0.243690819    
   9.85000038      0.226987466    
   9.89999962      0.213197336    
   9.94999981      0.229137689    
   10.0000000      0.276148111    
   10.0500002      0.328687400    
   10.1000004      0.355554402    
   10.1499996      0.346730232    
   10.1999998      0.323281467    
   10.2500000      0.320762515    
   10.3000002      0.358672738    
   10.3500004      0.421231300    
   10.3999996      0.467072666    
   10.4499998      0.462152660    
   10.5000000      0.409778088    
   10.5500002      0.352138281    
   10.6000004      0.339608550    
   10.6499996      0.390683591    
   10.6999998      0.475127310    
   10.7500000      0.535108507    
   10.8000002      0.529214501    
   10.8500004      0.464511931    
   10.8999996      0.390882611    
   10.9499998      0.361876130    
   11.0000000      0.393556654    
   11.0500002      0.454390675    
   11.1000004      0.493243843    
   11.1499996      0.481344700    
   11.1999998      0.433135867    
   11.2500000      0.389728934    
   11.3000002      0.381234944    
   11.3500004      0.401434988    
   11.3999996      0.416643381    
   11.4499998      0.399422795    
   11.5000000      0.356019408    
   11.5500002      0.321567714    
   11.6000004      0.327278465    
   11.6499996      0.368896872    
   11.6999998      0.406104624    
   11.7500000      0.395347387    
   11.8000002      0.328089178    
   11.8500004      0.240948111    
   11.8999996      0.187501296    
   11.9499998      0.195229083    
   12.0000000      0.244054541    
   12.0500002      0.284758836    
   12.1000004      0.280691892    
   12.1499996      0.236693010    
   12.1999998      0.190676063    
   12.2500000      0.176546752    
   12.3000002      0.192292064    
   12.3500004      0.202150956    
   12.3999996      0.170988694    
   12.4499998       9.98344943E-02
   12.5000000       2.99568363E-02
   12.5500002       1.03752008E-02
   12.6000004       5.54717816E-02
   12.6499996      0.129501835    
   12.6999998      0.172090754    
   12.7500000      0.144656718    
   12.8000002       6.01655990E-02
   12.8500004      -2.73692403E-02
   12.8999996      -6.45303130E-02
   12.9499998      -3.76386233E-02
   13.0000000       2.02311780E-02
   13.0500002       5.74205741E-02
   13.1000004       4.27751318E-02
   13.1499996      -1.45609565E-02
   13.1999998      -7.65569359E-02
   13.2500000     -0.106542327    
   13.3000002      -9.36448723E-02
   13.3500004      -5.54009788E-02
   13.3999996      -2.10073255E-02
   13.4499998      -1.09795611E-02
   13.5000000      -2.75723841E-02
   13.5500002      -5.91294765E-02
   13.6000004      -9.09183994E-02
   13.6499996     -0.113340348    
   13.6999998     -0.123539083    
   13.7500000     -0.122804686    
   13.8000002     -0.113844134    
   13.8500004     -0.100060232    
   13.8999996      -8.59238133E-02
   13.9499998      -7.68722966E-02
   14.0000000      -7.78880343E-02
   14.0500002      -9.10067558E-02
   14.1000004     -0.112860307    
   14.1499996     -0.134003028    
   14.1999998     -0.142051250    
   14.2500000     -0.128857255    
   14.3000002      -9.82210189E-02
   14.3500004      -6.76313564E-02
   14.3999996      -5.94668314E-02
   14.4499998      -8.49052966E-02
   14.5000000     -0.131937474    
   14.5500002     -0.169247448    
   14.6000004     -0.166976288    
   14.6499996     -0.120602593    
   14.6999998      -5.82476892E-02
   14.7500000      -2.24303789E-02
   14.8000002      -3.80331650E-02
   14.8500004      -9.18265283E-02
   14.8999996     -0.141797766    
   14.9499998     -0.150520548    
   15.0000000     -0.115422480    
   15.0500002      -6.99209794E-02
   15.1000004      -5.35434596E-02
   15.1499996      -7.66912401E-02
   15.1999998     -0.111514382    
   15.2500000     -0.117946610    
   15.3000002      -8.21343586E-02
   15.3500004      -3.18748839E-02
   15.3999996      -1.32265510E-02
   15.4499998      -4.77767475E-02
   15.5000000     -0.109459400    
   15.5500002     -0.144193977    
   15.6000004     -0.117437050    
   15.6499996      -4.77155671E-02
   15.6999998       5.80953434E-03
   15.7500000      -6.16415124E-03
   15.8000002      -7.75585100E-02
   15.8500004     -0.147670314    
   15.8999996     -0.150577933    
   15.9499998      -7.26480335E-02
   16.0000000       3.14985104E-02
   16.0499992       8.01702067E-02
   16.1000004       3.01289167E-02
   16.1499996      -8.73701721E-02
   16.2000008     -0.189707592    
   16.2500000     -0.205855325    
   16.2999992     -0.128324151    
   16.3500004      -1.42762158E-02
   16.3999996       6.10074364E-02
   16.4500008       5.82596138E-02
   16.5000000      -5.46548190E-03
   16.5499992      -7.98307434E-02
   16.6000004     -0.122122206    
   16.6499996     -0.121800952    
   16.7000008      -9.49921682E-02
   16.7500000      -6.29079118E-02
   16.7999992      -3.71658951E-02
   16.8500004      -2.14712974E-02
   16.8999996      -1.98481083E-02
   16.9500008      -3.71629409E-02
   17.0000000      -7.02791512E-02
   17.0499992     -0.102332689    
   17.1000004     -0.111408643    
   17.1499996      -8.91280323E-02
   17.2000008      -5.12725748E-02
   17.2500000      -2.73712762E-02
   17.2999992      -3.60533446E-02
   17.3500004      -6.84344023E-02
   17.3999996      -9.60722044E-02
   17.4500008      -9.71432626E-02
   17.5000000      -7.63017386E-02
   17.5499992      -5.88595308E-02
   17.6000004      -6.46786839E-02
   17.6499996      -8.76213536E-02
   17.7000008     -0.101789728    
   17.7500000      -8.92936587E-02
   17.7999992      -6.16032965E-02
   17.8500004      -5.10269552E-02
   17.8999996      -7.79689327E-02
   17.9500008     -0.125601783    
   18.0000000     -0.149722859    
   18.0499992     -0.118923470    
   18.1000004      -4.88890074E-02
   18.1499996       4.07420099E-03
   18.2000008      -1.07026203E-02
   18.2500000      -9.14826393E-02
   18.2999992     -0.180347055    
   18.3500004     -0.209238440    
   18.3999996     -0.157108352    
   18.4500008      -6.75010532E-02
   18.5000000      -1.01484098E-02
   18.5499992      -2.07968932E-02
   18.6000004      -7.35857263E-02
   18.6499996     -0.110504448    
   18.7000008      -9.93043780E-02
   18.7500000      -6.42854944E-02
   18.7999992      -5.96639365E-02
   18.8500004     -0.110554390    
   18.8999996     -0.179441601    
   18.9500008     -0.194530144    
   19.0000000     -0.117982313    
   19.0499992       8.92491918E-03
   19.1000004       9.02891010E-02
   19.1499996       5.45892045E-02
   19.2000008      -7.93069154E-02
   19.2500000     -0.209734961    
   19.2999992     -0.231976390    
   19.3500004     -0.124738820    
   19.3999996       3.05236150E-02
   19.4500008      0.115175471    
   19.5000000       6.93719462E-02
   19.5499992      -6.17425628E-02
   19.6000004     -0.168472111    
   19.6499996     -0.167147890    
   19.7000008      -6.41587526E-02
   19.7500000       5.70404232E-02
   19.7999992      0.109289274    
   19.8500004       7.01406077E-02
   19.8999996      -9.58289951E-03
   19.9500008      -5.72967641E-02
   20.0000000      -3.99080217E-02
   20.0499992       1.68546494E-02
   20.1000004       6.09516911E-02
   20.1499996       6.27401248E-02
   20.2000008       3.58988233E-02
   20.2500000       1.76858306E-02
   20.2999992       3.22746374E-02
   20.3500004       7.25421533E-02
   20.3999996      0.111861341    
   20.4500008      0.129387528    
   20.5000000      0.123630956    
   20.5499992      0.106254995    
   20.6000004       8.90472606E-02
   20.6499996       7.90816545E-02
   20.7000008       8.31491649E-02
   20.7500000      0.108828917    
   20.7999992      0.154881611    
   20.8500004      0.201135054    
   20.8999996      0.215431437    
   20.9500008      0.180806175    
   21.0000000      0.119910412    
   21.0499992       8.80481973E-02
   21.1000004      0.130286917    
   21.1499996      0.235147014    
   21.2000008      0.330382228    
   21.2500000      0.335094184    
   21.2999992      0.230997637    
   21.3500004       9.01477933E-02
   21.3999996       2.66389139E-02
   21.4500008      0.104594141    
   21.5000000      0.278573871    
   21.5499992      0.421455711    
   21.6000004      0.423404396    
   21.6499996      0.282365501    
   21.7000008      0.109192334    
   21.7500000       4.00157943E-02
   21.7999992      0.127239898    
   21.8500004      0.299088061    
   21.8999996      0.420473874    
   21.9500008      0.402711838    
   22.0000000      0.270611465    
   22.0499992      0.134329811    
   22.1000004       9.48861092E-02
   22.1499996      0.165842339    
   22.2000008      0.273463666    
   22.2500000      0.327251136    
   22.2999992      0.294512987    
   22.3500004      0.216823548    
   22.3999996      0.162690863    
   22.4500008      0.166308194    
   22.5000000      0.206437439    
   22.5499992      0.237091005    
   22.6000004      0.232631162    
   22.6499996      0.203953654    
   22.7000008      0.176497295    
   22.7500000      0.160044372    
   22.7999992      0.143751502    
   22.8500004      0.118757308    
   22.8999996       9.80321914E-02
   22.9500008      0.106735900    
   23.0000000      0.149944797    
   23.0499992      0.193928301    
   23.1000004      0.188398436    
   23.1499996      0.114943147    
   23.2000008       1.47277759E-02
   23.2500000      -3.81231830E-02
   23.2999992      -1.27158046E-03
   23.3500004       9.11891833E-02
   23.3999996      0.150491878    
   23.4500008      0.109174371    
   23.5000000      -1.43909995E-02
   23.5499992     -0.124557637    
   23.6000004     -0.128967866    
   23.6499996      -2.27109492E-02
   23.7000008      0.100384496    
   23.7500000      0.124718867    
   23.7999992       1.36359651E-02
   23.8500004     -0.154676825    
   23.8999996     -0.250616699    
   23.9500008     -0.203240141    
   24.0000000      -6.15414940E-02
   24.0499992       4.72919419E-02
   24.1000004       2.65402142E-02
   24.1499996     -0.108501755    
   24.2000008     -0.246491224    
   24.2500000     -0.277852416    
   24.2999992     -0.188091323    
   24.3500004      -6.62536994E-02
   24.3999996      -2.41227020E-02
   24.4500008      -9.92707908E-02
   24.5000000     -0.226451993    
   24.5499992     -0.298784226    
   24.6000004     -0.261779547    
   24.6499996     -0.157370552    
   24.7000008      -8.29028636E-02
   24.7500000     -0.105039664    
   24.7999992     -0.205024645    
   24.8500004     -0.299359441    
   24.8999996     -0.312902957    
   24.9500008     -0.239147902    
   25.0000000     -0.139438927    
   25.0499992      -8.86285156E-02
   25.1000004     -0.117554300    
   25.1499996     -0.197792754    
   25.2000008     -0.272483259    
   25.2500000     -0.299880445    
   25.2999992     -0.274212897    
   25.3500004     -0.216567159    
   25.3999996     -0.154625669    
   25.4500008     -0.111253783    
   25.5000000     -0.103241958    
   25.5499992     -0.138127580    
   25.6000004     -0.204226941    
   25.6499996     -0.265646368    
   25.7000008     -0.277950376    
   25.7500000     -0.221007511    
   25.7999992     -0.122700483    
   25.8500004      -4.63890471E-02
   25.8999996      -4.44782712E-02
   25.9500008     -0.114086807    
   26.0000000     -0.195651665    
   26.0499992     -0.220587671    
   26.1000004     -0.169245392    
   26.1499996      -8.76135379E-02
   26.2000008      -4.54394333E-02
   26.2500000      -7.20126107E-02
   26.2999992     -0.128474221    
   26.3500004     -0.144269869    
   26.3999996      -8.60198960E-02
   26.4500008       5.46575710E-03
   26.5000000       4.80443686E-02
   26.5499992      -5.10775112E-03
   26.6000004     -0.114880420    
   26.6499996     -0.182155073    
   26.7000008     -0.132843852    
   26.7500000       1.14240972E-02
   26.7999992      0.142938390    
   26.8500004      0.155167848    
   26.8999996       3.52421030E-02
   26.9500008     -0.119144998    
   27.0000000     -0.176628798    
   27.0499992      -8.03843960E-02
   27.1000004      0.103228718    
   27.1499996      0.237259999    
   27.2000008      0.224200934    
   27.2500000       8.25470909E-02
   27.2999992      -7.18011186E-02
   27.3500004     -0.120552480    
   27.3999996      -3.40450406E-02
   27.4500008      0.114078641    
   27.5000000      0.214195207    
   27.5499992      0.208552241    
   27.6000004      0.127497256    
   27.6499996       5.13101481E-02
   27.7000008       3.84758636E-02
   27.7500000       8.33683312E-02
   27.7999992      0.134021670    
   27.8500004      0.145768896    
   27.8999996      0.119459040    
   27.9500008       9.32212919E-02
   28.0000000      0.101476476    
   28.0499992      0.142039523    
   28.1000004      0.180304855    
   28.1499996      0.183043242    
   28.2000008      0.148344845    
   28.2500000      0.105877422    
   28.2999992       8.99232402E-02
   28.3500004      0.111706175    
   28.3999996      0.153616801    
   28.4500008      0.186795235    
   28.5000000      0.193108276    
   28.5499992      0.173584402    
   28.6000004      0.141473547    
   28.6499996      0.111430407    
   28.7000008       9.50578302E-02
   28.7500000      0.101291552    
   28.7999992      0.133838668    
   28.8500004      0.183268398    
   28.8999996      0.223659977    
   28.9500008      0.223991498    
   29.0000000      0.171700493    
   29.0499992       8.97148773E-02
   29.1000004       2.80534476E-02
   29.1499996       2.99972612E-02
   29.2000008       9.75564793E-02
   29.2500000      0.185615093    
   29.2999992      0.233267844    
   29.3500004      0.209255248    
   29.3999996      0.134624347    
   29.4500008       6.37577847E-02
   29.5000000       3.99766490E-02
   29.5499992       6.36024550E-02
   29.6000004       9.88646373E-02
   29.6499996      0.110942923    
   29.7000008       9.77863148E-02
   29.7500000       8.71936306E-02
   29.7999992      0.102865413    
   29.8500004      0.133888662    
   29.8999996      0.139919072    
   29.9500008       9.07325819E-02
   30.0000000       3.97298485E-03
   30.0499992      -5.81522547E-02
   30.1000004      -3.75280939E-02
   30.1499996       6.48487061E-02
   30.2000008      0.177643299    
   30.2500000      0.208741918    
   30.2999992      0.119856477    
   30.3500004      -3.55979763E-02
   30.3999996     -0.147169515    
   30.4500008     -0.131643638    
   30.5000000      -6.08337985E-04
   30.5499992      0.145065188    
   30.6000004      0.192224383    
   30.6499996      0.103839964    
   30.7000008      -5.21051809E-02
   30.7500000     -0.157031491    
   30.7999992     -0.135755479    
   30.8500004      -1.43519770E-02
   30.8999996      0.104029939    
   30.9500008      0.124264129    
   31.0000000       3.50572243E-02
   31.0499992      -8.57953504E-02
   31.1000004     -0.138948843    
   31.1499996      -8.63563120E-02
   31.2000008       1.92669593E-02
   31.2500000       8.14225003E-02
   31.2999992       4.26316410E-02
   31.3500004      -6.65955022E-02
   31.3999996     -0.153102532    
   31.4500008     -0.139224783    
   31.5000000      -2.88131554E-02
   31.5499992       9.32299495E-02
   31.6000004      0.127705768    
   31.6499996       4.04514298E-02
   31.7000008     -0.108831041    
   31.7500000     -0.210593745    
   31.7999992     -0.187612489    
   31.8500004      -5.23972362E-02
   31.8999996      0.102188133    
   31.9500008      0.170054108    
   32.0000000      0.106274702    
   32.0499992      -4.37023602E-02
   32.0999985     -0.177595884    
   32.1500015     -0.206066504    
   32.2000008     -0.110763110    
   32.2500000       4.60869074E-02
   32.2999992      0.163680360    
   32.3499985      0.167742506    
   32.4000015       5.79271391E-02
   32.4500008      -9.14251953E-02
   32.5000000     -0.178204343    
   32.5499992     -0.139463440    
   32.5999985       3.98605410E-03
   32.6500015      0.156908065    
   32.7000008      0.212089956    
   32.7500000      0.127189547    
   32.7999992      -3.87428701E-02