  -10.0000000       0.00000000    
  -9.96000004       0.00000000    
  -9.92000008       0.00000000    
  -9.88000011       0.00000000    
  -9.84000015       0.00000000    
  -9.80000019       0.00000000    
  -9.76000023       0.00000000    
  -9.72000027       1.82593052E-31
  -9.68000031      -3.53708821E-27
  -9.64000034      -2.02829784E-25
  -9.60000038      -2.80701894E-24
  -9.56000042      -2.18358797E-23
  -9.52000046      -1.18901798E-22
  -9.47999954      -5.01145738E-22
  -9.43999958      -1.73107132E-21
  -9.39999962      -5.08557951E-21
  -9.35999966      -1.30420501E-20
  -9.31999969      -2.97267548E-20
  -9.27999973      -6.08270947E-20
  -9.23999977      -1.11874834E-19
  -9.19999981      -1.83454830E-19
  -9.15999985      -2.63087586E-19
  -9.11999989      -3.16522755E-19
  -9.07999992      -2.81926262E-19
  -9.03999996      -6.29833930E-20
  -9.00000000       4.93267445E-19
  -8.96000004       1.63393183E-18
  -8.92000008       3.69125212E-18
  -8.88000011       6.89657989E-18
  -8.84000015       1.09362608E-17
  -8.80000019       1.44283328E-17
  -8.76000023       1.48299124E-17
  -8.72000027       9.28474421E-18
  -8.68000031      -3.74616740E-18
  -8.64000034      -2.33351224E-17
  -8.60000038      -4.73044508E-17
  -8.56000042      -7.66712055E-17
  -8.52000046      -1.20965980E-16
  -8.47999954      -1.97654172E-16
  -8.43999958      -3.16799534E-16
  -8.39999962      -4.48434171E-16
  -8.35999966      -4.89347610E-16
  -8.31999969      -2.71178604E-16
  -8.27999973       3.43885795E-16
  -8.23999977       1.28454601E-15
  -8.19999981       2.12181330E-15
  -8.15999985       2.15325685E-15
  -8.11999989       8.60223527E-16
  -8.07999992      -1.41270876E-15
  -8.03999996      -3.08944002E-15
  -8.00000000      -1.95005937E-15
  -7.96000004       3.17640299E-15
  -7.92000008       1.04717294E-14
  -7.88000011       1.46091482E-14
  -7.84000015       9.01318611E-15
  -7.80000019      -9.47966749E-15
  -7.76000023      -3.61839939E-14
  -7.71999979      -5.79506129E-14
  -7.67999983      -5.83648933E-14
  -7.63999987      -2.70609442E-14
  -7.59999990       3.19369199E-14
  -7.55999994       9.83649672E-14
  -7.51999998       1.42564048E-13
  -7.48000002       1.38148838E-13
  -7.44000006       7.42871544E-14
  -7.40000010      -3.79889127E-14
  -7.36000013      -1.67222329E-13
  -7.32000017      -2.68838662E-13
  -7.28000021      -2.95810414E-13
  -7.23999977      -2.12285945E-13
  -7.19999981      -1.09980698E-14
  -7.15999985       2.68241972E-13
  -7.11999989       5.29390659E-13
  -7.07999992       6.36198993E-13
  -7.03999996       4.63571239E-13
  -7.00000000      -2.55079076E-14
  -6.96000004      -7.12757219E-13
  -6.92000008      -1.31526615E-12
  -6.88000011      -1.46648936E-12
  -6.84000015      -8.75929483E-13
  -6.80000019       4.94992014E-13
  -6.76000023       2.32913211E-12
  -6.71999979       3.98982323E-12
  -6.67999983       4.70500765E-12
  -6.63999987       3.83938237E-12
  -6.59999990       1.15565663E-12
  -6.55999994      -3.02662496E-12
  -6.51999998      -7.82430197E-12
  -6.48000002      -1.19382742E-11
  -6.44000006      -1.39286829E-11
  -6.40000010      -1.25794349E-11
  -6.36000013      -7.30172606E-12
  -6.32000017       1.50468548E-12
  -6.28000021       1.22571267E-11
  -6.23999977       2.23087764E-11
  -6.19999981       2.84826555E-11
  -6.15999985       2.79941313E-11
  -6.11999989       1.95518653E-11
  -6.07999992       4.26560133E-12
  -6.03999996      -1.40603579E-11
  -6.00000000      -2.95513752E-11
  -5.96000004      -3.58332704E-11
  -5.92000008      -2.82269833E-11
  -5.88000011      -5.93658109E-12
  -5.84000015       2.65455505E-11
  -5.80000019       5.94971850E-11
  -5.76000023       7.98237240E-11
  -5.71999979       7.45239287E-11
  -5.67999983       3.50104459E-11
  -5.63999987      -3.88865919E-11
  -5.59999990      -1.36518255E-10
  -5.55999994      -2.36637626E-10
  -5.51999998      -3.10663800E-10
  -5.48000002      -3.28635119E-10
  -5.44000006      -2.66755895E-10
  -5.40000010      -1.14920080E-10
  -5.36000013       1.17580126E-10
  -5.32000017       3.99757200E-10
  -5.28000021       6.81103729E-10
  -5.23999977       8.98518260E-10
  -5.19999981       9.87334992E-10
  -5.15999985       8.94886387E-10
  -5.11999989       5.94249094E-10
  -5.07999992       9.53743959E-11
  -5.03999996      -5.49164825E-10
  -5.00000000      -1.24597010E-09
  -4.96000004      -1.87113725E-09
  -4.92000008      -2.28850716E-09
  -4.88000011      -2.37355402E-09
  -4.84000015      -2.03916617E-09
  -4.80000019      -1.25868460E-09
  -4.76000023      -8.14593254E-11
  -4.71999979       1.36304001E-09
  -4.67999983       2.87497026E-09
  -4.63999987       4.20798330E-09
  -4.59999990       5.10502884E-09
  -4.55999994       5.34148548E-09
  -4.51999998       4.76897233E-09
  -4.48000002       3.35200268E-09
  -4.44000006       1.18960508E-09
  -4.40000010      -1.48441082E-09
  -4.36000013      -4.32573533E-09
  -4.32000017      -6.92714153E-09
  -4.28000021      -8.88313867E-09
  -4.23999977      -9.86106219E-09
  -4.19999981      -9.66521174E-09
  -4.15999985      -8.28056113E-09
  -4.11999989      -5.88525184E-09
  -4.07999992      -2.82639756E-09
  -4.03999996       4.39392273E-10
  -4.00000000       3.43211770E-09
  -3.96000004       5.74624748E-09
  -3.92000008       7.14145854E-09
  -3.88000011       7.60653407E-09
  -3.83999991       7.37945927E-09
  -3.79999995       6.91317581E-09
  -3.75999999       6.78582612E-09
  -3.72000003       7.56553309E-09
  -3.68000007       9.65084368E-09
  -3.64000010       1.31167486E-08
  -3.59999990       1.76005184E-08
  -3.55999994       2.22597407E-08
  -3.51999998       2.58263064E-08
  -3.48000002       2.67654023E-08
  -3.44000006       2.35294380E-08
  -3.40000010       1.48767354E-08
  -3.35999990       2.06993769E-10
  -3.31999993      -2.01462083E-08
  -3.27999997      -4.47283348E-08
  -3.24000001      -7.09367853E-08
  -3.20000005      -9.51895416E-08
  -3.16000009      -1.13297453E-07
  -3.11999989      -1.21014580E-07
  -3.07999992      -1.14706076E-07
  -3.03999996      -9.20438907E-08
  -3.00000000      -5.26209654E-08
  -2.96000004       1.62850111E-09
  -2.92000008       6.63005224E-08
  -2.88000011       1.34749072E-07
  -2.83999991       1.98686777E-07
  -2.79999995       2.49117647E-07
  -2.75999999       2.77503631E-07
  -2.72000003       2.77017477E-07
  -2.68000007       2.43702544E-07
  -2.64000010       1.77354579E-07
  -2.59999990       8.19612112E-08
  -2.55999994      -3.44130768E-08
  -2.51999998      -1.60335659E-07
  -2.48000002      -2.82258867E-07
  -2.44000006      -3.86179835E-07
  -2.40000010      -4.59493577E-07
  -2.35999990      -4.92778497E-07
  -2.31999993      -4.81242296E-07
  -2.27999997      -4.25588041E-07
  -2.24000001      -3.32130554E-07
  -2.20000005      -2.12099195E-07
  -2.16000009      -8.01818203E-08
  -2.11999989       4.75120387E-08
  -2.07999992       1.55790914E-07
  -2.03999996       2.32681174E-07
  -2.00000000       2.71331118E-07
  -1.96000004       2.71204129E-07
  -1.91999996       2.38340334E-07
  -1.88000000       1.84600381E-07
  -1.84000003       1.25960440E-07
  -1.79999995       8.00799356E-08
  -1.75999999       6.34869224E-08
  -1.72000003       8.88011300E-08
  -1.67999995       1.62426701E-07
  -1.63999999       2.83090458E-07
  -1.60000002       4.41486321E-07
  -1.55999994       6.21122865E-07
  -1.51999998       8.00291161E-07
  -1.48000002       9.54892471E-07
  -1.44000006       1.06172502E-06
  -1.39999998       1.10174710E-06
  -1.36000001       1.06281982E-06
  -1.32000005       9.41506244E-07
  -1.27999997       7.43628391E-07
  -1.24000001       4.83477265E-07
  -1.20000005       1.81768016E-07
  -1.15999997      -1.37367948E-07
  -1.12000000      -4.49910317E-07
  -1.08000004      -7.35462493E-07
  -1.03999996      -9.80206323E-07
  -1.00000000      -1.17882712E-06
 -0.959999979      -1.33508786E-06
 -0.920000017      -1.46092941E-06
 -0.879999995      -1.57419470E-06
 -0.839999974      -1.69528835E-06
 -0.800000012      -1.84325620E-06
 -0.759999990      -2.03186573E-06
 -0.720000029      -2.26628913E-06
 -0.680000007      -2.54091151E-06
 -0.639999986      -2.83864097E-06
 -0.600000024      -3.13187616E-06
 -0.560000002      -3.38505515E-06
 -0.519999981      -3.55847396E-06
 -0.479999989      -3.61286743E-06
 -0.439999998      -3.51414087E-06
 -0.400000006      -3.23760128E-06
 -0.360000014      -2.77112008E-06
 -0.319999993      -2.11679276E-06
 -0.280000001      -1.29089983E-06
 -0.239999995      -3.22196684E-07
 -0.200000003       7.51191919E-07
 -0.159999996       1.88580589E-06
 -0.119999997       3.03723323E-06
  -7.99999982E-02   4.16422245E-06
  -3.99999991E-02   5.23197559E-06
   0.00000000       6.21420122E-06
   3.99999991E-02   7.09371852E-06
   7.99999982E-02   7.86161218E-06
  0.119999997       8.51517598E-06
  0.159999996       9.05501201E-06
  0.200000003       9.48179513E-06
  0.239999995       9.79319248E-06
  0.280000001       9.98141149E-06
  0.319999993       1.00316493E-05
  0.360000014       9.92164678E-06
  0.400000006       9.62227477E-06
  0.439999998       9.09898517E-06
  0.479999989       8.31383659E-06
  0.519999981       7.22772074E-06
  0.560000002       5.80247888E-06
  0.600000024       4.00260205E-06
  0.639999986       1.79638266E-06
  0.680000007      -8.43536100E-07
  0.720000029      -3.94013796E-06
  0.759999990      -7.51240123E-06
  0.800000012      -1.15758921E-05
  0.839999974      -1.61434637E-05
  0.879999995      -2.12260293E-05
  0.920000017      -2.68334134E-05
  0.959999979      -3.29754948E-05
   1.00000000      -3.96638134E-05
   1.03999996      -4.69139195E-05
   1.08000004      -5.47486270E-05
   1.12000000      -6.32022056E-05
   1.15999997      -7.23253761E-05
   1.20000005      -8.21908616E-05
   1.24000001      -9.28986265E-05
   1.27999997      -1.04580307E-04
   1.32000005      -1.17401840E-04
   1.36000001      -1.31563327E-04
   1.39999998      -1.47295752E-04
   1.44000006      -1.64853976E-04
   1.48000002      -1.84506061E-04
   1.51999998      -2.06519559E-04
   1.55999994      -2.31145750E-04
   1.60000002      -2.58603133E-04
   1.63999999      -2.89062271E-04
   1.67999995      -3.22633394E-04
   1.72000003      -3.59359081E-04
   1.75999999      -3.99212848E-04
   1.79999995      -4.42105578E-04
   1.84000003      -4.87899088E-04
   1.88000000      -5.36426611E-04
   1.91999996      -5.87519724E-04
   1.96000004      -6.41038467E-04
   2.00000000      -6.96903735E-04
   2.03999996      -7.55127810E-04
   2.07999992      -8.15841486E-04
   2.11999989      -8.79314321E-04
   2.16000009      -9.45967389E-04
   2.20000005      -1.01637573E-03
   2.24000001      -1.09126221E-03
   2.27999997      -1.17148180E-03
   2.31999993      -1.25799899E-03
   2.35999990      -1.35185861E-03
   2.40000010      -1.45415694E-03
   2.44000006      -1.56600983E-03
   2.48000002      -1.68852729E-03
   2.51999998      -1.82279106E-03
   2.55999994      -1.96984154E-03
   2.59999990      -2.13067047E-03
   2.64000010      -2.30622524E-03
   2.68000007      -2.49741692E-03
   2.72000003      -2.70513841E-03
   2.75999999      -2.93028262E-03
   2.79999995      -3.17376456E-03
   2.83999991      -3.43654118E-03
   2.88000011      -3.71962809E-03
   2.92000008      -4.02411306E-03
   2.96000004      -4.35115863E-03
   3.00000000      -4.70200693E-03
   3.03999996      -5.07797021E-03
   3.07999992      -5.48042636E-03
   3.11999989      -5.91081055E-03
   3.16000009      -6.37060823E-03
   3.20000005      -6.86135702E-03
   3.24000001      -7.38464715E-03
   3.27999997      -7.94213917E-03
   3.31999993      -8.53559002E-03
   3.35999990      -9.16688796E-03
   3.40000010      -9.83809587E-03
   3.44000006      -1.05515011E-02
   3.48000002      -1.13096638E-02
   3.51999998      -1.21154739E-02
   3.55999994      -1.29721900E-02
   3.59999990      -1.38834845E-02
   3.64000010      -1.48534561E-02
   3.68000007      -1.58866458E-02
   3.72000003      -1.69880297E-02
   3.75999999      -1.81629956E-02
   3.79999995      -1.94173045E-02
   3.83999991      -2.07570381E-02
   3.88000011      -2.21885499E-02
   3.92000008      -2.37183981E-02
   3.96000004      -2.53532808E-02
   4.00000000      -2.70999912E-02
   4.03999996      -2.89653745E-02
   4.07999992      -3.09562963E-02
   4.11999989      -3.30796242E-02
   4.15999985      -3.53422202E-02
   4.19999981      -3.77509780E-02
   4.23999977      -4.03128378E-02
   4.28000021      -4.30348516E-02
   4.32000017      -4.59242240E-02
   4.36000013      -4.89883907E-02
   4.40000010      -5.22351004E-02
   4.44000006      -5.56725003E-02
   4.48000002      -5.93092144E-02
   4.51999998      -6.31544441E-02
   4.55999994      -6.72180653E-02
   4.59999990      -7.15106577E-02
   4.63999987      -7.60436282E-02
   4.67999983      -8.08292776E-02
   4.71999979      -8.58808085E-02
   4.76000023      -9.12123919E-02
   4.80000019      -9.68391970E-02
   4.84000015     -0.102777362    
   4.88000011     -0.109044030    
   4.92000008     -0.115657285    
   4.96000004     -0.122636132    
   5.00000000     -0.130000383    
   5.03999996     -0.137770668    
   5.07999992     -0.145968273    
   5.11999989     -0.154615179    
   5.15999985     -0.163733959    
   5.19999981     -0.173347622    
   5.23999977     -0.183479711    
   5.28000021     -0.194154128    
   5.32000017     -0.205395222    
   5.36000013     -0.217227787    
   5.40000010     -0.229677096    
   5.44000006     -0.242768928    
   5.48000002     -0.256529659    
   5.51999998     -0.270986259    
   5.55999994     -0.286166608    
   5.59999990     -0.302099496    
   5.63999987     -0.318814814    
   5.67999983     -0.336343676    
   5.71999979     -0.354718596    
   5.76000023     -0.373973787    
   5.80000019     -0.394145042    
   5.84000015     -0.415270060    
   5.88000011     -0.437388480    
   5.92000008     -0.460541725    
   5.96000004     -0.484773219    
   6.00000000     -0.510128140    
   6.03999996     -0.536653221    
   6.07999992     -0.564397097    
   6.11999989     -0.593409538    
   6.15999985     -0.623741388    
   6.19999981     -0.655444264    
   6.23999977     -0.688570321    
   6.28000021     -0.723171830    
   6.32000017     -0.759301484    
   6.36000013     -0.797011852    
   6.40000010     -0.836355746    
   6.44000006     -0.877385855    
   6.48000002     -0.920155227    
   6.51999998     -0.964717448    
   6.55999994      -1.01112664    
   6.59999990      -1.05943823    
   6.63999987      -1.10970938    
   6.67999983      -1.16199899    
   6.71999979      -1.21636808    
   6.76000023      -1.27288032    
   6.80000019      -1.33160174    
   6.84000015      -1.39260149    
   6.88000011      -1.45595133    
   6.92000008      -1.52172554    
   6.96000004      -1.59000099    
   7.00000000      -1.66085684    
   7.03999996      -1.73437405    
   7.07999992      -1.81063497    
   7.11999989      -1.88972294    
   7.15999985      -1.97172225    
   7.19999981      -2.05671692    
   7.23999977      -2.14479184    
   7.28000021      -2.23603106    
   7.32000017      -2.33051825    
   7.36000013      -2.42833734    
   7.40000010      -2.52957058    
   7.44000006      -2.63430023    
   7.48000002      -2.74260807    
   7.51999998      -2.85457468    
   7.55999994      -2.97028089    
   7.59999990      -3.08980703    
   7.63999987      -3.21323442    
   7.67999983      -3.34064460    
   7.71999979      -3.47212005    
   7.76000023      -3.60774398    
   7.80000019      -3.74760032    
   7.84000015      -3.89177489    
   7.88000011      -4.04035521    
   7.92000008      -4.19342947    
   7.96000004      -4.35108900    
   8.00000000      -4.51342440    
   8.03999996      -4.68052912    
   8.07999992      -4.85249710    
   8.11999989      -5.02942085    
   8.15999985      -5.21139431    
   8.19999981      -5.39851141    
   8.23999977      -5.59086514    
   8.27999973      -5.78854561    
   8.31999969      -5.99164248    
   8.35999966      -6.20024157    
   8.39999962      -6.41442871    
   8.43999958      -6.63428593    
   8.47999954      -6.85989237    
   8.52000046      -7.09132528    
   8.56000042      -7.32865953    
   8.60000038      -7.57196808    
   8.64000034      -7.82132292    
   8.68000031      -8.07679367    
   8.72000027      -8.33844757    
   8.76000023      -8.60635185    
   8.80000019      -8.88057041    
   8.84000015      -9.16116810    
   8.88000011      -9.44820881    
   8.92000008      -9.74175453    
   8.96000004      -10.0418653    
   9.00000000      -10.3485994    
   9.03999996      -10.6620140    
   9.07999992      -10.9821644    
   9.11999989      -11.3091011    
   9.15999985      -11.6428757    
   9.19999981      -11.9835367    
   9.23999977      -12.3311319    
   9.27999973      -12.6857042    
   9.31999969      -13.0472956    
   9.35999966      -13.4159393    
   9.39999962      -13.7916708    
   9.43999958      -14.1745214    
   9.47999954      -14.5645199    
   9.52000046      -14.9616928    
   9.56000042      -15.3660583    
   9.60000038      -15.7776308    
   9.64000034      -16.1964245    
   9.68000031      -16.6224442    
   9.72000027      -17.0557003    
   9.76000023      -17.4961891    
   9.80000019      -17.9439125    
   9.84000015      -18.3988628    
   9.88000011      -18.8610325    
   9.92000008      -19.3304100    
   9.96000004      -19.8069820    
   10.0000000      -20.2907314    
   10.0400000      -20.7816410    
   10.0799999      -21.2796860    
   10.1199999      -21.7848454    
   10.1599998      -22.2970905    
   10.1999998      -22.8163948    
   10.2399998      -23.3427258    
   10.2799997      -23.8760471    
   10.3199997      -24.4163208    
   10.3599997      -24.9634991    
   10.3999996      -25.5175323    
   10.4399996      -26.0783691    
   10.4799995      -26.6459541    
   10.5200005      -27.2202301    
   10.5600004      -27.8011341    
   10.6000004      -28.3886070    
   10.6400003      -28.9825821    
   10.6800003      -29.5829887    
   10.7200003      -30.1897564    
   10.7600002      -30.8028088    
   10.8000002      -31.4220657    
   10.8400002      -32.0474472    
   10.8800001      -32.6788826    
   10.9200001      -33.3162804    
   10.9600000      -33.9595566    
   11.0000000      -34.6086273    
   11.0400000      -35.2634087    
   11.0799999      -35.9238052    
   11.1199999      -36.5897141    
   11.1599998      -37.2610397    
   11.1999998      -37.9376831    
   11.2399998      -38.6195488    
   11.2799997      -39.3065300    
   11.3199997      -39.9985161    
   11.3599997      -40.6953926    
   11.3999996      -41.3970451    
   11.4399996      -42.1033745    
   11.4799995      -42.8142548    
   11.5200005      -43.5295753    
   11.5600004      -44.2492180    
   11.6000004      -44.9730721    
   11.6400003      -45.7010117    
   11.6800003      -46.4329071    
   11.7200003      -47.1686363    
   11.7600002      -47.9080696    
   11.8000002      -48.6510849    
   11.8400002      -49.3975639    
   11.8800001      -50.1473808    
   11.9200001      -50.9004059    
   11.9600000      -51.6565170    
   12.0000000      -52.4155769    
   12.0400000      -53.1774597    
   12.0799999      -53.9420395    
   12.1199999      -54.7091751    
   12.1599998      -55.4787331    
   12.1999998      -56.2505798    
   12.2399998      -57.0245667    
   12.2799997      -57.8005562    
   12.3199997      -58.5784073    
   12.3599997      -59.3579788    
   12.3999996      -60.1391258    
   12.4399996      -60.9217072    
   12.4799995      -61.7055702    
   12.5200005      -62.4905586    
   12.5600004      -63.2765121    
   12.6000004      -64.0632706    
   12.6400003      -64.8506622    
   12.6800003      -65.6385269    
   12.7200003      -66.4267044    
   12.7600002      -67.2150345    
   12.8000002      -68.0033340    
   12.8400002      -68.7914352    
   12.8800001      -69.5791473    
   12.9200001      -70.3663177    
   12.9600000      -71.1527405    
   13.0000000      -71.9382629    
   13.0400000      -72.7226715    
   13.0799999      -73.5057907    
   13.1199999      -74.2874374    
   13.1599998      -75.0674057    
   13.1999998      -75.8455048    
   13.2399998      -76.6215363    
   13.2799997      -77.3952789    
   13.3199997      -78.1665268    
   13.3599997      -78.9350662    
   13.3999996      -79.7006760    
   13.4399996      -80.4631424    
   13.4799995      -81.2222443    
   13.5200005      -81.9777069    
   13.5600004      -82.7292862    
   13.6000004      -83.4767075    
   13.6400003      -84.2196732    
   13.6800003      -84.9579239    
   13.7200003      -85.6911850    
   13.7600002      -86.4191666    
   13.8000002      -87.1415863    
   13.8400002      -87.8581238    
   13.8800001      -88.5684662    
   13.9200001      -89.2722778    
   13.9600000      -89.9692154    
   14.0000000      -90.6589661    
   14.0400000      -91.3411636    
   14.0799999      -92.0154724    
   14.1199999      -92.6815414    
   14.1599998      -93.3389969    
   14.1999998      -93.9874420    
   14.2399998      -94.6264877    
   14.2799997      -95.2557449    
   14.3199997      -95.8748016    
   14.3599997      -96.4832535    
   14.3999996      -97.0806580    
   14.4399996      -97.6665802    
   14.4799995      -98.2405548    
   14.5200005      -98.8021164    
   14.5600004      -99.3508072    
   14.6000004      -99.8861237    
   14.6400003      -100.407555    
   14.6800003      -100.914589    
   14.7200003      -101.406693    
   14.7600002      -101.883301    
   14.8000002      -102.343872    
   14.8400002      -102.787857    
   14.8800001      -103.214661    
   14.9200001      -103.623726    
   14.9600000      -104.014420    
   15.0000000      -104.386131    
   15.0400000      -104.738235    
   15.0799999      -105.070099    
   15.1199999      -105.381111    
   15.1599998      -105.670631    
   15.1999998      -105.938004    
   15.2399998      -106.182587    
   15.2799997      -106.403687    
   15.3199997      -106.600624    
   15.3599997      -106.772690    
   15.3999996      -106.919174    
   15.4399996      -107.039375    
   15.4799995      -107.132584    
   15.5200005      -107.198090    
   15.5600004      -107.235168    
   15.6000004      -107.243095    
   15.6400003      -107.221115    
   15.6800003      -107.168457    
   15.7200003      -107.084366    
   15.7600002      -106.968056    
   15.8000002      -106.818748    
   15.8400002      -106.635674    
   15.8800001      -106.418083    
   15.9200001      -106.165230    
   15.9600000      -105.876350    
   16.0000000      -105.550674    
   16.0400009      -105.187454    
   16.0799999      -104.785904    
   16.1200008      -104.345268    
   16.1599998      -103.864799    
   16.2000008      -103.343758    
   16.2399998      -102.781403    
   16.2800007      -102.177025    
   16.3199997      -101.529922    
   16.3600006      -100.839394    
   16.3999996      -100.104759    
   16.4400005      -99.3253403    
   16.4799995      -98.5004807    
   16.5200005      -97.6295090    
   16.5599995      -96.7117996    
   16.6000004      -95.7467422    
   16.6399994      -94.7337646    
   16.6800003      -93.6722946    
   16.7199993      -92.5618057    
   16.7600002      -91.4017715    
   16.7999992      -90.1916809    
   16.8400002      -88.9310760    
   16.8799992      -87.6195145    
   16.9200001      -86.2565842    
   16.9599991      -84.8419113    
   17.0000000      -83.3751678    
   17.0400009      -81.8560791    
   17.0799999      -80.2843475    
   17.1200008      -78.6597824    
   17.1599998      -76.9821625    
   17.2000008      -75.2513351    
   17.2399998      -73.4671860    
   17.2800007      -71.6296463    
   17.3199997      -69.7387085    
   17.3600006      -67.7944031    
   17.3999996      -65.7968140    
   17.4400005      -63.7460785    
   17.4799995      -61.6423683    
   17.5200005      -59.4859009    
   17.5599995      -57.2769661    
   17.6000004      -55.0159035    
   17.6399994      -52.7030869    
   17.6800003      -50.3389626    
   17.7199993      -47.9240379    
   17.7600002      -45.4588585    
   17.7999992      -42.9440613    
   17.8400002      -40.3803101    
   17.8799992      -37.7683525    
   17.9200001      -35.1089897    
   17.9599991      -32.4031067    
   18.0000000      -29.6516457    
   18.0400009      -26.8555870    
   18.0799999      -24.0159512    
   18.1200008      -21.1338234    
   18.1599998      -18.2103577    
   18.2000008      -15.2468033    
   18.2399998      -12.2444658    
   18.2800007      -9.20470905    
   18.3199997      -6.12893343    
   18.3600006      -3.01860118    
   18.3999996      0.124750920    
   18.4400005       3.29951262    
   18.4799995       6.50402021    
   18.5200005       9.73657322    
   18.5599995       12.9954262    
   18.6000004       16.2787857    
   18.6399994       19.5847950    
   18.6800003       22.9115257    
   18.7199993       26.2569962    
   18.7600002       29.6191978    
   18.7999992       32.9960785    
   18.8400002       36.3855324    
   18.8799992       39.7854156    
   18.9200001       43.1935387    
   18.9599991       46.6076736    
   19.0000000       50.0255508    
   19.0400009       53.4448738    
   19.0799999       56.8633041    
   19.1200008       60.2784843    
   19.1599998       63.6880302    
   19.2000008       67.0895462    
   19.2399998       70.4806061    
   19.2800007       73.8587952    
   19.3199997       77.2216492    
   19.3600006       80.5667191    
   19.3999996       83.8914948    
   19.4400005       87.1934967    
   19.4799995       90.4702301    
   19.5200005       93.7192154    
   19.5599995       96.9379654    
   19.6000004       100.124023    
   19.6399994       103.274940    
   19.6800003       106.388268    
   19.7199993       109.461609    
   19.7600002       112.492569    
   19.7999992       115.478775    
   19.8400002       118.417900    
   19.8799992       121.307625    
   19.9200001       124.145706    
   19.9599991       126.929893    
   20.0000000       129.657974    
   20.0400009       132.327820    
   20.0799999       134.937332    
   20.1200008       137.484451    
   20.1599998       139.967255    
   20.2000008       142.383774    
   20.2399998       144.732178    
   20.2800007       147.010666    
   20.3199997       149.217499    
   20.3600006       151.351074    
   20.3999996       153.409775    
   20.4400005       155.392120    
   20.4799995       157.296600    
   20.5200005       159.121887    
   20.5599995       160.866653    
   20.6000004       162.529739    
   20.6399994       164.110031    
   20.6800003       165.606506    
   20.7199993       167.018234    
   20.7600002       168.344360    
   20.7999992       169.584137    
   20.8400002       170.736923    
   20.8799992       171.802139    
   20.9200001       172.779297    
   20.9599991       173.668045    
   21.0000000       174.468063    
   21.0400009       175.179199    
   21.0799999       175.801315    
   21.1200008       176.334412    
   21.1599998       176.778549    
   21.2000008       177.133926    
   21.2399998       177.400879    
   21.2800007       177.579788    
   21.3199997       177.671112    
   21.3600006       177.675400    
   21.3999996       177.593353    
   21.4400005       177.425690    
   21.4799995       177.173248    
   21.5200005       176.836945    
   21.5599995       176.417786    
   21.6000004       175.916840    
   21.6399994       175.335220    
   21.6800003       174.674179    
   21.7199993       173.934998    
   21.7600002       173.119049    
   21.7999992       172.227783    
   21.8400002       171.262726    
   21.8799992       170.225449    
   21.9200001       169.117615    
   21.9599991       167.940872    
   22.0000000       166.696976    
   22.0400009       165.387680    
   22.0799999       164.014832    
   22.1200008       162.580353    
   22.1599998       161.086212    
   22.2000008       159.534454    
   22.2399998       157.927078    
   22.2800007       156.266159    
   22.3199997       154.553772    
   22.3600006       152.792007    
   22.3999996       150.983032    
   22.4400005       149.129013    
   22.4799995       147.232162    
   22.5200005       145.294724    
   22.5599995       143.318893    
   22.6000004       141.306839    
   22.6399994       139.260788    
   22.6800003       137.182877    
   22.7199993       135.075394    
   22.7600002       132.940506    
   22.7999992       130.780457    
   22.8400002       128.597412    
   22.8799992       126.393547    
   22.9200001       124.171013    
   22.9599991       121.931908    
   23.0000000       119.678307    
   23.0400009       117.412247    
   23.0799999       115.135742    
   23.1200008       112.850777    
   23.1599998       110.559364    
   23.2000008       108.263466    
   23.2399998       105.965027    
   23.2800007       103.665939    
   23.3199997       101.368057    
   23.3600006       99.0731506    
   23.3999996       96.7829514    
   23.4400005       94.4991760    
   23.4799995       92.2234726    
   23.5200005       89.9574966    
   23.5599995       87.7028275    
   23.6000004       85.4609985    
   23.6399994       83.2334671    
   23.6800003       81.0216293    
   23.7199993       78.8268356    
   23.7600002       76.6503830    
   23.7999992       74.4934921    
   23.8400002       72.3573685    
   23.8799992       70.2431030    
   23.9200001       68.1517639    
   23.9599991       66.0843887    
   24.0000000       64.0419006    
   24.0400009       62.0251808    
   24.0799999       60.0350647    
   24.1200008       58.0723190    
   24.1599998       56.1376762    
   24.2000008       54.2318230    
   24.2399998       52.3553886    