  -10.0000000       0.00000000    
  -9.96000004       0.00000000    
  -9.92000008       0.00000000    
  -9.88000011       0.00000000    
  -9.84000015       0.00000000    
  -9.80000019       0.00000000    
  -9.76000023       0.00000000    
  -9.72000027      -2.58345127E-30
  -9.68000031      -3.28965416E-29
  -9.64000034      -2.07000130E-28
  -9.60000038      -7.98104454E-28
  -9.56000042      -1.64233560E-27
  -9.52000046       2.13633086E-27
  -9.47999954       3.79565756E-26
  -9.43999958       2.13283657E-25
  -9.39999962       8.71319648E-25
  -9.35999966       2.95772076E-24
  -9.31999969       8.78474084E-24
  -9.27999973       2.34471028E-23
  -9.23999977       5.71402309E-23
  -9.19999981       1.28431503E-22
  -9.15999985       2.67951765E-22
  -9.11999989       5.20792490E-22
  -9.07999992       9.43959492E-22
  -9.03999996       1.59263105E-21
  -9.00000000       2.48625168E-21
  -8.96000004       3.54395355E-21
  -8.92000008       4.48065199E-21
  -8.88000011       4.66344638E-21
  -8.84000015       2.94604737E-21
  -8.80000019      -2.47060088E-21
  -8.76000023      -1.40606584E-20
  -8.72000027      -3.47380864E-20
  -8.68000031      -6.71787561E-20
  -8.64000034      -1.12497907E-19
  -8.60000038      -1.68121190E-19
  -8.56000042      -2.24821099E-19
  -8.52000046      -2.63150348E-19
  -8.47999954      -2.49907677E-19
  -8.43999958      -1.35807133E-19
  -8.39999962       1.43875039E-19
  -8.35999966       6.63353770E-19
  -8.31999969       1.49247092E-18
  -8.27999973       2.67250724E-18
  -8.23999977       4.18025856E-18
  -8.19999981       5.88100435E-18
  -8.15999985       7.47421625E-18
  -8.11999989       8.44019859E-18
  -8.07999992       8.00094501E-18
  -8.03999996       5.11362021E-18
  -8.00000000      -1.48096980E-18
  -7.96000004      -1.31311572E-17
  -7.92000008      -3.10476883E-17
  -7.88000011      -5.59655050E-17
  -7.84000015      -8.76980790E-17
  -7.80000019      -1.24611398E-16
  -7.76000023      -1.63074277E-16
  -7.71999979      -1.96974508E-16
  -7.67999983      -2.17421989E-16
  -7.63999987      -2.12784232E-16
  -7.59999990      -1.69208344E-16
  -7.55999994      -7.17696178E-17
  -7.51999998       9.36573594E-17
  -7.48000002       3.37788004E-16
  -7.44000006       6.64672630E-16
  -7.40000010       1.06803411E-15
  -7.36000013       1.52759173E-15
  -7.32000017       2.00592013E-15
  -7.28000021       2.44651131E-15
  -7.23999977       2.77378218E-15
  -7.19999981       2.89573798E-15
  -7.15999985       2.70987058E-15
  -7.11999989       2.11261473E-15
  -7.07999992       1.01227446E-15
  -7.03999996      -6.55143245E-16
  -7.00000000      -2.90834882E-15
  -6.96000004      -5.70316050E-15
  -6.92000008      -8.91710971E-15
  -6.88000011      -1.23388416E-14
  -6.84000015      -1.56649934E-14
  -6.80000019      -1.85070414E-14
  -6.76000023      -2.04099467E-14
  -6.71999979      -2.08835584E-14
  -6.67999983      -1.94463128E-14
  -6.63999987      -1.56792829E-14
  -6.59999990      -9.28695648E-15
  -6.55999994      -1.59550938E-16
  -6.51999998       1.15695824E-14
  -6.48000002       2.54786494E-14
  -6.44000006       4.08314638E-14
  -6.40000010       5.65772438E-14
  -6.36000013       7.13811538E-14
  -6.32000017       8.36878649E-14
  -6.28000021       9.18176668E-14
  -6.23999977       9.40912387E-14
  -6.19999981       8.89757831E-14
  -6.15999985       7.52426211E-14
  -6.11999989       5.21238936E-14
  -6.07999992       1.94553490E-14
  -6.03999996      -2.22077571E-14
  -6.00000000      -7.15129521E-14
  -5.96000004      -1.26279792E-13
  -5.92000008      -1.83521370E-13
  -5.88000011      -2.39519721E-13
  -5.84000015      -2.89953608E-13
  -5.80000019      -3.30073940E-13
  -5.76000023      -3.54921713E-13
  -5.71999979      -3.59581885E-13
  -5.67999983      -3.39468959E-13
  -5.63999987      -2.90640748E-13
  -5.59999990      -2.10138561E-13
  -5.55999994      -9.63531216E-14
  -5.51999998       5.05869760E-14
  -5.48000002       2.28412910E-13
  -5.44000006       4.32314585E-13
  -5.40000010       6.54571178E-13
  -5.36000013       8.84255993E-13
  -5.32000017       1.10707569E-12
  -5.28000021       1.30541747E-12
  -5.23999977       1.45868712E-12
  -5.19999981       1.54402001E-12
  -5.15999985       1.53743619E-12
  -5.11999989       1.41548427E-12
  -5.07999992       1.15737238E-12
  -5.03999996       7.47529209E-13
  -5.00000000       1.78464028E-13
  -4.96000004      -5.46281553E-13
  -4.92000008      -1.40937370E-12
  -4.88000011      -2.37746606E-12
  -4.84000015      -3.39990276E-12
  -4.80000019      -4.40873553E-12
  -4.76000023      -5.32040731E-12
  -4.71999979      -6.03934958E-12
  -4.67999983      -6.46361090E-12
  -4.63999987      -6.49243766E-12
  -4.59999990      -6.03549112E-12
  -4.55999994      -5.02316071E-12
  -4.51999998      -3.41717561E-12
  -4.48000002      -1.22054298E-12
  -4.44000006       1.51431233E-12
  -4.40000010       4.68034595E-12
  -4.36000013       8.11470943E-12
  -4.32000017       1.16024300E-11
  -4.28000021       1.48854904E-11
  -4.23999977       1.76773665E-11
  -4.19999981       1.96825629E-11
  -4.15999985       2.06201063E-11
  -4.11999989       2.02494063E-11
  -4.07999992       1.83964250E-11
  -4.03999996       1.49777361E-11
  -4.00000000       1.00199727E-11
  -3.96000004       3.67222051E-12
  -3.92000008      -3.79067047E-12
  -3.88000011      -1.19753140E-11
  -3.83999991      -2.03880940E-11
  -3.79999995      -2.84641477E-11
  -3.75999999      -3.56054977E-11
  -3.72000003      -4.12257832E-11
  -3.68000007      -4.47981513E-11
  -3.64000010      -4.59021710E-11
  -3.59999990      -4.42654385E-11
  -3.55999994      -3.97955661E-11
  -3.51999998      -3.25989027E-11
  -3.48000002      -2.29832854E-11
  -3.44000006      -1.14434781E-11
  -3.40000010       1.37041572E-12
  -3.35999990       1.46996113E-11
  -3.31999993       2.77347641E-11
  -3.27999997       3.96805436E-11
  -3.24000001       4.98207725E-11
  -3.20000005       5.75777585E-11
  -3.16000009       6.25596797E-11
  -3.11999989       6.45908674E-11
  -3.07999992       6.37212019E-11
  -3.03999996       6.02129249E-11
  -3.00000000       5.45054869E-11
  -2.96000004       4.71613790E-11
  -2.92000008       3.87981557E-11
  -2.88000011       3.00137241E-11
  -2.83999991       2.13129566E-11
  -2.79999995       1.30442592E-11
  -2.75999999       5.35399936E-12
  -2.72000003      -1.83470838E-12
  -2.68000007      -8.81471545E-12
  -2.64000010      -1.60575893E-11
  -2.59999990      -2.41484749E-11
  -2.55999994      -3.36981172E-11
  -2.51999998      -4.52401970E-11
  -2.48000002      -5.91243512E-11
  -2.44000006      -7.54165688E-11
  -2.40000010      -9.38188971E-11
  -2.35999990      -1.13619281E-10
  -2.31999993      -1.33680317E-10
  -2.27999997      -1.52472118E-10
  -2.24000001      -1.68150924E-10
  -2.20000005      -1.78680168E-10
  -2.16000009      -1.81986773E-10
  -2.11999989      -1.76141088E-10
  -2.07999992      -1.59546279E-10
  -2.03999996      -1.31120587E-10
  -2.00000000      -9.04560177E-11
  -1.96000004      -3.79377710E-11
  -1.91999996       2.51885943E-11
  -1.88000000       9.68111077E-11
  -1.84000003       1.74010764E-10
  -1.79999995       2.53184945E-10
  -1.75999999       3.30228234E-10
  -1.72000003       4.00758954E-10
  -1.67999995       4.60375515E-10
  -1.63999999       5.04924380E-10
  -1.60000002       5.30760158E-10
  -1.55999994       5.34978284E-10
  -1.51999998       5.15604892E-10
  -1.48000002       4.71729100E-10
  -1.44000006       4.03571648E-10
  -1.39999998       3.12485426E-10
  -1.36000001       2.00892039E-10
  -1.32000005       7.21617488E-11
  -1.27999997      -6.95504834E-11
  -1.24000001      -2.19497878E-10
  -1.20000005      -3.72547410E-10
  -1.15999997      -5.23381505E-10
  -1.12000000      -6.66682598E-10
  -1.08000004      -7.97289568E-10
  -1.03999996      -9.10320375E-10
  -1.00000000      -1.00126107E-09
 -0.959999979      -1.06602327E-09
 -0.920000017      -1.10098131E-09
 -0.879999995      -1.10299891E-09
 -0.839999974      -1.06945985E-09
 -0.800000012      -9.98316319E-10
 -0.759999990      -8.88164819E-10
 -0.720000029      -7.38357320E-10
 -0.680000007      -5.49150225E-10
 -0.639999986      -3.21884575E-10
 -0.600000024      -5.91868429E-11
 -0.560000002       2.34827907E-10
 -0.519999981       5.54374324E-10
 -0.479999989       8.91862917E-10
 -0.439999998       1.23784216E-09
 -0.400000006       1.58104252E-09
 -0.360000014       1.90854532E-09
 -0.319999993       2.20608820E-09
 -0.280000001       2.45851517E-09
 -0.239999995       2.65036237E-09
 -0.200000003       2.76656342E-09
 -0.159999996       2.79324208E-09
 -0.119999997       2.71855494E-09
  -7.99999982E-02   2.53353294E-09
  -3.99999991E-02   2.23286944E-09
   0.00000000       1.81559989E-09
   3.99999991E-02   1.28562117E-09
   7.99999982E-02   6.52005283E-10
  0.119999997      -7.09282286E-11
  0.159999996      -8.63802030E-10
  0.200000003      -1.70263892E-09
  0.239999995      -2.55957699E-09
  0.280000001      -3.40381701E-09
  0.319999993      -4.20275681E-09
  0.360000014      -4.92326357E-09
  0.400000006      -5.53301982E-09
  0.439999998      -6.00187322E-09
  0.479999989      -6.30313313E-09
  0.519999981      -6.41473896E-09
  0.560000002      -6.32025765E-09
  0.600000024      -6.00966565E-09
  0.639999986      -5.47987966E-09
  0.680000007      -4.73503370E-09
  0.720000029      -3.78649867E-09
  0.759999990      -2.65265476E-09
  0.800000012      -1.35845224E-09
  0.839999974       6.52147364E-11
  0.879999995       1.58227642E-09
  0.920000017       3.15236326E-09
  0.959999979       4.73175099E-09
   1.00000000       6.27434549E-09
   1.03999996       7.73268471E-09
   1.08000004       9.05894648E-09
   1.12000000       1.02059587E-08
   1.15999997       1.11282166E-08
   1.20000005       1.17829222E-08
   1.24000001       1.21310508E-08
   1.27999997       1.21384778E-08
   1.32000005       1.17771464E-08
   1.36000001       1.10263025E-08
   1.39999998       9.87376225E-09
   1.44000006       8.31719760E-09
   1.48000002       6.36537179E-09
   1.51999998       4.03927336E-09
   1.55999994       1.37306522E-09
   1.60000002      -1.58526414E-09
   1.63999999      -4.77362994E-09
   1.67999995      -8.11607581E-09
   1.72000003      -1.15235883E-08
   1.75999999      -1.48955666E-08
   1.79999995      -1.81220052E-08
   1.84000003      -2.10863984E-08
   1.88000000      -2.36693332E-08
   1.91999996      -2.57526906E-08
   1.96000004      -2.72243241E-08
   2.00000000      -2.79830488E-08
   2.03999996      -2.79437149E-08
   2.07999992      -2.70421125E-08
   2.11999989      -2.52394425E-08
   2.16000009      -2.25261019E-08
   2.20000005      -1.89244904E-08
   2.24000001      -1.44906558E-08
   2.27999997      -9.31456778E-09
   2.31999993      -3.51894003E-09
   2.35999990       2.74344814E-09
   2.40000010       9.29387767E-09
   2.44000006       1.59331233E-08
   2.48000002       2.24480114E-08
   2.51999998       2.86187838E-08
   2.55999994       3.42269715E-08
   2.59999990       3.90634227E-08
   2.64000010       4.29360725E-08
   2.68000007       4.56771367E-08
   2.72000003       4.71493919E-08
   2.75999999       4.72512625E-08
   2.79999995       4.59205367E-08
   2.83999991       4.31365699E-08
   2.88000011       3.89209447E-08
   2.92000008       3.33366437E-08
   2.96000004       2.64858127E-08
   3.00000000       1.85063431E-08
   3.03999996       9.56745083E-09
   3.07999992      -1.35506481E-10
   3.11999989      -1.03866880E-08
   3.16000009      -2.09557154E-08
   3.20000005      -3.16036619E-08
   3.24000001      -4.20889457E-08
   3.27999997      -5.21729504E-08
   3.31999993      -6.16253644E-08
   3.35999990      -7.02290919E-08
   3.40000010      -7.77848186E-08
   3.44000006      -8.41152001E-08
   3.48000002      -8.90686209E-08
   3.51999998      -9.25226757E-08
   3.55999994      -9.43872536E-08
   3.59999990      -9.46071594E-08
   3.64000010      -9.31643882E-08
   3.68000007      -9.00797801E-08
   3.72000003      -8.54140367E-08
   3.75999999      -7.92678918E-08
   3.79999995      -7.17814217E-08
   3.83999991      -6.31322834E-08
   3.88000011      -5.35327409E-08
   3.92000008      -4.32255192E-08
   3.96000004      -3.24784715E-08
   4.00000000      -2.15780034E-08
   4.03999996      -1.08215339E-08
   4.07999992      -5.09117082E-10
   4.11999989       9.06550923E-09
   4.15999985       1.76240729E-08
   4.19999981       2.49127705E-08
   4.23999977       3.07107157E-08
   4.28000021       3.48374449E-08
   4.32000017       3.71590936E-08
   4.36000013       3.75929190E-08
   4.40000010       3.61099133E-08
   4.44000006       3.27353291E-08
   4.48000002       2.75470846E-08
   4.51999998       2.06720809E-08
   4.55999994       1.22805917E-08
   4.59999990       2.57900523E-09
   4.63999987      -8.19867108E-09
   4.67999983      -1.98001739E-08
   4.71999979      -3.19646780E-08
   4.76000023      -4.44323014E-08
   4.80000019      -5.69529988E-08
   4.84000015      -6.92944511E-08
   4.88000011      -8.12484018E-08
   4.92000008      -9.26354886E-08
   4.96000004      -1.03308253E-07
   5.00000000      -1.13152460E-07
   5.03999996      -1.22086774E-07
   5.07999992      -1.30061153E-07
   5.11999989      -1.37054357E-07
   5.15999985      -1.43070679E-07
   5.19999981      -1.48136692E-07
   5.23999977      -1.52298298E-07
   5.28000021      -1.55618167E-07
   5.32000017      -1.58174146E-07
   5.36000013      -1.60058605E-07
   5.40000010      -1.61378580E-07
   5.44000006      -1.62256768E-07
   5.48000002      -1.62832947E-07
   5.51999998      -1.63265398E-07
   5.55999994      -1.63731954E-07
   5.59999990      -1.64430219E-07
   5.63999987      -1.65576367E-07
   5.67999983      -1.67402391E-07
   5.71999979      -1.70151424E-07
   5.76000023      -1.74071218E-07
   5.80000019      -1.79405717E-07
   5.84000015      -1.86385378E-07
   5.88000011      -1.95216472E-07
   5.92000008      -2.06070141E-07
   5.96000004      -2.19072135E-07
   6.00000000      -2.34293537E-07
   6.03999996      -2.51743927E-07
   6.07999992      -2.71366844E-07
   6.11999989      -2.93038823E-07
   6.15999985      -3.16571516E-07
   6.19999981      -3.41717140E-07
   6.23999977      -3.68177353E-07
   6.28000021      -3.95614194E-07
   6.32000017      -4.23663067E-07
   6.36000013      -4.51945937E-07
   6.40000010      -4.80084623E-07
   6.44000006      -5.07712286E-07
   6.48000002      -5.34482410E-07
   6.51999998      -5.60074227E-07
   6.55999994      -5.84194424E-07
   6.59999990      -6.06574190E-07
   6.63999987      -6.26961821E-07
   6.67999983      -6.45111641E-07
   6.71999979      -6.60769274E-07
   6.76000023      -6.73654938E-07
   6.80000019      -6.83445023E-07
   6.84000015      -6.89754586E-07
   6.88000011      -6.92120580E-07
   6.92000008      -6.89988553E-07
   6.96000004      -6.82702762E-07
   7.00000000      -6.69501787E-07
   7.03999996      -6.49519109E-07
   7.07999992      -6.21789468E-07
   7.11999989      -5.85261148E-07
   7.15999985      -5.38813595E-07
   7.19999981      -4.81279073E-07
   7.23999977      -4.11468790E-07
   7.28000021      -3.28200855E-07
   7.32000017      -2.30329803E-07
   7.36000013      -1.16776334E-07
   7.40000010       1.34442075E-08
   7.44000006       1.61195473E-07
   7.48000002       3.27196943E-07
   7.51999998       5.12004419E-07
   7.55999994       7.15994986E-07
   7.59999990       9.39356994E-07
   7.63999987       1.18208436E-06
   7.67999983       1.44397654E-06
   7.71999979       1.72464286E-06
   7.76000023       2.02351134E-06
   7.80000019       2.33984156E-06
   7.84000015       2.67274208E-06
   7.88000011       3.02119065E-06
   7.92000008       3.38405584E-06
   7.96000004       3.76012349E-06
   8.00000000       4.14812166E-06
   8.03999996       4.54675001E-06
   8.07999992       4.95470340E-06
   8.11999989       5.37070446E-06
   8.15999985       5.79352218E-06
   8.19999981       6.22200014E-06
   8.23999977       6.65507559E-06
   8.27999973       7.09179540E-06
   8.31999969       7.53133008E-06
   8.35999966       7.97298435E-06
   8.39999962       8.41619931E-06
   8.43999958       8.86055568E-06
   8.47999954       9.30576334E-06
   8.52000046       9.75165858E-06
   8.56000042       1.01981868E-05
   8.60000038       1.06453872E-05
   8.64000034       1.10933734E-05
   8.68000031       1.15423090E-05
   8.72000027       1.19923789E-05
   8.76000023       1.24437674E-05
   8.80000019       1.28966267E-05
   8.84000015       1.33510475E-05
   8.88000011       1.38070300E-05
   8.92000008       1.42644421E-05
   8.96000004       1.47230003E-05
   9.00000000       1.51822314E-05
   9.03999996       1.56414280E-05
   9.07999992       1.60996351E-05
   9.11999989       1.65555903E-05
   9.15999985       1.70077001E-05
   9.19999981       1.74540019E-05
   9.23999977       1.78921109E-05
   9.27999973       1.83191896E-05
   9.31999969       1.87318856E-05
   9.35999966       1.91262807E-05
   9.39999962       1.94978456E-05
   9.43999958       1.98413491E-05
   9.47999954       2.01508155E-05
   9.52000046       2.04194184E-05
   9.56000042       2.06393834E-05
   9.60000038       2.08019010E-05
   9.64000034       2.08969868E-05
   9.68000031       2.09133705E-05
   9.72000027       2.08383317E-05
   9.76000023       2.06575423E-05
   9.80000019       2.03549080E-05
   9.84000015       1.99123770E-05
   9.88000011       1.93097403E-05
   9.92000008       1.85244262E-05
   9.96000004       1.75313326E-05
   10.0000000       1.63025597E-05
   10.0400000       1.48072377E-05
   10.0799999       1.30112812E-05
   10.1199999       1.08772037E-05
   10.1599998       8.36392155E-06
   10.1999998       5.42648377E-06
   10.2399998       2.01591024E-06
   10.2799997      -1.92103448E-06
   10.3199997      -6.44205920E-06
   10.3599997      -1.16096071E-05
   10.3999996      -1.74910128E-05
   10.4399996      -2.41589296E-05
   10.4799995      -3.16914120E-05
   10.5200005      -4.01724174E-05
   10.5600004      -4.96920256E-05
   10.6000004      -6.03469598E-05
   10.6400003      -7.22407931E-05
   10.6800003      -8.54847094E-05
   10.7200003      -1.00197831E-04
   10.7600002      -1.16507763E-04
   10.8000002      -1.34551345E-04
   10.8400002      -1.54475172E-04
   10.8800001      -1.76436224E-04
   10.9200001      -2.00602648E-04
   10.9600000      -2.27154480E-04
   11.0000000      -2.56284577E-04
   11.0400000      -2.88199080E-04
   11.0799999      -3.23118351E-04
   11.1199999      -3.61277867E-04
   11.1599998      -4.02928970E-04
   11.1999998      -4.48339793E-04
   11.2399998      -4.97796165E-04
   11.2799997      -5.51602279E-04
   11.3199997      -6.10081945E-04
   11.3599997      -6.73578994E-04
   11.3999996      -7.42458738E-04
   11.4399996      -8.17109016E-04
   11.4799995      -8.97940714E-04
   11.5200005      -9.85388993E-04
   11.5600004      -1.07991474E-03
   11.6000004      -1.18200562E-03
   11.6400003      -1.29217678E-03
   11.6800003      -1.41097244E-03
   11.7200003      -1.53896795E-03
   11.7600002      -1.67676993E-03
   11.8000002      -1.82501832E-03
   11.8400002      -1.98438857E-03
   11.8800001      -2.15559197E-03
   11.9200001      -2.33937823E-03
   11.9600000      -2.53653736E-03
   12.0000000      -2.74790125E-03
   12.0400000      -2.97434535E-03
   12.0799999      -3.21679073E-03
   12.1199999      -3.47620714E-03
   12.1599998      -3.75361298E-03
   12.1999998      -4.05007973E-03
   12.2399998      -4.36673313E-03
   12.2799997      -4.70475527E-03
   12.3199997      -5.06538805E-03
   12.3599997      -5.44993300E-03
   12.3999996      -5.85975731E-03
   12.4399996      -6.29629381E-03
   12.4799995      -6.76104194E-03
   12.5200005      -7.25557515E-03
   12.5600004      -7.78153725E-03
   12.6000004      -8.34065024E-03
   12.6400003      -8.93471204E-03
   12.6800003      -9.56560392E-03
   12.7200003      -1.02352900E-02
   12.7600002      -1.09458193E-02
   12.8000002      -1.16993301E-02
   12.8400002      -1.24980491E-02
   12.8800001      -1.33443000E-02
   12.9200001      -1.42405014E-02
   12.9600000      -1.51891708E-02
   13.0000000      -1.61929280E-02
   13.0400000      -1.72544941E-02
   13.0799999      -1.83766987E-02
   13.1199999      -1.95624828E-02
   13.1599998      -2.08148956E-02
   13.1999998      -2.21371036E-02
   13.2399998      -2.35323887E-02
   13.2799997      -2.50041578E-02
   13.3199997      -2.65559331E-02
   13.3599997      -2.81913672E-02
   13.3999996      -2.99142357E-02
   13.4399996      -3.17284465E-02
   13.4799995      -3.36380415E-02
   13.5200005      -3.56471911E-02
   13.5600004      -3.77602056E-02
   13.6000004      -3.99815291E-02
   13.6400003      -4.23157550E-02
   13.6800003      -4.47676182E-02
   13.7200003      -4.73419875E-02
   13.7600002      -5.00438847E-02
   13.8000002      -5.28784804E-02
   13.8400002      -5.58510832E-02
   13.8800001      -5.89671694E-02
   13.9200001      -6.22323528E-02
   13.9600000      -6.56524003E-02
   14.0000000      -6.92332387E-02
   14.0400000      -7.29809403E-02
   14.0799999      -7.69017339E-02
   14.1199999      -8.10020119E-02
   14.1599998      -8.52883086E-02
   14.1999998      -8.97673070E-02
   14.2399998      -9.44458768E-02
   14.2799997      -9.93310139E-02
   14.3199997     -0.104429863    
   14.3599997     -0.109749757    
   14.3999996     -0.115298137    
   14.4399996     -0.121082634    
   14.4799995     -0.127111003    
   14.5200005     -0.133391157    
   14.5600004     -0.139931157    
   14.6000004     -0.146739185    
   14.6400003     -0.153823569    
   14.6800003     -0.161192834    
   14.7200003     -0.168855563    
   14.7600002     -0.176820487    
   14.8000002     -0.185096473    
   14.8400002     -0.193692520    
   14.8800001     -0.202617764    
   14.9200001     -0.211881399    
   14.9600000     -0.221492767    
   15.0000000     -0.231461301    
   15.0400000     -0.241796538    
   15.0799999     -0.252508104    
   15.1199999     -0.263605714    
   15.1599998     -0.275099128    
   15.1999998     -0.286998272    
   15.2399998     -0.299313039    
   15.2799997     -0.312053442    
   15.3199997     -0.325229496    
   15.3599997     -0.338851303    
   15.3999996     -0.352928966    
   15.4399996     -0.367472649    
   15.4799995     -0.382492483    
   15.5200005     -0.397998661    
   15.5600004     -0.414001375    
   15.6000004     -0.430510759    
   15.6400003     -0.447536945    
   15.6800003     -0.465090066    
   15.7200003     -0.483180165    
   15.7600002     -0.501817286    
   15.8000002     -0.521011353    
   15.8400002     -0.540772259    
   15.8800001     -0.561109722    
   15.9200001     -0.582033515    
   15.9600000     -0.603553295    
   16.0000000     -0.625678480    
   16.0400009     -0.648418367    
   16.0799999     -0.671782196    
   16.1200008     -0.695778966    
   16.1599998     -0.720417619    
   16.2000008     -0.745706916    
   16.2399998     -0.771655321    
   16.2800007     -0.798271120    
   16.3199997     -0.825562418    
   16.3600006     -0.853537202    
   16.3999996     -0.882203162    
   16.4400005     -0.911567628    
   16.4799995     -0.941637754    
   16.5200005     -0.972420454    
   16.5599995      -1.00392246    
   16.6000004      -1.03614998    
   16.6399994      -1.06910908    
   16.6800003      -1.10280561    
   16.7199993      -1.13724494    
   16.7600002      -1.17243207    
   16.7999992      -1.20837200    
   16.8400002      -1.24506903    
   16.8799992      -1.28252733    
   16.9200001      -1.32075036    
   16.9599991      -1.35974169    
   17.0000000      -1.39950430    
   17.0400009      -1.44004071    
   17.0799999      -1.48135328    
   17.1200008      -1.52344382    
   17.1599998      -1.56631386    
   17.2000008      -1.60996425    
   17.2399998      -1.65439582    
   17.2800007      -1.69960880    
   17.3199997      -1.74560285    
   17.3600006      -1.79237759    
   17.3999996      -1.83993173    
   17.4400005      -1.88826406    
   17.4799995      -1.93737292    
   17.5200005      -1.98725581    
   17.5599995      -2.03791022    
   17.6000004      -2.08933306    
   17.6399994      -2.14152074    
   17.6800003      -2.19446945    
   17.7199993      -2.24817514    
   17.7600002      -2.30263257    
   17.7999992      -2.35783744    
   17.8400002      -2.41378355    
   17.8799992      -2.47046518    
   17.9200001      -2.52787662    
   17.9599991      -2.58601046    
   18.0000000      -2.64486003    
   18.0400009      -2.70441794    
   18.0799999      -2.76467609    
   18.1200008      -2.82562685    
   18.1599998      -2.88726163    
   18.2000008      -2.94957161    
   18.2399998      -3.01254821    
   18.2800007      -3.07618141    
   18.3199997      -3.14046168    
   18.3600006      -3.20537901    
   18.3999996      -3.27092314    
   18.4400005      -3.33708334    
   18.4799995      -3.40384889    
   18.5200005      -3.47120881    
   18.5599995      -3.53915191    
   18.6000004      -3.60766625    
   18.6399994      -3.67674041    
   18.6800003      -3.74636221    
   18.7199993      -3.81651950    
   18.7600002      -3.88719988    
   18.7999992      -3.95839119    
   18.8400002      -4.03008080    
   18.8799992      -4.10225534    
   18.9200001      -4.17490244    
   18.9599991      -4.24800825    
   19.0000000      -4.32156038    
   19.0400009      -4.39554596    
   19.0799999      -4.46995115    
   19.1200008      -4.54476261    
   19.1599998      -4.61996746    
   19.2000008      -4.69555140    
   19.2399998      -4.77150202    
   19.2800007      -4.84780550    
   19.3199997      -4.92444801    
   19.3600006      -5.00141621    
   19.3999996      -5.07869625    
   19.4400005      -5.15627575    
   19.4799995      -5.23414087    
   19.5200005      -5.31227875    
   19.5599995      -5.39067554    
   19.6000004      -5.46931791    
   19.6399994      -5.54819393    
   19.6800003      -5.62728977    
   19.7199993      -5.70659256    
   19.7600002      -5.78608990    
   19.7999992      -5.86576891    
   19.8400002      -5.94561768    
   19.8799992      -6.02562332    
   19.9200001      -6.10577345    
   19.9599991      -6.18605661    
   20.0000000      -6.26645994    
   20.0400009      -6.34697247    
   20.0799999      -6.42758226    
   20.1200008      -6.50827885    
   20.1599998      -6.58904934    
   20.2000008      -6.66988373    
   20.2399998      -6.75077152    
   20.2800007      -6.83170080    
   20.3199997      -6.91266108    
   20.3600006      -6.99364328    
   20.3999996      -7.07463646    
   20.4400005      -7.15563059    
   20.4799995      -7.23661566    
   20.5200005      -7.31758308    
   20.5599995      -7.39852238    
   20.6000004      -7.47942495    
   20.6399994      -7.56028175    
   20.6800003      -7.64108372    
   20.7199993      -7.72182322    
   20.7600002      -7.80249071    
   20.7999992      -7.88307810    
   20.8400002      -7.96357775    
   20.8799992      -8.04398155    
   20.9200001      -8.12428188    
   20.9599991      -8.20447063    
   21.0000000      -8.28454113    
   21.0400009      -8.36448669    
   21.0799999      -8.44429970    
   21.1200008      -8.52397251    
   21.1599998      -8.60350037    
   21.2000008      -8.68287563    
   21.2399998      -8.76209164    
   21.2800007      -8.84114265    
   21.3199997      -8.92002392    
   21.3600006      -8.99872684    
   21.3999996      -9.07724857    
   21.4400005      -9.15558243    
   21.4799995      -9.23372173    
   21.5200005      -9.31166267    
   21.5599995      -9.38940048    
   21.6000004      -9.46692944    
   21.6399994      -9.54424572    
   21.6800003      -9.62134457    
   21.7199993      -9.69822121    
   21.7600002      -9.77487183    
   21.7999992      -9.85129166    
   21.8400002      -9.92747688    
   21.8799992      -10.0034246    
   21.9200001      -10.0791311    
   21.9599991      -10.1545925    
   22.0000000      -10.2298069    
   22.0400009      -10.3047686    
   22.0799999      -10.3794775    
   22.1200008      -10.4539299    
   22.1599998      -10.5281248    
   22.2000008      -10.6020575    
   22.2399998      -10.6757259    
   22.2800007      -10.7491312    
   22.3199997      -10.8222685    
   22.3600006      -10.8951368    
   22.3999996      -10.9677362    
   22.4400005      -11.0400667    
   22.4799995      -11.1121244    
   22.5200005      -11.1839113    
   22.5599995      -11.2554255    
   22.6000004      -11.3266668    
   22.6399994      -11.3976364    
   22.6800003      -11.4683352    
   22.7199993      -11.5387621    
   22.7600002      -11.6089191    
   22.7999992      -11.6788073    
   22.8400002      -11.7484283    
   22.8799992      -11.8177834    
   22.9200001      -11.8868742    
   22.9599991      -11.9557018    
   23.0000000      -12.0242720    
   23.0400009      -12.0925846    
   23.0799999      -12.1606426    
   23.1200008      -12.2284517    
   23.1599998      -12.2960138    
   23.2000008      -12.3633318    
   23.2399998      -12.4304113    
   23.2800007      -12.4972563    
   23.3199997      -12.5638695    
   23.3600006      -12.6302567    
   23.3999996      -12.6964235    
   23.4400005      -12.7623749    
   23.4799995      -12.8281155    
   23.5200005      -12.8936520    
   23.5599995      -12.9589901    
   23.6000004      -13.0241365    
   23.6399994      -13.0890961    
   23.6800003      -13.1538763    
   23.7199993      -13.2184849    
   23.7600002      -13.2829266    
   23.7999992      -13.3472099    
   23.8400002      -13.4113417    
   23.8799992      -13.4753294    
   23.9200001      -13.5391827    
   23.9599991      -13.6029081    
   24.0000000      -13.6665115    
   24.0400009      -13.7300034    
   24.0799999      -13.7933922    
   24.1200008      -13.8566847    
   24.1599998      -13.9198904    
   24.2000008      -13.9830179    
   24.2399998      -14.0460768    