  -6.00000000       1.24187455E-12
  -5.99499989       3.77379638E-12
  -5.98999977       6.40181224E-12
  -5.98500013       9.12544519E-12
  -5.98000002       1.19442642E-11
  -5.97499990       1.48579239E-11
  -5.96999979       1.78661842E-11
  -5.96500015       2.09689384E-11
  -5.96000004       2.41662419E-11
  -5.95499992       2.74583360E-11
  -5.94999981       3.08456351E-11
  -5.94500017       3.43287863E-11
  -5.94000006       3.79086380E-11
  -5.93499994       4.15862553E-11
  -5.92999983       4.53629460E-11
  -5.92500019       4.92401953E-11
  -5.92000008       5.32197411E-11
  -5.91499996       5.73034745E-11
  -5.90999985       6.14935394E-11
  -5.90500021       6.57921703E-11
  -5.90000010       7.02018443E-11
  -5.89499998       7.47251219E-11
  -5.88999987       7.93647370E-11
  -5.88500023       8.41234860E-11
  -5.88000011       8.90043733E-11
  -5.87500000       9.40104036E-11
  -5.86999989       9.91447341E-11
  -5.86499977       1.04410584E-10
  -5.86000013       1.09811299E-10
  -5.85500002       1.15350327E-10
  -5.84999990       1.21031185E-10
  -5.84499979       1.26857594E-10
  -5.84000015       1.32833383E-10
  -5.83500004       1.38962536E-10
  -5.82999992       1.45249285E-10
  -5.82499981       1.51698043E-10
  -5.82000017       1.58313487E-10
  -5.81500006       1.65100641E-10
  -5.80999994       1.72064737E-10
  -5.80499983       1.79211493E-10
  -5.80000019       1.86546875E-10
  -5.79500008       1.94077379E-10
  -5.78999996       2.01809902E-10
  -5.78499985       2.09751799E-10
  -5.78000021       2.17910967E-10
  -5.77500010       2.26295760E-10
  -5.76999998       2.34915115E-10
  -5.76499987       2.43778497E-10
  -5.76000023       2.52895871E-10
  -5.75500011       2.62277949E-10
  -5.75000000       2.71935807E-10
  -5.74499989       2.81881213E-10
  -5.73999977       2.92126490E-10
  -5.73500013       3.02684461E-10
  -5.73000002       3.13568699E-10
  -5.72499990       3.24793192E-10
  -5.71999979       3.36372513E-10
  -5.71500015       3.48321816E-10
  -5.71000004       3.60656921E-10
  -5.70499992       3.73394066E-10
  -5.69999981       3.86550125E-10
  -5.69500017       4.00142530E-10
  -5.69000006       4.14189349E-10
  -5.68499994       4.28709290E-10
  -5.67999983       4.43721448E-10
  -5.67500019       4.59246058E-10
  -5.67000008       4.75303519E-10
  -5.66499996       4.91915175E-10
  -5.65999985       5.09102982E-10
  -5.65500021       5.26889921E-10
  -5.65000010       5.45299583E-10
  -5.64499998       5.64356339E-10
  -5.63999987       5.84085669E-10
  -5.63500023       6.04514105E-10
  -5.63000011       6.25668573E-10
  -5.62500000       6.47577769E-10
  -5.61999989       6.70271116E-10
  -5.61499977       6.93779034E-10
  -5.61000013       7.18133331E-10
  -5.60500002       7.43367090E-10
  -5.59999990       7.69514508E-10
  -5.59499979       7.96611055E-10
  -5.59000015       8.24693647E-10
  -5.58500004       8.53800641E-10
  -5.57999992       8.83971618E-10
  -5.57499981       9.15247655E-10
  -5.57000017       9.47671497E-10
  -5.56500006       9.81287496E-10
  -5.55999994       1.01614084E-09
  -5.55499983       1.05227926E-09
  -5.55000019       1.08975129E-09
  -5.54500008       1.12860776E-09
  -5.53999996       1.16890098E-09
  -5.53499985       1.21068455E-09
  -5.53000021       1.25401467E-09
  -5.52500010       1.29894884E-09
  -5.51999998       1.34554612E-09
  -5.51499987       1.39386813E-09
  -5.51000023       1.44397827E-09
  -5.50500011       1.49594226E-09
  -5.50000000       1.54982716E-09
  -5.49499989       1.60570290E-09
  -5.48999977       1.66364100E-09
  -5.48500013       1.72371639E-09
  -5.48000002       1.78600523E-09
  -5.47499990       1.85058713E-09
  -5.46999979       1.91754368E-09
  -5.46500015       1.98695926E-09
  -5.46000004       2.05892170E-09
  -5.45499992       2.13352047E-09
  -5.44999981       2.21084906E-09
  -5.44500017       2.29100383E-09
  -5.44000006       2.37408382E-09
  -5.43499994       2.46019183E-09
  -5.42999983       2.54943511E-09
  -5.42500019       2.64192268E-09
  -5.42000008       2.73776823E-09
  -5.41499996       2.83708856E-09
  -5.40999985       2.94000557E-09
  -5.40500021       3.04664383E-09
  -5.40000010       3.15713344E-09
  -5.39499998       3.27160743E-09
  -5.38999987       3.39020501E-09
  -5.38500023       3.51306717E-09
  -5.38000011       3.64034225E-09
  -5.37500000       3.77218212E-09
  -5.36999989       3.90874488E-09
  -5.36499977       4.05019263E-09
  -5.36000013       4.19669233E-09
  -5.35500002       4.34841541E-09
  -5.34999990       4.50554305E-09
  -5.34499979       4.66826000E-09
  -5.34000015       4.83675455E-09
  -5.33500004       5.01122299E-09
  -5.32999992       5.19187049E-09
  -5.32499981       5.37890443E-09
  -5.32000017       5.57254154E-09
  -5.31500006       5.77300519E-09
  -5.30999994       5.98052452E-09
  -5.30499983       6.19533846E-09
  -5.30000019       6.41769038E-09
  -5.29500008       6.64783517E-09
  -5.28999996       6.88603263E-09
  -5.28499985       7.13255410E-09
  -5.28000021       7.38767714E-09
  -5.27500010       7.65168728E-09
  -5.26999998       7.92488297E-09
  -5.26499987       8.20756973E-09
  -5.26000023       8.50006554E-09
  -5.25500011       8.80269457E-09
  -5.25000000       9.11579523E-09
  -5.24499989       9.43971301E-09
  -5.23999977       9.77480852E-09
  -5.23500013       1.01214503E-08
  -5.23000002       1.04800222E-08
  -5.22499990       1.08509175E-08
  -5.21999979       1.12345440E-08
  -5.21500015       1.16313217E-08
  -5.21000004       1.20416850E-08
  -5.20499992       1.24660788E-08
  -5.19999981       1.29049686E-08
  -5.19500017       1.33588278E-08
  -5.19000006       1.38281475E-08
  -5.18499994       1.43134375E-08
  -5.17999983       1.48152202E-08
  -5.17500019       1.53340345E-08
  -5.17000008       1.58704392E-08
  -5.16499996       1.64250089E-08
  -5.15999985       1.69983299E-08
  -5.15500021       1.75910184E-08
  -5.15000010       1.82037052E-08
  -5.14499998       1.88370386E-08
  -5.13999987       1.94916900E-08
  -5.13500023       2.01683488E-08
  -5.13000011       2.08677342E-08
  -5.12500000       2.15905782E-08
  -5.11999989       2.23376375E-08
  -5.11499977       2.31096973E-08
  -5.11000013       2.39075586E-08
  -5.10500002       2.47320600E-08
  -5.09999990       2.55840575E-08
  -5.09499979       2.64644324E-08
  -5.09000015       2.73740923E-08
  -5.08500004       2.83139876E-08
  -5.07999992       2.92850828E-08
  -5.07499981       3.02883798E-08
  -5.07000017       3.13248982E-08
  -5.06500006       3.23957146E-08
  -5.05999994       3.35019124E-08
  -5.05499983       3.46446321E-08
  -5.05000019       3.58250212E-08
  -5.04500008       3.70442912E-08
  -5.03999996       3.83036713E-08
  -5.03499985       3.96044371E-08
  -5.03000021       4.09479100E-08
  -5.02500010       4.23354294E-08
  -5.01999998       4.37683951E-08
  -5.01499987       4.52482389E-08
  -5.01000023       4.67764565E-08
  -5.00500011       4.83545648E-08
  -5.00000000       4.99841306E-08
  -4.99499989       5.16667882E-08
  -4.98999977       5.34041931E-08
  -4.98500013       5.51980612E-08
  -4.98000002       5.70501797E-08
  -4.97499990       5.89623568E-08
  -4.96999979       6.09364932E-08
  -4.96500015       6.29745074E-08
  -4.96000004       6.50783889E-08
  -4.95499992       6.72502196E-08
  -4.94999981       6.94920885E-08
  -4.94500017       7.18061841E-08
  -4.94000006       7.41947588E-08
  -4.93499994       7.66601005E-08
  -4.92999983       7.92046109E-08
  -4.92500019       8.18307200E-08
  -4.92000008       8.45409787E-08
  -4.91499996       8.73379804E-08
  -4.90999985       9.02243684E-08
  -4.90500021       9.32029494E-08
  -4.90000010       9.62765228E-08
  -4.89499998       9.94480018E-08
  -4.88999987       1.02720435E-07
  -4.88500023       1.06096870E-07
  -4.88000011       1.09580526E-07
  -4.87500000       1.13174657E-07
  -4.86999989       1.16882674E-07
  -4.86499977       1.20707995E-07
  -4.86000013       1.24654264E-07
  -4.85500002       1.28725105E-07
  -4.84999990       1.32924370E-07
  -4.84499979       1.37255881E-07
  -4.84000015       1.41723731E-07
  -4.83500004       1.46331985E-07
  -4.82999992       1.51084890E-07
  -4.82499981       1.55986854E-07
  -4.82000017       1.61042365E-07
  -4.81500006       1.66256058E-07
  -4.80999994       1.71632664E-07
  -4.80499983       1.77177114E-07
  -4.80000019       1.82894397E-07
  -4.79500008       1.88789798E-07
  -4.78999996       1.94868548E-07
  -4.78499985       2.01136160E-07
  -4.78000021       2.07598305E-07
  -4.77500010       2.14260737E-07
  -4.76999998       2.21129511E-07
  -4.76499987       2.28210666E-07
  -4.76000023       2.35510569E-07
  -4.75500011       2.43035686E-07
  -4.75000000       2.50792709E-07
  -4.74499989       2.58788504E-07
  -4.73999977       2.67030117E-07
  -4.73500013       2.75524826E-07
  -4.73000002       2.84280105E-07
  -4.72499990       2.93303600E-07
  -4.71999979       3.02603269E-07
  -4.71500015       3.12187126E-07
  -4.71000004       3.22063556E-07
  -4.70499992       3.32241058E-07
  -4.69999981       3.42728612E-07
  -4.69500017       3.53535142E-07
  -4.69000006       3.64669944E-07
  -4.68499994       3.76142623E-07
  -4.67999983       3.87963070E-07
  -4.67500019       4.00141374E-07
  -4.67000008       4.12687854E-07
  -4.66499996       4.25613194E-07
  -4.65999985       4.38928424E-07
  -4.65500021       4.52644827E-07
  -4.65000010       4.66773855E-07
  -4.64499998       4.81327561E-07
  -4.63999987       4.96318194E-07
  -4.63500023       5.11758117E-07
  -4.63000011       5.27660404E-07
  -4.62500000       5.44038244E-07
  -4.61999989       5.60905391E-07
  -4.61499977       5.78275660E-07
  -4.61000013       5.96163488E-07
  -4.60500002       6.14583769E-07
  -4.59999990       6.33551394E-07
  -4.59499979       6.53082282E-07
  -4.59000015       6.73192233E-07
  -4.58500004       6.93897562E-07
  -4.57999992       7.15215549E-07
  -4.57499981       7.37163077E-07
  -4.57000017       7.59758223E-07
  -4.56500006       7.83019118E-07
  -4.55999994       8.06964692E-07
  -4.55499983       8.31613988E-07
  -4.55000019       8.56986958E-07
  -4.54500008       8.83103837E-07
  -4.53999996       9.09985488E-07
  -4.53499985       9.37653510E-07
  -4.53000021       9.66129619E-07
  -4.52500010       9.95436267E-07
  -4.51999998       1.02559693E-06
  -4.51499987       1.05663514E-06
  -4.51000023       1.08857557E-06
  -4.50500011       1.12144301E-06
  -4.50000000       1.15526325E-06
  -4.49499989       1.19006268E-06
  -4.48999977       1.22586823E-06
  -4.48500013       1.26270766E-06
  -4.48000002       1.30060994E-06
  -4.47499990       1.33960407E-06
  -4.46999979       1.37971949E-06
  -4.46500015       1.42098781E-06
  -4.46000004       1.46343984E-06
  -4.45499992       1.50710889E-06
  -4.44999981       1.55202758E-06
  -4.44500017       1.59823026E-06
  -4.44000006       1.64575192E-06
  -4.43499994       1.69462828E-06
  -4.42999983       1.74489605E-06
  -4.42500019       1.79659344E-06
  -4.42000008       1.84975886E-06
  -4.41499996       1.90443234E-06
  -4.40999985       1.96065457E-06
  -4.40500021       2.01846683E-06
  -4.40000010       2.07791277E-06
  -4.39499998       2.13903536E-06
  -4.38999987       2.20188053E-06
  -4.38500023       2.26649445E-06
  -4.38000011       2.33292371E-06
  -4.37500000       2.40121767E-06
  -4.36999989       2.47142566E-06
  -4.36499977       2.54359884E-06
  -4.36000013       2.61778951E-06
  -4.35500002       2.69405200E-06
  -4.34999990       2.77244044E-06
  -4.34499979       2.85301189E-06
  -4.34000015       2.93582320E-06
  -4.33500004       3.02093463E-06
  -4.32999992       3.10840619E-06
  -4.32499981       3.19830087E-06
  -4.32000017       3.29068121E-06
  -4.31500006       3.38561381E-06
  -4.30999994       3.48316485E-06
  -4.30499983       3.58340390E-06
  -4.30000019       3.68639940E-06
  -4.29500008       3.79222524E-06
  -4.28999996       3.90095420E-06
  -4.28499985       4.01266243E-06
  -4.28000021       4.12742747E-06
  -4.27500010       4.24532800E-06
  -4.26999998       4.36644632E-06
  -4.26499987       4.49086519E-06
  -4.26000023       4.61867012E-06
  -4.25500011       4.74994749E-06
  -4.25000000       4.88478827E-06
  -4.24499989       5.02328430E-06
  -4.23999977       5.16552745E-06
  -4.23500013       5.31161686E-06
  -4.23000002       5.46164802E-06
  -4.22499990       5.61572415E-06
  -4.21999979       5.77394667E-06
  -4.21500015       5.93642199E-06
  -4.21000004       6.10325924E-06
  -4.20499992       6.27456802E-06
  -4.19999981       6.45046293E-06
  -4.19500017       6.63105902E-06
  -4.19000006       6.81647634E-06
  -4.18499994       7.00683586E-06
  -4.17999983       7.20226262E-06
  -4.17500019       7.40288442E-06
  -4.17000008       7.60883131E-06
  -4.16499996       7.82023744E-06
  -4.15999985       8.03723833E-06
  -4.15500021       8.25997813E-06
  -4.15000010       8.48859418E-06
  -4.14499998       8.72323744E-06
  -4.13999987       8.96405527E-06
  -4.13500023       9.21120409E-06
  -4.13000011       9.46483942E-06
  -4.12500000       9.72512134E-06
  -4.11999989       9.99221720E-06
  -4.11499977       1.02662907E-05
  -4.11000013       1.05475192E-05
  -4.10500002       1.08360755E-05
  -4.09999990       1.11321397E-05
  -4.09499979       1.14358991E-05
  -4.09000015       1.17475402E-05
  -4.08500004       1.20672539E-05
  -4.07999992       1.23952395E-05
  -4.07499981       1.27316989E-05
  -4.07000017       1.30768394E-05
  -4.06500006       1.34308684E-05
  -4.05999994       1.37940060E-05
  -4.05499983       1.41664686E-05
  -4.05000019       1.45484846E-05
  -4.04500008       1.49402831E-05
  -4.03999996       1.53421061E-05
  -4.03499985       1.57541854E-05
  -4.03000021       1.61767748E-05
  -4.02500010       1.66101181E-05
  -4.01999998       1.70544827E-05
  -4.01499987       1.75101250E-05
  -4.01000023       1.79773178E-05
  -4.00500011       1.84563360E-05
  -4.00000000       1.89474595E-05
  -3.99499989       1.94509776E-05
  -3.99000001       1.99671813E-05
  -3.98499990       2.04963726E-05
  -3.98000002       2.10388589E-05
  -3.97499990       2.15949531E-05
  -3.97000003       2.21649789E-05
  -3.96499991       2.27492565E-05
  -3.96000004       2.33481278E-05
  -3.95499992       2.39619276E-05
  -3.95000005       2.45910105E-05
  -3.94499993       2.52357313E-05
  -3.94000006       2.58964574E-05
  -3.93499994       2.65735598E-05
  -3.93000007       2.72674151E-05
  -3.92499995       2.79784144E-05
  -3.92000008       2.87069543E-05
  -3.91499996       2.94534402E-05
  -3.91000009       3.02182816E-05
  -3.90499997       3.10019168E-05
  -3.90000010       3.18047532E-05
  -3.89499998       3.26272566E-05
  -3.89000010       3.34698598E-05
  -3.88499999       3.43330248E-05
  -3.88000011       3.52172246E-05
  -3.87500000       3.61229431E-05
  -3.86999989       3.70506605E-05
  -3.86500001       3.80008714E-05
  -3.85999990       3.89741108E-05
  -3.85500002       3.99708770E-05
  -3.84999990       4.09916975E-05
  -3.84500003       4.20371252E-05
  -3.83999991       4.31077206E-05
  -3.83500004       4.42040327E-05
  -3.82999992       4.53266512E-05
  -3.82500005       4.64761470E-05
  -3.81999993       4.76531422E-05
  -3.81500006       4.88582446E-05
  -3.80999994       5.00920614E-05
  -3.80500007       5.13552477E-05
  -3.79999995       5.26484509E-05
  -3.79500008       5.39723296E-05
  -3.78999996       5.53275713E-05
  -3.78500009       5.67148600E-05
  -3.77999997       5.81349050E-05
  -3.77500010       5.95884158E-05
  -3.76999998       6.10761344E-05
  -3.76500010       6.25988105E-05
  -3.75999999       6.41572187E-05
  -3.75500011       6.57521086E-05
  -3.75000000       6.73843024E-05
  -3.74499989       6.90545785E-05
  -3.74000001       7.07638028E-05
  -3.73499990       7.25127829E-05
  -3.73000002       7.43023847E-05
  -3.72499990       7.61334959E-05
  -3.72000003       7.80069968E-05
  -3.71499991       7.99238042E-05
  -3.71000004       8.18848566E-05
  -3.70499992       8.38910782E-05
  -3.70000005       8.59434294E-05
  -3.69499993       8.80429361E-05
  -3.69000006       9.01905587E-05
  -3.68499994       9.23873304E-05
  -3.68000007       9.46342770E-05
  -3.67499995       9.69325047E-05
  -3.67000008       9.92830537E-05
  -3.66499996       1.01687037E-04
  -3.66000009       1.04145562E-04
  -3.65499997       1.06659791E-04
  -3.65000010       1.09230881E-04
  -3.64499998       1.11860034E-04
  -3.64000010       1.14548442E-04
  -3.63499999       1.17297350E-04
  -3.63000011       1.20108009E-04
  -3.62500000       1.22981699E-04
  -3.61999989       1.25919702E-04
  -3.61500001       1.28923406E-04
  -3.60999990       1.31994078E-04
  -3.60500002       1.35133159E-04
  -3.59999990       1.38342002E-04
  -3.59500003       1.41622077E-04
  -3.58999991       1.44974823E-04
  -3.58500004       1.48401770E-04
  -3.57999992       1.51904314E-04
  -3.57500005       1.55484086E-04
  -3.56999993       1.59142612E-04
  -3.56500006       1.62881479E-04
  -3.55999994       1.66702346E-04
  -3.55500007       1.70606843E-04
  -3.54999995       1.74596600E-04
  -3.54500008       1.78673377E-04
  -3.53999996       1.82838921E-04
  -3.53500009       1.87094993E-04
  -3.52999997       1.91443381E-04
  -3.52500010       1.95885921E-04
  -3.51999998       2.00424474E-04
  -3.51500010       2.05060947E-04
  -3.50999999       2.09797305E-04
  -3.50500011       2.14635496E-04
  -3.50000000       2.19577472E-04
  -3.49499989       2.24625343E-04
  -3.49000001       2.29781115E-04
  -3.48499990       2.35047002E-04
  -3.48000002       2.40425026E-04
  -3.47499990       2.45917472E-04
  -3.47000003       2.51526450E-04
  -3.46499991       2.57254287E-04
  -3.46000004       2.63103284E-04
  -3.45499992       2.69075739E-04
  -3.45000005       2.75174039E-04
  -3.44499993       2.81400658E-04
  -3.44000006       2.87757895E-04
  -3.43499994       2.94248399E-04
  -3.43000007       3.00874701E-04
  -3.42499995       3.07639246E-04
  -3.42000008       3.14544770E-04
  -3.41499996       3.21593892E-04
  -3.41000009       3.28789407E-04
  -3.40499997       3.36133991E-04
  -3.40000010       3.43630381E-04
  -3.39499998       3.51281633E-04
  -3.39000010       3.59090482E-04
  -3.38499999       3.67059867E-04
  -3.38000011       3.75192816E-04
  -3.37500000       3.83492443E-04
  -3.36999989       3.91961657E-04
  -3.36500001       4.00603749E-04
  -3.35999990       4.09421831E-04
  -3.35500002       4.18419164E-04
  -3.34999990       4.27599123E-04
  -3.34500003       4.36964881E-04
  -3.33999991       4.46520047E-04
  -3.33500004       4.56267764E-04
  -3.32999992       4.66211903E-04
  -3.32500005       4.76355752E-04
  -3.31999993       4.86703007E-04
  -3.31500006       4.97257337E-04
  -3.30999994       5.08022495E-04
  -3.30500007       5.19002206E-04
  -3.29999995       5.30200428E-04
  -3.29500008       5.41620946E-04
  -3.28999996       5.53267775E-04
  -3.28500009       5.65144990E-04
  -3.27999997       5.77256491E-04
  -3.27500010       5.89606760E-04
  -3.26999998       6.02199638E-04
  -3.26500010       6.15039608E-04
  -3.25999999       6.28131034E-04
  -3.25500011       6.41478109E-04
  -3.25000000       6.55085489E-04
  -3.24499989       6.68957655E-04
  -3.24000001       6.83099206E-04
  -3.23499990       6.97514915E-04
  -3.23000002       7.12209323E-04
  -3.22499990       7.27187318E-04
  -3.22000003       7.42453907E-04
  -3.21499991       7.58013746E-04
  -3.21000004       7.73872191E-04
  -3.20499992       7.90034072E-04
  -3.20000005       8.06504686E-04
  -3.19499993       8.23289331E-04
  -3.19000006       8.40393302E-04
  -3.18499994       8.57821724E-04
  -3.18000007       8.75580416E-04
  -3.17499995       8.93674791E-04
  -3.17000008       9.12110263E-04
  -3.16499996       9.30892653E-04
  -3.16000009       9.50028014E-04
  -3.15499997       9.69522051E-04
  -3.15000010       9.89380525E-04
  -3.14499998       1.00960943E-03
  -3.14000010       1.03021518E-03
  -3.13499999       1.05120381E-03
  -3.13000011       1.07258151E-03
  -3.12500000       1.09435467E-03
  -3.11999989       1.11652969E-03
  -3.11500001       1.13911321E-03
  -3.10999990       1.16211199E-03
  -3.10500002       1.18553208E-03
  -3.09999990       1.20938104E-03
  -3.09500003       1.23366539E-03
  -3.08999991       1.25839235E-03
  -3.08500004       1.28356856E-03
  -3.07999992       1.30920159E-03
  -3.07500005       1.33529818E-03
  -3.06999993       1.36186590E-03
  -3.06500006       1.38891255E-03
  -3.05999994       1.41644548E-03
  -3.05500007       1.44447188E-03
  -3.04999995       1.47299981E-03
  -3.04500008       1.50203682E-03
  -3.03999996       1.53159117E-03
  -3.03500009       1.56167115E-03
  -3.02999997       1.59228407E-03
  -3.02500010       1.62343867E-03
  -3.01999998       1.65514299E-03
  -3.01500010       1.68740563E-03
  -3.00999999       1.72023475E-03
  -3.00500011       1.75363978E-03
  -3.00000000       1.78762875E-03
  -2.99499989       1.82221062E-03
  -2.99000001       1.85739400E-03
  -2.98499990       1.89318846E-03
  -2.98000002       1.92960352E-03
  -2.97499990       1.96664687E-03
  -2.97000003       2.00432935E-03
  -2.96499991       2.04266002E-03
  -2.96000004       2.08164868E-03
  -2.95499992       2.12130439E-03
  -2.95000005       2.16163718E-03
  -2.94499993       2.20265705E-03
  -2.94000006       2.24437378E-03
  -2.93499994       2.28679786E-03
  -2.93000007       2.32993928E-03
  -2.92499995       2.37380830E-03
  -2.92000008       2.41841585E-03
  -2.91499996       2.46377173E-03
  -2.91000009       2.50988756E-03
  -2.90499997       2.55677337E-03
  -2.90000010       2.60444102E-03
  -2.89499998       2.65290053E-03
  -2.89000010       2.70216353E-03
  -2.88499999       2.75224098E-03
  -2.88000011       2.80314451E-03
  -2.87500000       2.85488577E-03
  -2.86999989       2.90747616E-03
  -2.86500001       2.96092732E-03
  -2.85999990       3.01525183E-03
  -2.85500002       3.07046087E-03
  -2.84999990       3.12656676E-03
  -2.84500003       3.18358187E-03
  -2.83999991       3.24151805E-03
  -2.83500004       3.30038858E-03
  -2.82999992       3.36020556E-03
  -2.82500005       3.42098158E-03
  -2.81999993       3.48273036E-03
  -2.81500006       3.54546355E-03
  -2.80999994       3.60919489E-03
  -2.80500007       3.67393740E-03
  -2.79999995       3.73970461E-03
  -2.79500008       3.80651024E-03
  -2.78999996       3.87436734E-03
  -2.78500009       3.94328870E-03
  -2.77999997       4.01329109E-03
  -2.77500010       4.08438500E-03
  -2.76999998       4.15658671E-03
  -2.76500010       4.22990881E-03
  -2.75999999       4.30436805E-03
  -2.75500011       4.37997561E-03
  -2.75000000       4.45674872E-03
  -2.74499989       4.53470089E-03
  -2.74000001       4.61384701E-03
  -2.73499990       4.69420152E-03
  -2.73000002       4.77577979E-03
  -2.72499990       4.85859858E-03
  -2.72000003       4.94267093E-03
  -2.71499991       5.02801407E-03
  -2.71000004       5.11464104E-03
  -2.70499992       5.20256953E-03
  -2.70000005       5.29181538E-03
  -2.69499993       5.38239395E-03
  -2.69000006       5.47431922E-03
  -2.68499994       5.56761073E-03
  -2.68000007       5.66228293E-03
  -2.67499995       5.75835211E-03
  -2.67000008       5.85583551E-03
  -2.66499996       5.95474942E-03
  -2.66000009       6.05511013E-03
  -2.65499997       6.15693489E-03
  -2.65000010       6.26024092E-03
  -2.64499998       6.36504404E-03
  -2.64000010       6.47136150E-03
  -2.63499999       6.57921238E-03
  -2.63000011       6.68861344E-03
  -2.62500000       6.79958099E-03
  -2.61999989       6.91213412E-03
  -2.61500001       7.02628959E-03
  -2.60999990       7.14206463E-03
  -2.60500002       7.25947926E-03
  -2.59999990       7.37854745E-03
  -2.59500003       7.49929389E-03
  -2.58999991       7.62173068E-03
  -2.58500004       7.74588063E-03
  -2.57999992       7.87175912E-03
  -2.57500005       7.99938571E-03
  -2.56999993       8.12877808E-03
  -2.56500006       8.25995766E-03
  -2.55999994       8.39294028E-03
  -2.55500007       8.52774642E-03
  -2.54999995       8.66439473E-03
  -2.54500008       8.80290475E-03
  -2.53999996       8.94329417E-03
  -2.53500009       9.08558536E-03
  -2.52999997       9.22979601E-03
  -2.52500010       9.37594380E-03
  -2.51999998       9.52404924E-03
  -2.51500010       9.67413373E-03
  -2.50999999       9.82621685E-03
  -2.50500011       9.98031534E-03
  -2.50000000       1.01364525E-02
  -2.49499989       1.02946460E-02
  -2.49000001       1.04549183E-02
  -2.48499990       1.06172860E-02
  -2.48000002       1.07817696E-02
  -2.47499990       1.09483926E-02
  -2.47000003       1.11171724E-02
  -2.46499991       1.12881325E-02
  -2.46000004       1.14612887E-02
  -2.45499992       1.16366632E-02
  -2.45000005       1.18142786E-02
  -2.44499993       1.19941542E-02
  -2.44000006       1.21763097E-02
  -2.43499994       1.23607637E-02
  -2.43000007       1.25475405E-02
  -2.42499995       1.27366623E-02
  -2.42000008       1.29281431E-02
  -2.41499996       1.31220091E-02
  -2.41000009       1.33182788E-02
  -2.40499997       1.35169737E-02
  -2.40000010       1.37181152E-02
  -2.39499998       1.39217246E-02
  -2.39000010       1.41278198E-02
  -2.38499999       1.43364230E-02
  -2.38000011       1.45475566E-02
  -2.37500000       1.47612374E-02
  -2.36999989       1.49774915E-02
  -2.36500001       1.51963374E-02
  -2.35999990       1.54177928E-02
  -2.35500002       1.56418867E-02
  -2.34999990       1.58686321E-02
  -2.34500003       1.60980504E-02
  -2.33999991       1.63301695E-02
  -2.33500004       1.65650025E-02
  -2.32999992       1.68025754E-02
  -2.32500005       1.70429051E-02
  -2.31999993       1.72860138E-02
  -2.31500006       1.75319184E-02
  -2.30999994       1.77806467E-02
  -2.30500007       1.80322137E-02
  -2.29999995       1.82866417E-02
  -2.29500008       1.85439549E-02
  -2.28999996       1.88041665E-02
  -2.28500009       1.90672986E-02
  -2.27999997       1.93333775E-02
  -2.27500010       1.96024161E-02
  -2.26999998       1.98744368E-02
  -2.26500010       2.01494619E-02
  -2.25999999       2.04275046E-02
  -2.25500011       2.07085945E-02
  -2.25000000       2.09927484E-02
  -2.24499989       2.12799739E-02
  -2.24000001       2.15703081E-02
  -2.23499990       2.18637567E-02
  -2.23000002       2.21603457E-02
  -2.22499990       2.24600956E-02
  -2.22000003       2.27630194E-02
  -2.21499991       2.30691414E-02
  -2.21000004       2.33784765E-02
  -2.20499992       2.36910470E-02
  -2.20000005       2.40068641E-02
  -2.19499993       2.43259557E-02
  -2.19000006       2.46483330E-02
  -2.18499994       2.49740165E-02
  -2.18000007       2.53030211E-02
  -2.17499995       2.56353691E-02
  -2.17000008       2.59710699E-02
  -2.16499996       2.63101477E-02
  -2.16000009       2.66526174E-02
  -2.15499997       2.69985031E-02
  -2.15000010       2.73478087E-02
  -2.14499998       2.77005564E-02
  -2.14000010       2.80567650E-02
  -2.13499999       2.84164473E-02
  -2.13000011       2.87796110E-02
  -2.12500000       2.91462820E-02
  -2.11999989       2.95164715E-02
  -2.11500001       2.98902038E-02
  -2.10999990       3.02674808E-02
  -2.10500002       3.06483191E-02
  -2.09999990       3.10327336E-02
  -2.09500003       3.14207375E-02
  -2.08999991       3.18123475E-02
  -2.08500004       3.22075747E-02
  -2.07999992       3.26064304E-02
  -2.07500005       3.30089331E-02
  -2.06999993       3.34150866E-02
  -2.06500006       3.38249095E-02
  -2.05999994       3.42384167E-02
  -2.05500007       3.46556045E-02
  -2.04999995       3.50764990E-02
  -2.04500008       3.55011038E-02
  -2.03999996       3.59294303E-02
  -2.03500009       3.63614857E-02
  -2.02999997       3.67972776E-02
  -2.02500010       3.72368246E-02
  -2.01999998       3.76801305E-02
  -2.01500010       3.81272025E-02
  -2.00999999       3.85780446E-02
  -2.00500011       3.90326753E-02
  -2.00000000       3.94910946E-02
  -1.99500000       3.99533063E-02
  -1.99000001       4.04193178E-02
  -1.98500001       4.08891402E-02
  -1.98000002       4.13627736E-02
  -1.97500002       4.18402255E-02
  -1.97000003       4.23215032E-02
  -1.96500003       4.28065993E-02
  -1.96000004       4.32955325E-02
  -1.95500004       4.37882915E-02
  -1.95000005       4.42848951E-02
  -1.94500005       4.47853245E-02
  -1.94000006       4.52896021E-02
  -1.93499994       4.57977057E-02
  -1.92999995       4.63096648E-02
  -1.92499995       4.68254648E-02
  -1.91999996       4.73450981E-02
  -1.91499996       4.78685685E-02
  -1.90999997       4.83958796E-02
  -1.90499997       4.89270240E-02
  -1.89999998       4.94620055E-02
  -1.89499998       5.00008054E-02
  -1.88999999       5.05434386E-02
  -1.88499999       5.10898829E-02
  -1.88000000       5.16401418E-02
  -1.87500000       5.21942154E-02
  -1.87000000       5.27520850E-02
  -1.86500001       5.33137582E-02
  -1.86000001       5.38792163E-02
  -1.85500002       5.44484518E-02
  -1.85000002       5.50214648E-02
  -1.84500003       5.55982292E-02
  -1.84000003       5.61787486E-02
  -1.83500004       5.67630157E-02
  -1.83000004       5.73510081E-02
  -1.82500005       5.79427183E-02
  -1.82000005       5.85381351E-02
  -1.81500006       5.91372326E-02
  -1.80999994       5.97400144E-02
  -1.80499995       6.03464805E-02
  -1.79999995       6.09565787E-02
  -1.79499996       6.15703091E-02
  -1.78999996       6.21876493E-02
  -1.78499997       6.28085956E-02
  -1.77999997       6.34331033E-02
  -1.77499998       6.40611872E-02
  -1.76999998       6.46928176E-02
  -1.76499999       6.53279573E-02
  -1.75999999       6.59665912E-02
  -1.75500000       6.66087121E-02
  -1.75000000       6.72542751E-02
  -1.74500000       6.79032728E-02
  -1.74000001       6.85556754E-02
  -1.73500001       6.92114606E-02
  -1.73000002       6.98705763E-02
  -1.72500002       7.05330446E-02
  -1.72000003       7.11988136E-02