  -6.00000000       0.00000000    
  -5.99499989       0.00000000    
  -5.98999977       0.00000000    
  -5.98500013       0.00000000    
  -5.98000002       0.00000000    
  -5.97499990       0.00000000    
  -5.96999979       0.00000000    
  -5.96500015       0.00000000    
  -5.96000004       0.00000000    
  -5.95499992       0.00000000    
  -5.94999981       0.00000000    
  -5.94500017       0.00000000    
  -5.94000006       0.00000000    
  -5.93499994       0.00000000    
  -5.92999983       0.00000000    
  -5.92500019       0.00000000    
  -5.92000008       0.00000000    
  -5.91499996       0.00000000    
  -5.90999985       0.00000000    
  -5.90500021       0.00000000    
  -5.90000010       0.00000000    
  -5.89499998       0.00000000    
  -5.88999987       0.00000000    
  -5.88500023       0.00000000    
  -5.88000011       0.00000000    
  -5.87500000       0.00000000    
  -5.86999989       0.00000000    
  -5.86499977       0.00000000    
  -5.86000013       0.00000000    
  -5.85500002       0.00000000    
  -5.84999990       0.00000000    
  -5.84499979       0.00000000    
  -5.84000015       0.00000000    
  -5.83500004       0.00000000    
  -5.82999992       0.00000000    
  -5.82499981       0.00000000    
  -5.82000017       0.00000000    
  -5.81500006       0.00000000    
  -5.80999994       0.00000000    
  -5.80499983       0.00000000    
  -5.80000019       0.00000000    
  -5.79500008       0.00000000    
  -5.78999996       0.00000000    
  -5.78499985       0.00000000    
  -5.78000021       0.00000000    
  -5.77500010       0.00000000    
  -5.76999998      -0.00000000    
  -5.76499987      -0.00000000    
  -5.76000023      -0.00000000    
  -5.75500011      -0.00000000    
  -5.75000000      -0.00000000    
  -5.74499989      -0.00000000    
  -5.73999977      -0.00000000    
  -5.73500013      -0.00000000    
  -5.73000002       0.00000000    
  -5.72499990       0.00000000    
  -5.71999979       0.00000000    
  -5.71500015       0.00000000    
  -5.71000004       0.00000000    
  -5.70499992       2.13397928E-38
  -5.69999981       3.38872981E-38
  -5.69500017       5.52830966E-38
  -5.69000006       8.08426516E-38
  -5.68499994       1.25850750E-37
  -5.67999983       1.90179743E-37
  -5.67500019       2.80619995E-37
  -5.67000008       4.07279753E-37
  -5.66499996       5.78545644E-37
  -5.65999985       8.08318639E-37
  -5.65500021       1.11140071E-36
  -5.65000010       1.50430812E-36
  -5.64499998       2.00455382E-36
  -5.63999987       2.62938783E-36
  -5.63500023       3.39164379E-36
  -5.63000011       4.30752816E-36
  -5.62500000       5.36716952E-36
  -5.61999989       6.56945580E-36
  -5.61499977       7.86595849E-36
  -5.61000013       9.19166630E-36
  -5.60500002       1.04344911E-35
  -5.59999990       1.14252577E-35
  -5.59499979       1.19216866E-35
  -5.59000015       1.15904726E-35
  -5.58500004       9.98801708E-36
  -5.57999992       6.54076223E-36
  -5.57499981       5.26616886E-37
  -5.57000017      -8.94052922E-36
  -5.56500006      -2.29205184E-35
  -5.55999994      -4.26474172E-35
  -5.55499983      -6.95166007E-35
  -5.55000019      -1.05053345E-34
  -5.54500008      -1.50857343E-34
  -5.53999996      -2.08516535E-34
  -5.53499985      -2.79483723E-34
  -5.53000021      -3.64909102E-34
  -5.52500010      -4.65422524E-34
  -5.51999998      -5.80859375E-34
  -5.51499987      -7.09928885E-34
  -5.51000023      -8.49820886E-34
  -5.50500011      -9.95756948E-34
  -5.50000000      -1.14049391E-33
  -5.49499989      -1.27379360E-33
  -5.48999977      -1.38188122E-33
  -5.48500013      -1.44692683E-33
  -5.48000002      -1.44658667E-33
  -5.47499990      -1.35366072E-33
  -5.46999979      -1.13593006E-33
  -5.46500015      -7.56246485E-34
  -5.46000004      -1.72960574E-34
  -5.45499992       6.59218564E-34
  -5.44999981       1.78783544E-33
  -5.44500017       3.26067807E-33
  -5.44000006       5.12304352E-33
  -5.43499994       7.41422197E-33
  -5.42999983       1.01631184E-32
  -5.42500019       1.33830032E-32
  -5.42000008       1.70654244E-32
  -5.41499996       2.11733246E-32
  -5.40999985       2.56335616E-32
  -5.40500021       3.03289944E-32
  -5.40000010       3.50905341E-32
  -5.39499998       3.96895117E-32
  -5.38999987       4.38309605E-32
  -5.38500023       4.71483143E-32
  -5.38000011       4.92005100E-32
  -5.37500000       4.94719669E-32
  -5.36999989       4.73767482E-32
  -5.36499977       4.22673914E-32
  -5.36000013       3.34497291E-32
  -5.35500002       2.02042588E-32
  -5.34999990       1.81499322E-33
  -5.34499979      -2.23936934E-32
  -5.34000015      -5.30120975E-32
  -5.33500004      -9.04919414E-32
  -5.32999992      -1.35085648E-31
  -5.32499981      -1.86778917E-31
  -5.32000017      -2.45218654E-31
  -5.31500006      -3.09638401E-31
  -5.30999994      -3.78784411E-31
  -5.30499983      -4.50846376E-31
  -5.30000019      -5.23397182E-31
  -5.29500008      -5.93347089E-31
  -5.28999996      -6.56918623E-31
  -5.28499985      -7.09647961E-31
  -5.28000021      -7.46418553E-31
  -5.27500010      -7.61535552E-31
  -5.26999998      -7.48844162E-31
  -5.26499987      -7.01898491E-31
  -5.26000023      -6.14186112E-31
  -5.25500011      -4.79405199E-31
  -5.25000000      -2.91800133E-31
  -5.24499989      -4.65483391E-32
  -5.23999977       2.59808490E-31
  -5.23500013       6.28895496E-31
  -5.23000002       1.06001529E-30
  -5.22499990       1.54965646E-30
  -5.21999979       2.09102164E-30
  -5.21500015       2.67359852E-30
  -5.21000004       3.28281116E-30
  -5.20499992       3.89977943E-30
  -5.19999981       4.50122065E-30
  -5.19500017       5.05952855E-30
  -5.19000006       5.54307427E-30
  -5.18499994       5.91673251E-30
  -5.17999983       6.14270278E-30
  -5.17500019       6.18159678E-30
  -5.17000008       5.99383441E-30
  -5.16499996       5.54133153E-30
  -5.15999985       4.78946503E-30
  -5.15500021       3.70927487E-30
  -5.15000010       2.27985850E-30
  -5.14499998       4.90884419E-31
  -5.13999987      -1.65488239E-30
  -5.13500023      -4.13911497E-30
  -5.13000011      -6.92569975E-30
  -5.12500000      -9.95885510E-30
  -5.11999989      -1.31617661E-29
  -5.11499977      -1.64358922E-29
  -5.11000013      -1.96611011E-29
  -5.10500002      -2.26968271E-29
  -5.09999990      -2.53842893E-29
  -5.09499979      -2.75500035E-29
  -5.09000015      -2.90105987E-29
  -5.08500004      -2.95789286E-29
  -5.07999992      -2.90715755E-29
  -5.07499981      -2.73175197E-29
  -5.07000017      -2.41679171E-29
  -5.06500006      -1.95066791E-29
  -5.05999994      -1.32615985E-29
  -5.05499983      -5.41553670E-30
  -5.05000019       3.98268996E-30
  -5.04500008       1.48083790E-29
  -5.03999996       2.68524979E-29
  -5.03499985       3.98154268E-29
  -5.03000021       5.33034515E-29
  -5.02500010       6.68287158E-29
  -5.01999998       7.98133475E-29
  -5.01499987       9.15981370E-29
  -5.01000023       1.01456076E-28
  -5.00500011       1.08611591E-28
  -5.00000000       1.12264828E-28
  -4.99499989       1.11621519E-28
  -4.98999977       1.05927664E-28
  -4.98500013       9.45085421E-29
  -4.98000002       7.68110214E-29
  -4.97499990       5.24483025E-29
  -4.96999979       2.12449693E-29
  -4.96500015      -1.67190309E-29
  -4.96000004      -6.10673927E-29
  -4.95499992      -1.11092189E-28
  -4.94999981      -1.65726067E-28
  -4.94500017      -2.23525115E-28
  -4.94000006      -2.82663562E-28
  -4.93499994      -3.40943911E-28
  -4.92999983      -3.95823863E-28
  -4.92500019      -4.44460190E-28
  -4.92000008      -4.83774054E-28
  -4.91499996      -5.10534032E-28
  -4.90999985      -5.21459688E-28
  -4.90500021      -5.13343675E-28
  -4.90000010      -4.83187801E-28
  -4.89499998      -4.28355083E-28
  -4.88999987      -3.46728899E-28
  -4.88500023      -2.36876166E-28
  -4.88000011      -9.82100591E-29
  -4.87500000       6.88572497E-29
  -4.86999989       2.62777396E-28
  -4.86499977       4.80750970E-28
  -4.86000013       7.18645448E-28
  -4.85500002       9.70951033E-28
  -4.84999990       1.23078267E-27
  -4.84499979       1.48993581E-27
  -4.84000015       1.73899841E-27
  -4.83500004       1.96752387E-27
  -4.82999992       2.16426936E-27
  -4.82499981       2.31749538E-27
  -4.82000017       2.41532338E-27
  -4.81500006       2.44615001E-27
  -4.80999994       2.39910493E-27
  -4.80499983       2.26454098E-27
  -4.80000019       2.03454970E-27
  -4.79500008       1.70347252E-27
  -4.78999996       1.26840022E-27
  -4.78499985       7.29636345E-28
  -4.78000021       9.10998447E-29
  -4.77500010      -6.39353323E-28
  -4.76999998      -1.44971045E-27
  -4.76499987      -2.32370266E-27
  -4.76000023      -3.24085900E-27
  -4.75500011      -4.17670110E-27
  -4.75000000      -5.10312078E-27
  -4.74499989      -5.98893146E-27
  -4.73999977      -6.80058189E-27
  -4.73500013      -7.50305714E-27
  -4.73000002      -8.06092200E-27
  -4.72499990      -8.43950436E-27
  -4.71999979      -8.60618590E-27
  -4.71500015      -8.53176488E-27
  -4.71000004      -8.19184287E-27
  -4.70499992      -7.56820133E-27
  -4.69999981      -6.65010899E-27
  -4.69500017      -5.43549199E-27
  -4.69000006      -3.93194044E-27
  -4.68499994      -2.15745927E-27
  -4.67999983      -1.40948196E-28
  -4.67500019       2.07767435E-27
  -4.67000008       4.44771103E-27
  -4.66499996       6.90833998E-27
  -4.65999985       9.38970042E-27
  -4.65500021       1.18143869E-26
  -4.65000010       1.40994065E-26
  -4.64499998       1.61584737E-26
  -4.63999987       1.79046989E-26
  -4.63500023       1.92535448E-26
  -4.63000011       2.01259695E-26
  -4.62500000       2.04517428E-26
  -4.61999989       2.01726956E-26
  -4.61499977       1.92459104E-26
  -4.61000013       1.76466505E-26
  -4.60500002       1.53709486E-26
  -4.59999990       1.24376872E-26
  -4.59499979       8.89005950E-27
  -4.59000015       4.79634710E-27
  -4.58500004       2.49846269E-28
  -4.57999992      -4.63208377E-27
  -4.57499981      -9.70988319E-27
  -4.57000017      -1.48246424E-26
  -4.56500006      -1.98018740E-26
  -4.55999994      -2.44561749E-26
  -4.55499983      -2.85966670E-26
  -4.55000019      -3.20331977E-26
  -4.54500008      -3.45829533E-26
  -4.53999996      -3.60775212E-26
  -4.53499985      -3.63699883E-26
  -4.53000021      -3.53419885E-26
  -4.52500010      -3.29103186E-26
  -4.51999998      -2.90329779E-26
  -4.51499987      -2.37142774E-26
  -4.51000023      -1.70088334E-26
  -4.50500011      -9.02415892E-27
  -4.50000000       7.82898708E-29
  -4.49499989       1.00838140E-26
  -4.48999977       2.07270306E-26
  -4.48500013       3.16963449E-26
  -4.48000002       4.26402430E-26
  -4.47499990       5.31756099E-26
  -4.46999979       6.28975255E-26
  -4.46500015       7.13907656E-26
  -4.46000004       7.82423554E-26
  -4.45499992       8.30552574E-26
  -4.44999981       8.54623062E-26
  -4.44500017       8.51405311E-26
  -4.44000006       8.18249364E-26
  -4.43499994       7.53215609E-26
  -4.42999983       6.55192492E-26
  -4.42500019       5.23996481E-26
  -4.42000008       3.60450084E-26
  -4.41499996       1.66435014E-26
  -4.40999985      -5.50845200E-27
  -4.40500021      -3.00069099E-26
  -4.40000010      -5.63444764E-26
  -4.39499998      -8.39177474E-26
  -4.38999987      -1.12038032E-25
  -4.38500023      -1.39945305E-25
  -4.38000011      -1.66825223E-25
  -4.37500000      -1.91828440E-25
  -4.36999989      -2.14092388E-25
  -4.36499977      -2.32764577E-25
  -4.36000013      -2.47026714E-25
  -4.35500002      -2.56119618E-25
  -4.34999990      -2.59367334E-25
  -4.34499979      -2.56200920E-25
  -4.34000015      -2.46179601E-25
  -4.33500004      -2.29010388E-25
  -4.32999992      -2.04564205E-25
  -4.32499981      -1.72888814E-25
  -4.32000017      -1.34217534E-25
  -4.31500006      -8.89736617E-26
  -4.30999994      -3.77702626E-26
  -4.30499983       1.85947766E-26
  -4.30000019       7.91482080E-26
  -4.29500008       1.42756066E-25
  -4.28999996       2.08142084E-25
  -4.28499985       2.73910946E-25
  -4.28000021       3.38574318E-25
  -4.27500010       4.00580881E-25
  -4.26999998       4.58348647E-25
  -4.26499987       5.10298638E-25
  -4.26000023       5.54891121E-25
  -4.25500011       5.90661427E-25
  -4.25000000       6.16255822E-25
  -4.24499989       6.30467398E-25
  -4.23999977       6.32269649E-25
  -4.23500013       6.20848471E-25
  -4.23000002       5.95631892E-25
  -4.22499990       5.56316050E-25
  -4.21999979       5.02887684E-25
  -4.21500015       4.35642469E-25
  -4.21000004       3.55198526E-25
  -4.20499992       2.62504781E-25
  -4.19999981       1.58843553E-25
  -4.19500017       4.58272195E-26
  -4.19000006      -7.46119435E-26
  -4.18499994      -2.00239694E-25
  -4.17999983      -3.28543286E-25
  -4.17500019      -4.56765206E-25
  -4.17000008      -5.81942936E-25
  -4.16499996      -7.00959564E-25
  -4.15999985      -8.10599940E-25
  -4.15500021      -9.07617998E-25
  -4.15000010      -9.88810028E-25
  -4.14499998      -1.05109651E-24
  -4.13999987      -1.09161132E-24
  -4.13500023      -1.10779303E-24
  -4.13000011      -1.09748439E-24
  -4.12500000      -1.05902959E-24
  -4.11999989      -9.91372445E-25
  -4.11499977      -8.94150367E-25
  -4.11000013      -7.67781408E-25
  -4.10500002      -6.13539724E-25
  -4.09999990      -4.33617513E-25
  -4.09499979      -2.31167726E-25
  -4.09000015      -1.03232503E-26
  -4.08500004       2.23808812E-25
  -4.07999992       4.65184866E-25
  -4.07499981       7.06895841E-25
  -4.07000017       9.41273368E-25
  -4.06500006       1.16003426E-24
  -4.05999994       1.35446264E-24
  -4.05499983       1.51563057E-24
  -4.05000019       1.63465321E-24
  -4.04500008       1.70297320E-24
  -4.03999996       1.71267698E-24
  -4.03499985       1.65682385E-24
  -4.03000021       1.52978973E-24
  -4.02500010       1.32760676E-24
  -4.01999998       1.04829882E-24
  -4.01499987       6.92186544E-25
  -4.01000023       2.62154848E-25
  -4.00500011      -2.36126160E-25
  -4.00000000      -7.94049589E-25
  -3.99499989      -1.39999865E-24
  -3.99000001      -2.03936085E-24
  -3.98499990      -2.69464906E-24
  -3.98000002      -3.34572673E-24
  -3.97499990      -3.97014958E-24
  -3.97000003      -4.54362346E-24
  -3.96499991      -5.04058374E-24
  -3.96000004      -5.43486746E-24
  -3.95499992      -5.70049823E-24
  -3.95000005      -5.81254685E-24
  -3.94499993      -5.74805707E-24
  -3.94000006      -5.48700486E-24
  -3.93499994      -5.01327179E-24
  -3.93000007      -4.31560005E-24
  -3.92499995      -3.38847787E-24
  -3.92000008      -2.23295283E-24
  -3.91499996      -8.57302576E-25
  -3.91000009       7.22461300E-25
  -3.90499997       2.48227607E-24
  -3.90000010       4.38994665E-24
  -3.89499998       6.40532218E-24
  -3.89000010       8.48074698E-24
  -3.88499999       1.05617889E-23
  -3.88000011       1.25882723E-23
  -3.87500000       1.44955921E-23
  -3.86999989       1.62162949E-23
  -3.86500001       1.76819022E-23
  -3.85999990       1.88249365E-23
  -3.85500002       1.95811133E-23
  -3.84999990       1.98916168E-23
  -3.84500003       1.97054172E-23
  -3.83999991       1.89815679E-23
  -3.83500004       1.76913386E-23
  -3.82999992       1.58201747E-23
  -3.82500005       1.33693843E-23
  -3.81999993       1.03574352E-23
  -3.81500006       6.82083533E-24
  -3.80999994       2.81451135E-24
  -3.80500007      -1.58838889E-24
  -3.79999995      -6.29725888E-24
  -3.79500008      -1.12054497E-23
  -3.78999996      -1.61922773E-23
  -3.78500009      -2.11256651E-23
  -3.77999997      -2.58653433E-23
  -3.77500010      -3.02665577E-23
  -3.76999998      -3.41842145E-23
  -3.76500010      -3.74773396E-23
  -3.75999999      -4.00137672E-23
  -3.75500011      -4.16748464E-23
  -3.75000000      -4.23601046E-23
  -3.74499989      -4.19916561E-23
  -3.74000001      -4.05182153E-23
  -3.73499990      -3.79184832E-23
  -3.73000002      -3.42039234E-23
  -3.72499990      -2.94205012E-23
  -3.72000003      -2.36496303E-23
  -3.71499991      -1.70078979E-23
  -3.71000004      -9.64564131E-24
  -3.70499992      -1.74439885E-24
  -3.70000005       6.48688487E-24
  -3.69499993       1.48167894E-23
  -3.69000006       2.29974364E-23
  -3.68499994       3.07714034E-23
  -3.68000007       3.78794504E-23
  -3.67499995       4.40688341E-23
  -3.67000008       4.91018897E-23
  -3.66499996       5.27647950E-23
  -3.66000009       5.48760045E-23
  -3.65499997       5.52943027E-23
  -3.65000010       5.39258941E-23
  -3.64499998       5.07306351E-23
  -3.64000010       4.57265464E-23
  -3.63499999       3.89930822E-23
  -3.63000011       3.06722846E-23
  -3.62500000       2.09680917E-23
  -3.61999989       1.01434843E-23
  -3.61500001      -1.48450902E-24
  -3.60999990      -1.35518525E-23
  -3.60500002      -2.56566533E-23
  -3.59999990      -3.73701649E-23
  -3.59500003      -4.82491942E-23
  -3.58999991      -5.78501742E-23
  -3.58500004      -6.57437309E-23
  -3.57999992      -7.15300509E-23
  -3.57500005      -7.48539700E-23
  -3.56999993      -7.54199367E-23
  -3.56500006      -7.30056626E-23
  -3.55999994      -6.74741889E-23
  -3.55500007      -5.87842612E-23
  -3.54999995      -4.69979030E-23
  -3.54500008      -3.22851612E-23
  -3.53999996      -1.49258305E-23
  -3.53500009       4.69275169E-24
  -3.52999997       2.60810589E-23
  -3.52500010       4.86567387E-23
  -3.51999998       7.17574196E-23
  -3.51500010       9.46569851E-23
  -3.50999999       1.16584882E-22
  -3.50500011       1.36747915E-22
  -3.50000000       1.54354457E-22
  -3.49499989       1.68639743E-22
  -3.49000001       1.78892020E-22
  -3.48499990       1.84478366E-22
  -3.48000002       1.84869717E-22
  -3.47499990       1.79664068E-22
  -3.47000003       1.68607028E-22
  -3.46499991       1.51608388E-22
  -3.46000004       1.28755365E-22
  -3.45499992       1.00320041E-22
  -3.45000005       6.67620936E-23
  -3.44499993       2.87253033E-23
  -3.44000006      -1.29715168E-23
  -3.43499994      -5.73499038E-23
  -3.43000007      -1.03292986E-22
  -3.42499995      -1.49571713E-22
  -3.42000008      -1.94876853E-22
  -3.41499996      -2.37853983E-22
  -3.41000009      -2.77143244E-22
  -3.40499997      -3.11419667E-22
  -3.40000010      -3.39436069E-22
  -3.39499998      -3.60064112E-22
  -3.39000010      -3.72335532E-22
  -3.38499999      -3.75478555E-22
  -3.38000011      -3.68951583E-22
  -3.37500000      -3.52470449E-22
  -3.36999989      -3.26029523E-22
  -3.36500001      -2.89915092E-22
  -3.35999990      -2.44709878E-22
  -3.35500002      -1.91289770E-22
  -3.34999990      -1.30809976E-22
  -3.34500003      -6.46830791E-23
  -3.33999991       5.45251034E-24
  -3.33500004       7.77721369E-23
  -3.32999992       1.50311993E-22
  -3.32500005       2.21022872E-22
  -3.31999993       2.87828157E-22
  -3.31500006       3.48685810E-22
  -3.30999994       4.01651900E-22
  -3.30500007       4.44942845E-22
  -3.29999995       4.76997103E-22
  -3.29500008       4.96530056E-22
  -3.28999996       5.02585378E-22
  -3.28500009       4.94575549E-22
  -3.27999997       4.72315081E-22
  -3.27500010       4.36041363E-22
  -3.26999998       3.86422972E-22
  -3.26500010       3.24556158E-22
  -3.25999999       2.51947103E-22
  -3.25500011       1.70481058E-22
  -3.25000000       8.23785418E-23
  -3.24499989      -9.86059644E-24
  -3.24000001      -1.03522999E-22
  -3.23499990      -1.95758699E-22
  -3.23000002      -2.83662921E-22
  -3.22499990      -3.64363821E-22
  -3.22000003      -4.35112451E-22
  -3.21499991      -4.93372341E-22
  -3.21000004      -5.36904841E-22
  -3.20499992      -5.63849300E-22
  -3.20000005      -5.72795867E-22
  -3.19499993      -5.62841830E-22
  -3.19000006      -5.33642213E-22
  -3.18499994      -4.85436981E-22
  -3.18000007      -4.19067248E-22
  -3.17499995      -3.35969195E-22
  -3.17000008      -2.38152664E-22
  -3.16499996      -1.28158381E-22
  -3.16000009      -8.99963523E-24
  -3.15499997       1.15914111E-22
  -3.15000010       2.42868437E-22
  -3.14499998       3.67947294E-22
  -3.14000010       4.87146322E-22
  -3.13499999       5.96493602E-22
  -3.13000011       6.92171751E-22
  -3.12500000       7.70642232E-22
  -3.11999989       8.28763736E-22
  -3.11500001       8.63900586E-22
  -3.10999990       8.74024662E-22
  -3.10500002       8.57797200E-22
  -3.09999990       8.14633105E-22
  -3.09500003       7.44746036E-22
  -3.08999991       6.49171234E-22
  -3.08500004       5.29760816E-22
  -3.07999992       3.89154627E-22
  -3.07500005       2.30730152E-22
  -3.06999993       5.85225676E-23
  -3.06500006      -1.22874010E-22
  -3.05999994      -3.08426817E-22
  -3.05500007      -4.92802998E-22
  -3.04999995      -6.70518693E-22
  -3.04500008      -8.36102592E-22
  -3.03999996      -9.84258495E-22
  -3.03500009      -1.11003175E-21
  -3.02999997      -1.20897132E-21
  -3.02500010      -1.27727753E-21
  -3.01999998      -1.31193763E-21
  -3.01500010      -1.31084529E-21
  -3.00999999      -1.27288718E-21
  -3.00500011      -1.19801087E-21
  -3.00000000      -1.08726167E-21
  -2.99499989      -9.42782031E-22
  -2.99000001      -7.67784107E-22
  -2.98499990      -5.66488160E-22
  -2.98000002      -3.44024715E-22
  -2.97499990      -1.06312298E-22
  -2.97000003       1.40095941E-22
  -2.96499991       3.88188354E-22
  -2.96000004       6.30688059E-22
  -2.95499992       8.60262283E-22
  -2.95000005       1.06973850E-21
  -2.94499993       1.25232206E-21
  -2.94000006       1.40180810E-21
  -2.93499994       1.51278308E-21
  -2.93000007       1.58080839E-21
  -2.92499995       1.60257944E-21
  -2.92000008       1.57605866E-21
  -2.91499996       1.50056945E-21
  -2.91000009       1.37685637E-21
  -2.90499997       1.20710754E-21
  -2.90000010       9.94924500E-22
  -2.89499998       7.45264892E-22
  -2.89000010       4.64328678E-22
  -2.88499999       1.59416912E-22
  -2.88000011      -1.61254428E-22
  -2.87500000      -4.88766251E-22
  -2.86999989      -8.13739130E-22
  -2.86500001      -1.12659122E-21
  -2.85999990      -1.41781291E-21
  -2.85500002      -1.67824223E-21
  -2.84999990      -1.89934280E-21
  -2.84500003      -2.07346412E-21
  -2.83999991      -2.19408486E-21
  -2.83500004      -2.25603071E-21
  -2.82999992      -2.25566074E-21
  -2.82500005      -2.19100071E-21
  -2.81999993      -2.06185148E-21
  -2.81500006      -1.86982622E-21
  -2.80999994      -1.61835867E-21
  -2.80500007      -1.31263668E-21
  -2.79999995      -9.59500127E-22
  -2.79500008      -5.67278737E-22
  -2.78999996      -1.45589152E-22
  -2.78500009       2.94912658E-22
  -2.77999997       7.42813794E-22
  -2.77500010       1.18625535E-21
  -2.76999998       1.61325938E-21
  -2.76500010       2.01207201E-21
  -2.75999999       2.37149794E-21
  -2.75500011       2.68123548E-21
  -2.75000000       2.93218180E-21
  -2.74499989       3.11672264E-21
  -2.74000001       3.22896556E-21
  -2.73499990       3.26494145E-21
  -2.73000002       3.22275847E-21
  -2.72499990       3.10267491E-21
  -2.72000003       2.90713697E-21
  -2.71499991       2.64073028E-21
  -2.71000004       2.31009654E-21
  -2.70499992       1.92375008E-21
  -2.70000005       1.49187315E-21
  -2.69499993       1.02603546E-21
  -2.69000006       5.38876009E-22
  -2.68499994       4.37491372E-23
  -2.68000007      -4.45660771E-22
  -2.67499995      -9.15735992E-22
  -2.67000008      -1.35333342E-21
  -2.66499996      -1.74617504E-21
  -2.66000009      -2.08323539E-21
  -2.65499997      -2.35507469E-21
  -2.65000010      -2.55416632E-21
  -2.64499998      -2.67511583E-21
  -2.64000010      -2.71489886E-21
  -2.63499999      -2.67295074E-21
  -2.63000011      -2.55123605E-21
  -2.62500000      -2.35423801E-21
  -2.61999989      -2.08884572E-21
  -2.61500001      -1.76418581E-21
  -2.60999990      -1.39139352E-21
  -2.60500002      -9.83288941E-22
  -2.59999990      -5.54025723E-22
  -2.59500003      -1.18671299E-22
  -2.58999991       3.07237518E-22
  -2.58500004       7.08168588E-22
  -2.57999992       1.06907389E-21
  -2.57500005       1.37587005E-21
  -2.56999993       1.61589197E-21
  -2.56500006       1.77833108E-21
  -2.55999994       1.85459790E-21
  -2.55500007       1.83866438E-21
  -2.54999995       1.72729973E-21
  -2.54500008       1.52025659E-21
  -2.53999996       1.22036262E-21
  -2.53500009       8.33508262E-22
  -2.52999997       3.68571542E-22
  -2.52500010      -1.62772373E-22
  -2.51999998      -7.46321587E-22
  -2.51500010      -1.36568539E-21
  -2.50999999      -2.00272462E-21
  -2.50500011      -2.63802357E-21
  -2.50000000      -3.25143010E-21
  -2.49499989      -3.82262254E-21
  -2.49000001      -4.33170334E-21
  -2.48499990      -4.75978061E-21
  -2.48000002      -5.08955386E-21
  -2.47499990      -5.30584705E-21
  -2.47000003      -5.39611838E-21
  -2.46499991      -5.35087386E-21
  -2.46000004      -5.16405181E-21
  -2.45499992      -4.83326438E-21
  -2.45000005      -4.35998056E-21
  -2.44499993      -3.74958346E-21
  -2.44000006      -3.01134698E-21
  -2.43499994      -2.15825296E-21
  -2.43000007      -1.20676594E-21
  -2.42499995      -1.76450489E-22
  -2.42000008       9.10469279E-22
  -2.41499996       2.02964657E-21
  -2.41000009       3.15521118E-21
  -2.40499997       4.26042242E-21
  -2.40000010       5.31835533E-21
  -2.39499998       6.30261099E-21
  -2.39000010       7.18799919E-21
  -2.38499999       7.95123002E-21
  -2.38000011       8.57154358E-21
  -2.37500000       9.03127506E-21
  -2.36999989       9.31636883E-21
  -2.36500001       9.41676465E-21
  -2.35999990       9.32671748E-21
  -2.35500002       9.04497443E-21
  -2.34999990       8.57485392E-21
  -2.34500003       7.92419640E-21
  -2.33999991       7.10519227E-21
  -2.33500004       6.13410324E-21
  -2.32999992       5.03085150E-21
  -2.32500005       3.81854359E-21
  -2.31999993       2.52288249E-21
  -2.31500006       1.17152524E-21
  -2.30999994      -2.06616719E-22
  -2.30500007      -1.58210278E-21
  -2.29999995      -2.92571703E-21
  -2.29500008      -4.20917802E-21
  -2.28999996      -5.40585472E-21
  -2.28500009      -6.49141699E-21
  -2.27999997      -7.44441710E-21
  -2.27500010      -8.24677987E-21
  -2.26999998      -8.88421382E-21
  -2.26500010      -9.34651650E-21
  -2.25999999      -9.62771105E-21
  -2.25500011      -9.72614555E-21
  -2.25000000      -9.64440572E-21
  -2.24499989      -9.38913488E-21
  -2.24000001      -8.97072770E-21
  -2.23499990      -8.40295222E-21
  -2.23000002      -7.70245141E-21
  -2.22499990      -6.88818984E-21
  -2.22000003      -5.98082279E-21
  -2.21499991      -5.00205608E-21
  -2.21000004      -3.97398407E-21
  -2.20499992      -2.91840326E-21
  -2.20000005      -1.85619996E-21
  -2.19499993      -8.06730965E-22
  -2.19000006       2.12671574E-22
  -2.18499994       1.18718805E-21
  -2.18000007       2.10484165E-21
  -2.17499995       2.95673064E-21
  -2.17000008       3.73719918E-21
  -2.16499996       4.44381337E-21
  -2.16000009       5.07728913E-21
  -2.15499997       5.64125222E-21
  -2.15000010       6.14193924E-21
  -2.14499998       6.58773264E-21
  -2.14000010       6.98869309E-21
  -2.13499999       7.35594109E-21
  -2.13000011       7.70106039E-21
  -2.12500000       8.03543119E-21
  -2.11999989       8.36955965E-21
  -2.11500001       8.71243086E-21
  -2.10999990       9.07090299E-21
  -2.10500002       9.44914263E-21
  -2.09999990       9.84814822E-21
  -2.09500003       1.02653825E-20
  -2.08999991       1.06944727E-20
  -2.08500004       1.11251107E-20
  -2.07999992       1.15429815E-20
  -2.07500005       1.19299324E-20
  -2.06999993       1.22642184E-20
  -2.06500006       1.25208988E-20
  -2.05999994       1.26723634E-20
  -2.05500007       1.26890015E-20
  -2.04999995       1.25399224E-20
  -2.04500008       1.21938297E-20
  -2.03999996       1.16199190E-20
  -2.03500009       1.07888246E-20
  -2.02999997       9.67363573E-21
  -2.02500010       8.25085277E-21
  -2.01999998       6.50134194E-21
  -2.01500010       4.41125969E-21
  -2.00999999       1.97288029E-21
  -2.00500011      -8.14668698E-22
  -2.00000000      -3.94477628E-21
  -1.99500000      -7.40286662E-21
  -1.99000001      -1.11660432E-20
  -1.98500001      -1.52028850E-20
  -1.98000002      -1.94734698E-20
  -1.97500002      -2.39294708E-20
  -1.97000003      -2.85144764E-20
  -1.96500003      -3.31644722E-20
  -1.96000004      -3.78084677E-20
  -1.95500004      -4.23692508E-20
  -1.95000005      -4.67643167E-20
  -1.94500005      -5.09068436E-20
  -1.94000006      -5.47068629E-20
  -1.93499994      -5.80723700E-20
  -1.92999995      -6.09106270E-20
  -1.92499995      -6.31293968E-20
  -1.91999996      -6.46382389E-20
  -1.91499996      -6.53497887E-20
  -1.90999997      -6.51810116E-20
  -1.90499997      -6.40543399E-20
  -1.89999998      -6.18988752E-20
  -1.89499998      -5.86514223E-20
  -1.88999999      -5.42574324E-20
  -1.88499999      -4.86718824E-20
  -1.88000000      -4.18600597E-20
  -1.87500000      -3.37982186E-20
  -1.87000000      -2.44740577E-20
  -1.86500001      -1.38872445E-20
  -1.86000001      -2.04974346E-21
  -1.85500002       1.10139995E-20
  -1.85000002       2.52667973E-20
  -1.84500003       4.06587576E-20
  -1.84000003       5.71271675E-20
  -1.83500004       7.45967051E-20
  -1.83000004       9.29793014E-20
  -1.82500005       1.12174428E-19
  -1.82000005       1.32069298E-19
  -1.81500006       1.52538865E-19
  -1.80999994       1.73446178E-19
  -1.80499995       1.94642371E-19
  -1.79999995       2.15967074E-19
  -1.79499996       2.37248324E-19
  -1.78999996       2.58302811E-19
  -1.78499997       2.78936082E-19
  -1.77999997       2.98942479E-19
  -1.77499998       3.18105333E-19
  -1.76999998       3.36196962E-19
  -1.76499999       3.52978854E-19
  -1.75999999       3.68201588E-19
  -1.75500000       3.81604835E-19
  -1.75000000       3.92917770E-19
  -1.74500000       4.01858688E-19
  -1.74000001       4.08135309E-19
  -1.73500001       4.11445091E-19
  -1.73000002       4.11474895E-19
  -1.72500002       4.07901656E-19
  -1.72000003       4.00392355E-19