  -6.00000000       0.00000000    
  -5.99499989       0.00000000    
  -5.98999977       0.00000000    
  -5.98500013       0.00000000    
  -5.98000002       0.00000000    
  -5.97499990       0.00000000    
  -5.96999979       0.00000000    
  -5.96500015       0.00000000    
  -5.96000004       0.00000000    
  -5.95499992       0.00000000    
  -5.94999981       0.00000000    
  -5.94500017       0.00000000    
  -5.94000006       0.00000000    
  -5.93499994       0.00000000    
  -5.92999983       0.00000000    
  -5.92500019       0.00000000    
  -5.92000008       0.00000000    
  -5.91499996       0.00000000    
  -5.90999985       0.00000000    
  -5.90500021       0.00000000    
  -5.90000010       0.00000000    
  -5.89499998       0.00000000    
  -5.88999987       0.00000000    
  -5.88500023       0.00000000    
  -5.88000011       0.00000000    
  -5.87500000       0.00000000    
  -5.86999989       0.00000000    
  -5.86499977       0.00000000    
  -5.86000013       0.00000000    
  -5.85500002       0.00000000    
  -5.84999990       0.00000000    
  -5.84499979       0.00000000    
  -5.84000015       0.00000000    
  -5.83500004       0.00000000    
  -5.82999992       0.00000000    
  -5.82499981       0.00000000    
  -5.82000017       0.00000000    
  -5.81500006       0.00000000    
  -5.80999994       0.00000000    
  -5.80499983       0.00000000    
  -5.80000019       0.00000000    
  -5.79500008       0.00000000    
  -5.78999996       0.00000000    
  -5.78499985       0.00000000    
  -5.78000021       0.00000000    
  -5.77500010       0.00000000    
  -5.76999998       0.00000000    
  -5.76499987       0.00000000    
  -5.76000023       0.00000000    
  -5.75500011       0.00000000    
  -5.75000000       0.00000000    
  -5.74499989       0.00000000    
  -5.73999977       0.00000000    
  -5.73500013       0.00000000    
  -5.73000002       0.00000000    
  -5.72499990       0.00000000    
  -5.71999979       0.00000000    
  -5.71500015       0.00000000    
  -5.71000004       0.00000000    
  -5.70499992       0.00000000    
  -5.69999981       0.00000000    
  -5.69500017       0.00000000    
  -5.69000006       0.00000000    
  -5.68499994       0.00000000    
  -5.67999983       0.00000000    
  -5.67500019       0.00000000    
  -5.67000008       0.00000000    
  -5.66499996       0.00000000    
  -5.65999985       0.00000000    
  -5.65500021       0.00000000    
  -5.65000010       0.00000000    
  -5.64499998       0.00000000    
  -5.63999987       0.00000000    
  -5.63500023       0.00000000    
  -5.63000011       0.00000000    
  -5.62500000       0.00000000    
  -5.61999989       0.00000000    
  -5.61499977       0.00000000    
  -5.61000013       0.00000000    
  -5.60500002       0.00000000    
  -5.59999990       0.00000000    
  -5.59499979       0.00000000    
  -5.59000015       0.00000000    
  -5.58500004       0.00000000    
  -5.57999992       0.00000000    
  -5.57499981       0.00000000    
  -5.57000017       0.00000000    
  -5.56500006       0.00000000    
  -5.55999994       0.00000000    
  -5.55499983       0.00000000    
  -5.55000019       0.00000000    
  -5.54500008       0.00000000    
  -5.53999996       0.00000000    
  -5.53499985       0.00000000    
  -5.53000021       0.00000000    
  -5.52500010       0.00000000    
  -5.51999998       0.00000000    
  -5.51499987       0.00000000    
  -5.51000023       0.00000000    
  -5.50500011       0.00000000    
  -5.50000000       0.00000000    
  -5.49499989       0.00000000    
  -5.48999977       0.00000000    
  -5.48500013       0.00000000    
  -5.48000002       0.00000000    
  -5.47499990       0.00000000    
  -5.46999979       0.00000000    
  -5.46500015       0.00000000    
  -5.46000004       0.00000000    
  -5.45499992       0.00000000    
  -5.44999981       0.00000000    
  -5.44500017       0.00000000    
  -5.44000006       0.00000000    
  -5.43499994       0.00000000    
  -5.42999983       0.00000000    
  -5.42500019       0.00000000    
  -5.42000008       0.00000000    
  -5.41499996       0.00000000    
  -5.40999985       0.00000000    
  -5.40500021       0.00000000    
  -5.40000010       0.00000000    
  -5.39499998       0.00000000    
  -5.38999987       0.00000000    
  -5.38500023       0.00000000    
  -5.38000011       0.00000000    
  -5.37500000       0.00000000    
  -5.36999989       0.00000000    
  -5.36499977       0.00000000    
  -5.36000013       0.00000000    
  -5.35500002       0.00000000    
  -5.34999990       0.00000000    
  -5.34499979       0.00000000    
  -5.34000015       0.00000000    
  -5.33500004       0.00000000    
  -5.32999992       0.00000000    
  -5.32499981       0.00000000    
  -5.32000017       0.00000000    
  -5.31500006       0.00000000    
  -5.30999994       0.00000000    
  -5.30499983       0.00000000    
  -5.30000019       0.00000000    
  -5.29500008       0.00000000    
  -5.28999996       0.00000000    
  -5.28499985       0.00000000    
  -5.28000021       0.00000000    
  -5.27500010       0.00000000    
  -5.26999998       0.00000000    
  -5.26499987       0.00000000    
  -5.26000023       0.00000000    
  -5.25500011       0.00000000    
  -5.25000000       0.00000000    
  -5.24499989       0.00000000    
  -5.23999977       0.00000000    
  -5.23500013       0.00000000    
  -5.23000002       0.00000000    
  -5.22499990       0.00000000    
  -5.21999979       0.00000000    
  -5.21500015       0.00000000    
  -5.21000004       0.00000000    
  -5.20499992       0.00000000    
  -5.19999981       0.00000000    
  -5.19500017       0.00000000    
  -5.19000006       0.00000000    
  -5.18499994       0.00000000    
  -5.17999983       0.00000000    
  -5.17500019       0.00000000    
  -5.17000008       0.00000000    
  -5.16499996       0.00000000    
  -5.15999985       0.00000000    
  -5.15500021       0.00000000    
  -5.15000010       0.00000000    
  -5.14499998       0.00000000    
  -5.13999987       0.00000000    
  -5.13500023       0.00000000    
  -5.13000011       0.00000000    
  -5.12500000       0.00000000    
  -5.11999989       0.00000000    
  -5.11499977       0.00000000    
  -5.11000013       0.00000000    
  -5.10500002       0.00000000    
  -5.09999990       0.00000000    
  -5.09499979       0.00000000    
  -5.09000015       0.00000000    
  -5.08500004       0.00000000    
  -5.07999992       0.00000000    
  -5.07499981       0.00000000    
  -5.07000017       0.00000000    
  -5.06500006       0.00000000    
  -5.05999994       0.00000000    
  -5.05499983       0.00000000    
  -5.05000019       0.00000000    
  -5.04500008       0.00000000    
  -5.03999996       0.00000000    
  -5.03499985       0.00000000    
  -5.03000021       0.00000000    
  -5.02500010       0.00000000    
  -5.01999998       0.00000000    
  -5.01499987       0.00000000    
  -5.01000023       0.00000000    
  -5.00500011       0.00000000    
  -5.00000000       0.00000000    
  -4.99499989       0.00000000    
  -4.98999977       0.00000000    
  -4.98500013       0.00000000    
  -4.98000002       0.00000000    
  -4.97499990       0.00000000    
  -4.96999979       0.00000000    
  -4.96500015       0.00000000    
  -4.96000004       0.00000000    
  -4.95499992       0.00000000    
  -4.94999981       0.00000000    
  -4.94500017       0.00000000    
  -4.94000006       0.00000000    
  -4.93499994       0.00000000    
  -4.92999983       0.00000000    
  -4.92500019       0.00000000    
  -4.92000008       0.00000000    
  -4.91499996       0.00000000    
  -4.90999985       0.00000000    
  -4.90500021       0.00000000    
  -4.90000010       0.00000000    
  -4.89499998       0.00000000    
  -4.88999987       0.00000000    
  -4.88500023       0.00000000    
  -4.88000011       0.00000000    
  -4.87500000      -0.00000000    
  -4.86999989      -0.00000000    
  -4.86499977      -0.00000000    
  -4.86000013      -0.00000000    
  -4.85500002      -0.00000000    
  -4.84999990      -0.00000000    
  -4.84499979      -0.00000000    
  -4.84000015      -0.00000000    
  -4.83500004      -0.00000000    
  -4.82999992      -0.00000000    
  -4.82499981      -0.00000000    
  -4.82000017      -0.00000000    
  -4.81500006      -0.00000000    
  -4.80999994      -0.00000000    
  -4.80499983      -0.00000000    
  -4.80000019      -0.00000000    
  -4.79500008      -0.00000000    
  -4.78999996      -0.00000000    
  -4.78499985      -0.00000000    
  -4.78000021       0.00000000    
  -4.77500010       0.00000000    
  -4.76999998       0.00000000    
  -4.76499987       1.51825742E-38
  -4.76000023       2.19792893E-38
  -4.75500011       2.94150428E-38
  -4.75000000       3.79189403E-38
  -4.74499989       4.70220890E-38
  -4.73999977       5.63491260E-38
  -4.73500013       6.89754753E-38
  -4.73000002       7.76732340E-38
  -4.72499990       8.46800010E-38
  -4.71999979       8.91619420E-38
  -4.71500015       9.02529650E-38
  -4.71000004       8.41694126E-38
  -4.70499992       7.79696535E-38
  -4.69999981       6.55410778E-38
  -4.69500017       4.40376540E-38
  -4.69000006       1.78601837E-38
  -4.68499994      -1.68321281E-38
  -4.67999983      -5.91806289E-38
  -4.67500019      -1.00577547E-37
  -4.67000008      -1.56207515E-37
  -4.66499996      -2.19982335E-37
  -4.65999985      -2.83979546E-37
  -4.65500021      -3.49298193E-37
  -4.65000010      -4.13228971E-37
  -4.64499998      -4.71819300E-37
  -4.63999987      -5.23603220E-37
  -4.63500023      -5.66030592E-37
  -4.63000011      -5.91574043E-37
  -4.62500000      -5.94478655E-37
  -4.61999989      -5.82252112E-37
  -4.61499977      -5.44419206E-37
  -4.61000013      -4.78192675E-37
  -4.60500002      -3.83060787E-37
  -4.59999990      -2.58055592E-37
  -4.59499979      -1.03055222E-37
  -4.59000015       8.07474362E-38
  -4.58500004       2.90108870E-37
  -4.57999992       5.20288488E-37
  -4.57499981       7.65425902E-37
  -4.57000017       1.01781514E-36
  -4.56500006       1.26745334E-36
  -4.55999994       1.50265983E-36
  -4.55499983       1.71082480E-36
  -4.55000019       1.87856628E-36
  -4.54500008       1.99215190E-36
  -4.53999996       2.03784455E-36
  -4.53499985       2.00226583E-36
  -4.53000021       1.87276827E-36
  -4.52500010       1.63793056E-36
  -4.51999998       1.29067364E-36
  -4.51499987       8.24727328E-37
  -4.51000023       2.38907465E-37
  -4.50500011      -4.64376993E-37
  -4.50000000      -1.27740467E-36
  -4.49499989      -2.18635725E-36
  -4.48999977      -3.17093153E-36
  -4.48500013      -4.20392302E-36
  -4.48000002      -5.25119887E-36
  -4.47499990      -6.27175956E-36
  -4.46999979      -7.21843286E-36
  -4.46500015      -8.03907342E-36
  -4.46000004      -8.67773764E-36
  -4.45499992      -9.07615159E-36
  -4.44999981      -9.17551975E-36
  -4.44500017      -8.92001546E-36
  -4.44000006      -8.26001456E-36
  -4.43499994      -7.15448666E-36
  -4.42999983      -5.57476940E-36
  -4.42500019      -3.50764350E-36
  -4.42000008      -9.58530301E-37
  -4.41499996       2.04532860E-36
  -4.40999985       5.45261205E-36
  -4.40500021       9.18605787E-36
  -4.40000010       1.31419092E-35
  -4.39499998       1.71900006E-35
  -4.38999987       2.11748533E-35
  -4.38500023       2.49192032E-35
  -4.38000011       2.82277807E-35
  -4.37500000       3.08937020E-35
  -4.36999989       3.27060755E-35
  -4.36499977       3.34580705E-35
  -4.36000013       3.29574924E-35
  -4.35500002       3.10376283E-35
  -4.34999990       2.75685367E-35
  -4.34499979       2.24687695E-35
  -4.34000015       1.57167067E-35
  -4.33500004       7.36076712E-36
  -4.32999992      -2.47194430E-36
  -4.32499981      -1.35690791E-35
  -4.32000017      -2.56297947E-35
  -4.31500006      -3.82648063E-35
  -4.30999994      -5.10010896E-35
  -4.30499983      -6.32906190E-35
  -4.30000019      -7.45244420E-35
  -4.29500008      -8.40514277E-35
  -4.28999996      -9.12024970E-35
  -4.28499985      -9.53182139E-35
  -4.28000021      -9.57823906E-35
  -4.27500010      -9.20576634E-35
  -4.26999998      -8.37214799E-35
  -4.26499987      -7.05045498E-35
  -4.26000023      -5.23260520E-35
  -4.25500011      -2.93262422E-35
  -4.25000000      -1.89372936E-36
  -4.24499989       2.93153712E-35
  -4.23999977       6.33683520E-35
  -4.23500013       9.90585990E-35
  -4.23000002       1.34921749E-34
  -4.22499990       1.69266859E-34
  -4.21999979       2.00225052E-34
  -4.21500015       2.25812970E-34
  -4.21000004       2.44009393E-34
  -4.20499992       2.52849225E-34
  -4.19999981       2.50530425E-34
  -4.19500017       2.35526915E-34
  -4.19000006       2.06705034E-34
  -4.18499994       1.63441515E-34
  -4.17999983       1.05734856E-34
  -4.17500019       3.43025495E-35
  -4.17000008      -4.93413237E-35
  -4.16499996      -1.42835501E-34
  -4.15999985      -2.42954731E-34
  -4.15500021      -3.45632831E-34
  -4.15000010      -4.46032286E-34
  -4.14499998      -5.38663031E-34
  -4.13999987      -6.17548620E-34
  -4.13500023      -6.76448372E-34
  -4.13000011      -7.09129962E-34
  -4.12500000      -7.09680011E-34
  -4.11999989      -6.72853104E-34
  -4.11499977      -5.94442672E-34
  -4.11000013      -4.71662103E-34
  -4.10500002      -3.03516544E-34
  -4.09999990      -9.11460240E-35
  -4.09499979       1.61877212E-34
  -4.09000015       4.49328307E-34
  -4.08500004       7.62202751E-34
  -4.07999992       1.08870384E-33
  -4.07499981       1.41436693E-33
  -4.07000017       1.72234020E-33
  -4.06500006       1.99382282E-33
  -4.05999994       2.20867858E-33
  -4.05499983       2.34620756E-33
  -4.05000019       2.38608455E-33
  -4.04500008       2.30942634E-33
  -4.03999996       2.09996501E-33
  -4.03499985       1.74529503E-33
  -4.03000021       1.23812891E-33
  -4.02500010       5.77519227E-34
  -4.01999998      -2.30031089E-34
  -4.01499987      -1.16963341E-33
  -4.01000023      -2.21733077E-33
  -4.00500011      -3.33974439E-33
  -4.00000000      -4.49411106E-33
  -3.99499989      -5.62878490E-33
  -3.99000001      -6.68425320E-33
  -3.98499990      -7.59469047E-33
  -3.98000002      -8.29007693E-33
  -3.97499990      -8.69887493E-33
  -3.97000003      -8.75121234E-33
  -3.96499991      -8.38250679E-33
  -3.96000004      -7.53746961E-33
  -3.95499992      -6.17427893E-33
  -3.95000005      -4.26884447E-33
  -3.94499993      -1.81891771E-33
  -3.94000006       1.15214912E-33
  -3.93499994       4.59222443E-33
  -3.93000007       8.41806769E-33
  -3.92499995       1.25140469E-32
  -3.92000008       1.67321791E-32
  -3.91499996       2.08937009E-32
  -3.91000009       2.47922661E-32
  -3.90499997       2.81990280E-32
  -3.90000010       3.08695131E-32
  -3.89499998       3.25523949E-32
  -3.89000010       3.29999820E-32
  -3.88499999       3.19801849E-32
  -3.88000011       2.92897839E-32
  -3.87500000       2.47685065E-32
  -3.86999989       1.83133130E-32
  -3.86500001       9.89248438E-33
  -3.85999990      -4.41293987E-34
  -3.85500002      -1.25396301E-32
  -3.84999990      -2.61496124E-32
  -3.84500003      -4.09082672E-32
  -3.83999991      -5.63411269E-32
  -3.83500004      -7.18655222E-32
  -3.82999992      -8.67993022E-32
  -3.82500005      -1.00375263E-31
  -3.81999993      -1.11761665E-31
  -3.81500006      -1.20088985E-31
  -3.80999994      -1.24482101E-31
  -3.80500007      -1.24098196E-31
  -3.79999995      -1.18168979E-31
  -3.79500008      -1.06045895E-31
  -3.78999996      -8.72475006E-32
  -3.78500009      -6.15066252E-32
  -3.77999997      -2.88153544E-32
  -3.77500010       1.05342103E-32
  -3.76999998       5.59160916E-32
  -3.76500010       1.06345822E-31
  -3.75999999       1.60467557E-31
  -3.75500011       2.16555235E-31
  -3.75000000       2.72530066E-31
  -3.74499989       3.25995005E-31
  -3.74000001       3.74289203E-31
  -3.73499990       4.14560746E-31
  -3.73000002       4.43858391E-31
  -3.72499990       4.59242274E-31
  -3.72000003       4.57909310E-31
  -3.71499991       4.37330824E-31
  -3.71000004       3.95400988E-31
  -3.70499992       3.30586486E-31
  -3.70000005       2.42075876E-31
  -3.69499993       1.29919338E-31
  -3.69000006      -4.84717777E-33
  -3.68499994      -1.60100814E-31
  -3.68000007      -3.32561810E-31
  -3.67499995      -5.17761204E-31
  -3.67000008      -7.10053178E-31
  -3.66499996      -9.02679980E-31
  -3.66000009      -1.08788626E-30
  -3.65499997      -1.25709990E-30
  -3.65000010      -1.40116143E-30
  -3.64499998      -1.51061773E-30
  -3.64000010      -1.57606521E-30
  -3.63499999      -1.58853937E-30
  -3.63000011      -1.53993775E-30
  -3.62500000      -1.42347297E-30
  -3.61999989      -1.23412453E-30
  -3.61500001      -9.69089674E-31
  -3.60999990      -6.28200356E-31
  -3.60500002      -2.14291797E-31
  -3.59999990       2.66501120E-31
  -3.59500003       8.04539273E-31
  -3.58999991       1.38659151E-30
  -3.58500004       1.99587712E-30
  -3.57999992       2.61225558E-30
  -3.57500005       3.21258280E-30
  -3.56999993       3.77122624E-30
  -3.56500006       4.26075174E-30
  -3.55999994       4.65277666E-30
  -3.55500007       4.91896463E-30
  -3.54999995       5.03215214E-30
  -3.54500008       4.96757744E-30
  -3.53999996       4.70416326E-30
  -3.53500009       4.22583712E-30
  -3.52999997       3.52280122E-30
  -3.52500010       2.59272977E-30
  -3.51999998       1.44182611E-30
  -3.51500010       8.56617175E-32
  -3.50999999      -1.45022713E-30
  -3.50500011      -3.13007758E-30
  -3.50000000      -4.90799699E-30
  -3.49499989      -6.72847324E-30
  -3.49000001      -8.52733093E-30
  -3.48499990      -1.02331354E-29
  -3.48000002      -1.17690675E-29
  -3.47499990      -1.30552231E-29
  -3.47000003      -1.40113450E-29
  -3.46499991      -1.45598694E-29
  -3.46000004      -1.46292676E-29
  -3.45499992      -1.41575396E-29
  -3.45000005      -1.30957820E-29
  -3.44499993      -1.14116570E-29
  -3.44000006      -9.09263651E-30
  -3.43499994      -6.14890374E-30
  -3.43000007      -2.61566715E-30
  -3.42499995       1.44516790E-30
  -3.42000008       5.94419168E-30
  -3.41499996       1.07646499E-29
  -3.41000009       1.57636403E-29
  -3.40499997       2.07745203E-29
  -3.40000010       2.56104597E-29
  -3.39499998       3.00691861E-29
  -3.39000010       3.39389060E-29
  -3.38499999       3.70053055E-29
  -3.38000011       3.90593248E-29
  -3.37500000       3.99057921E-29
  -3.36999989       3.93724208E-29
  -3.36500001       3.73189913E-29
  -3.35999990       3.36463512E-29
  -3.35500002       2.83048116E-29
  -3.34999990       2.13017406E-29
  -3.34500003       1.27077056E-29
  -3.33999991       2.66096807E-30
  -3.33500004      -8.63012217E-30
  -3.32999992      -2.08871361E-29
  -3.32500005      -3.37641309E-29
  -3.31999993      -4.68533586E-29
  -3.31500006      -5.96935246E-29
  -3.30999994      -7.17813410E-29
  -3.30500007      -8.25858621E-29
  -3.29999995      -9.15652758E-29
  -3.29500008      -9.81861234E-29
  -3.28999996      -1.01944251E-28
  -3.28500009      -1.02386793E-28
  -3.27999997      -9.91349629E-29
  -3.27500010      -9.19059788E-29
  -3.26999998      -8.05341088E-29
  -3.26500010      -6.49895430E-29
  -3.25999999      -4.53939642E-29
  -3.25500011      -2.20322037E-29
  -3.25000000       4.64096304E-30
  -3.24499989       3.39998015E-29
  -3.24000001       6.52528417E-29
  -3.23499990       9.74548418E-29
  -3.23000002       1.29525927E-28
  -3.22499990       1.60277515E-28
  -3.22000003       1.88445252E-28
  -3.21499991       2.12728086E-28
  -3.21000004       2.31832806E-28
  -3.20499992       2.44522879E-28
  -3.20000005       2.49670071E-28
  -3.19499993       2.46307494E-28
  -3.19000006       2.33682084E-28
  -3.18499994       2.11304078E-28
  -3.18000007       1.78992282E-28
  -3.17499995       1.36911892E-28
  -3.17000008       8.56036680E-29
  -3.16499996       2.60016702E-29
  -3.16000009      -4.05615411E-29
  -3.15499997      -1.12363821E-28
  -3.15000010      -1.87318258E-28
  -3.14499998      -2.63014286E-28
  -3.14000010      -3.36772973E-28
  -3.13499999      -4.05719724E-28
  -3.13000011      -4.66871756E-28
  -3.12500000      -5.17235257E-28
  -3.11999989      -5.53916037E-28
  -3.11500001      -5.74234454E-28
  -3.10999990      -5.75846072E-28
  -3.10500002      -5.56859340E-28
  -3.09999990      -5.15949699E-28
  -3.09500003      -4.52462959E-28
  -3.08999991      -3.66504348E-28
  -3.08500004      -2.59007485E-28
  -3.07999992      -1.31780493E-28
  -3.07500005       1.24766406E-29
  -3.06999993       1.70185257E-28
  -3.06500006       3.36935064E-28
  -3.05999994       5.07565548E-28
  -3.05500007       6.76283944E-28
  -3.04999995       8.36816176E-28
  -3.04500008       9.82590295E-28
  -3.03999996       1.10694653E-27
  -3.03500009       1.20337447E-27
  -3.02999997       1.26576103E-27
  -3.02500010       1.28865003E-27
  -3.01999998       1.26750390E-27
  -3.01500010       1.19895090E-27
  -3.00999999       1.08101687E-27
  -3.00500011       9.13325283E-28
  -3.00000000       6.97258477E-28
  -2.99499989       4.36068384E-28
  -2.99000001       1.34930435E-28
  -2.98499990      -1.99067766E-28
  -2.98000002      -5.57009273E-28
  -2.97499990      -9.28303241E-28
  -2.97000003      -1.30091387E-27
  -2.96499991      -1.66166578E-27
  -2.96000004      -1.99661581E-27
  -2.95499992      -2.29148397E-27
  -2.95000005      -2.53213642E-27
  -2.94499993      -2.70511267E-27
  -2.94000006      -2.79815511E-27
  -2.93499994      -2.80076879E-27
  -2.93000007      -2.70474385E-27
  -2.92499995      -2.50465456E-27
  -2.92000008      -2.19829476E-27
  -2.91499996      -1.78704112E-27
  -2.91000009      -1.27611271E-27
  -2.90499997      -6.74720571E-28
  -2.90000010       3.91768795E-30
  -2.89499998       7.42699350E-28
  -2.89000010       1.52091805E-27
  -2.88499999       2.31468276E-27
  -2.88000011       3.09750260E-27
  -2.87500000       3.84100458E-27
  -2.86999989       4.51577647E-27
  -2.86500001       5.09232517E-27
  -2.85999990       5.54211533E-27
  -2.85500002       5.83865577E-27
  -2.84999990       5.95860654E-27
  -2.84500003       5.88287435E-27
  -2.83999991       5.59762486E-27
  -2.83500004       5.09520868E-27
  -2.82999992       4.37494978E-27
  -2.82500005       3.44372413E-27
  -2.81999993       2.31634811E-27
  -2.81500006       1.01569270E-27
  -2.80999994      -4.27466459E-28
  -2.80500007      -1.97488574E-27
  -2.79999995      -3.58161147E-27
  -2.79500008      -5.19700178E-27
  -2.78999996      -6.76606075E-27
  -2.78500009      -8.23101474E-27
  -2.77999997      -9.53312134E-27
  -2.77500010      -1.06146389E-26
  -2.76999998      -1.14209387E-26
  -2.76500010      -1.19026484E-26
  -2.75999999      -1.20177682E-26
  -2.75500011      -1.17337528E-26
  -2.75000000      -1.10293355E-26
  -2.74499989      -9.89615837E-27
  -2.74000001      -8.34005088E-27
  -2.73499990      -6.38190244E-27
  -2.73000002      -4.05808885E-27
  -2.72499990      -1.42036659E-27
  -2.72000003       1.46475446E-27
  -2.71499991       4.51723017E-27
  -2.71000004       7.64523391E-27
  -2.70499992       1.07474849E-26
  -2.70000005       1.37160678E-26
  -2.69499993       1.64396579E-26
  -2.69000006       1.88071897E-26
  -2.68499994       2.07116864E-26
  -2.68000007       2.20542721E-26
  -2.67499995       2.27482248E-26
  -2.67000008       2.27228179E-26
  -2.66499996       2.19269713E-26
  -2.66000009       2.03324369E-26
  -2.65499997       1.79363766E-26
  -2.65000010       1.47633454E-26
  -2.64499998       1.08663363E-26
  -2.64000010       6.32700651E-27
  -2.63499999       1.25487577E-27
  -2.63000011      -4.21449748E-27
  -2.62500000      -9.92235718E-27
  -2.61999989      -1.56906098E-26
  -2.61500001      -2.13266219E-26
  -2.60999990      -2.66288966E-26
  -2.60500002      -3.13933545E-26
  -2.59999990      -3.54202337E-26
  -2.59500003      -3.85212767E-26
  -2.58999991      -4.05270264E-26
  -2.58500004      -4.12939132E-26
  -2.57999992      -4.07110436E-26
  -2.57500005      -3.87061937E-26
  -2.56999993      -3.52509675E-26
  -2.56500006      -3.03647261E-26
  -2.55999994      -2.41171311E-26
  -2.55500007      -1.66291571E-26
  -2.54999995      -8.07239130E-27
  -2.54500008       1.33351293E-27
  -2.53999996       1.13251460E-26
  -2.53500009       2.16014644E-26
  -2.52999997       3.18316992E-26
  -2.52500010       4.16646347E-26
  -2.51999998       5.07394287E-26
  -2.51500010       5.86971863E-26
  -2.50999999       6.51935545E-26
  -2.50500011       6.99113556E-26
  -2.50000000       7.25732866E-26
  -2.49499989       7.29538750E-26
  -2.49000001       7.08906093E-26
  -2.48499990       6.62936395E-26
  -2.48000002       5.91532958E-26
  -2.47499990       4.95458328E-26
  -2.47000003       3.76360176E-26
  -2.46499991       2.36773519E-26
  -2.46000004       8.00900818E-27
  -2.45499992      -8.95032647E-27
  -2.45000005      -2.67116561E-26
  -2.44499993      -4.47279696E-26
  -2.44000006      -6.24090604E-26
  -2.43499994      -7.91390129E-26
  -2.43000007      -9.42953482E-26
  -2.42499995      -1.07269811E-25
  -2.42000008      -1.17490010E-25
  -2.41499996      -1.24440552E-25
  -2.41000009      -1.27684447E-25
  -2.40499997      -1.26882348E-25
  -2.40000010      -1.21810009E-25
  -2.39499998      -1.12372842E-25
  -2.39000010      -9.86167775E-26
  -2.38499999      -8.07353592E-26
  -2.38000011      -5.90717103E-26
  -2.37500000      -3.41161141E-26
  -2.36999989      -6.49811228E-27
  -2.36500001       2.30265694E-26
  -2.35999990       5.35936383E-26
  -2.35500002       8.42533337E-26
  -2.34999990       1.13997279E-25
  -2.34500003       1.41788540E-25
  -2.33999991       1.66594974E-25
  -2.33500004       1.87424156E-25
  -2.32999992       2.03358493E-25
  -2.32500005       2.13590253E-25
  -2.31999993       2.17455203E-25
  -2.31500006       2.14461796E-25
  -2.30999994       2.04318265E-25
  -2.30500007       1.86952713E-25
  -2.29999995       1.62528002E-25
  -2.29500008       1.31449064E-25
  -2.28999996       9.43627834E-26
  -2.28500009       5.21494929E-26
  -2.27999997       5.90642886E-27
  -2.27500010      -4.30772227E-26
  -2.26999998      -9.33523512E-26
  -2.26500010      -1.43350472E-25
  -2.25999999      -1.91428118E-25
  -2.25500011      -2.35918567E-25
  -2.25000000      -2.75185375E-25
  -2.24499989      -3.07677496E-25
  -2.24000001      -3.31986269E-25
  -2.23499990      -3.46898280E-25
  -2.23000002      -3.51446235E-25
  -2.22499990      -3.44952554E-25
  -2.22000003      -3.27067278E-25
  -2.21499991      -2.97795263E-25
  -2.21000004      -2.57514669E-25
  -2.20499992      -2.06982015E-25
  -2.20000005      -1.47326504E-25
  -2.19499993      -8.00306106E-26
  -2.19000006      -6.89903081E-27
  -2.18499994       6.99861002E-26
  -2.18000007       1.48319409E-25
  -2.17499995       2.25638821E-25
  -2.17000008       2.99397587E-25
  -2.16499996       3.67046083E-25
  -2.16000009       4.26113325E-25
  -2.15499997       4.74294977E-25
  -2.15000010       5.09533345E-25
  -2.14499998       5.30099836E-25
  -2.14000010       5.34664579E-25
  -2.13499999       5.22359385E-25
  -2.13000011       4.92826750E-25
  -2.12500000       4.46255163E-25
  -2.11999989       3.83396532E-25
  -2.11500001       3.05566948E-25
  -2.10999990       2.14628591E-25
  -2.10500002       1.12951582E-25
  -2.09999990       3.35860265E-27
  -2.09500003      -1.10947567E-25
  -2.08999991      -2.26474915E-25
  -2.08500004      -3.39542497E-25
  -2.07999992      -4.46395432E-25
  -2.07500005      -5.43323807E-25
  -2.06999993      -6.26787904E-25
  -2.06500006      -6.93540574E-25
  -2.05999994      -7.40746997E-25
  -2.05500007      -7.66094379E-25
  -2.04999995      -7.67891010E-25
  -2.04500008      -7.45145488E-25
  -2.03999996      -6.97627662E-25
  -2.03500009      -6.25908570E-25
  -2.02999997      -5.31372515E-25
  -2.02500010      -4.16202964E-25
  -2.01999998      -2.83344342E-25
  -2.01500010      -1.36432150E-25
  -2.00999999       2.02979057E-26
  -2.00500011       1.82126622E-25
  -2.00000000       3.43990440E-25
  -1.99500000       5.00630704E-25
  -1.99000001       6.46767039E-25
  -1.98500001       7.77263220E-25
  -1.98000002       8.87308380E-25
  -1.97500002       9.72583257E-25
  -1.97000003       1.02942581E-24
  -1.96500003       1.05497406E-24
  -1.96000004       1.04728937E-24
  -1.95500004       1.00545726E-24
  -1.95000005       9.29651771E-25
  -1.94500005       8.21172056E-25
  -1.94000006       6.82437357E-25
  -1.93499994       5.16948144E-25
  -1.92999995       3.29207482E-25
  -1.92499995       1.24606903E-25
  -1.91999996      -9.07188932E-26
  -1.91499996      -3.10073981E-25
  -1.90999997      -5.26400818E-25
  -1.90499997      -7.32504140E-25
  -1.89999998      -9.21284619E-25
  -1.89499998      -1.08598014E-24
  -1.88999999      -1.22040145E-24
  -1.88499999      -1.31915470E-24
  -1.88000000      -1.37785394E-24
  -1.87500000      -1.39329688E-24
  -1.87000000      -1.36361224E-24
  -1.86500001      -1.28836556E-24
  -1.86000001      -1.16862140E-24
  -1.85500002      -1.00695817E-24
  -1.85000002      -8.07428127E-25
  -1.84500003      -5.75471171E-25
  -1.84000003      -3.17777455E-25
  -1.83500004      -4.21020180E-26
  -1.83000004       2.42962503E-25
  -1.82500005       5.28243547E-25
  -1.82000005       8.04282643E-25
  -1.81500006       1.06164772E-24
  -1.80999994       1.29124027E-24
  -1.80499995       1.48462321E-24
  -1.79999995       1.63432081E-24
  -1.79499996       1.73409771E-24
  -1.78999996       1.77921503E-24
  -1.78499997       1.76662994E-24
  -1.77999997       1.69514928E-24
  -1.77499998       1.56552829E-24
  -1.76999998       1.38050323E-24
  -1.76499999       1.14475560E-24
  -1.75999999       8.64813222E-25
  -1.75500000       5.48879212E-25
  -1.75000000       2.06606973E-25
  -1.74500000      -1.51190530E-25
  -1.74000001      -5.12873480E-25
  -1.73500001      -8.66349923E-25
  -1.73000002      -1.19947405E-24
  -1.72500002      -1.50046334E-24
  -1.72000003      -1.75830686E-24