  -6.00000000       0.00000000    
  -5.99499989       0.00000000    
  -5.98999977       0.00000000    
  -5.98500013       0.00000000    
  -5.98000002       0.00000000    
  -5.97499990       0.00000000    
  -5.96999979       0.00000000    
  -5.96500015       0.00000000    
  -5.96000004       0.00000000    
  -5.95499992       0.00000000    
  -5.94999981       0.00000000    
  -5.94500017       0.00000000    
  -5.94000006       0.00000000    
  -5.93499994       0.00000000    
  -5.92999983       0.00000000    
  -5.92500019       0.00000000    
  -5.92000008       0.00000000    
  -5.91499996       0.00000000    
  -5.90999985       0.00000000    
  -5.90500021       0.00000000    
  -5.90000010       0.00000000    
  -5.89499998       0.00000000    
  -5.88999987       0.00000000    
  -5.88500023       0.00000000    
  -5.88000011       0.00000000    
  -5.87500000       0.00000000    
  -5.86999989       0.00000000    
  -5.86499977       0.00000000    
  -5.86000013       0.00000000    
  -5.85500002       0.00000000    
  -5.84999990       0.00000000    
  -5.84499979       0.00000000    
  -5.84000015       0.00000000    
  -5.83500004       0.00000000    
  -5.82999992       0.00000000    
  -5.82499981       0.00000000    
  -5.82000017       0.00000000    
  -5.81500006       0.00000000    
  -5.80999994       0.00000000    
  -5.80499983       0.00000000    
  -5.80000019       0.00000000    
  -5.79500008       0.00000000    
  -5.78999996       0.00000000    
  -5.78499985       0.00000000    
  -5.78000021       0.00000000    
  -5.77500010       0.00000000    
  -5.76999998       0.00000000    
  -5.76499987       0.00000000    
  -5.76000023       0.00000000    
  -5.75500011       0.00000000    
  -5.75000000       0.00000000    
  -5.74499989       0.00000000    
  -5.73999977       0.00000000    
  -5.73500013       0.00000000    
  -5.73000002       0.00000000    
  -5.72499990       0.00000000    
  -5.71999979       0.00000000    
  -5.71500015       0.00000000    
  -5.71000004       0.00000000    
  -5.70499992       0.00000000    
  -5.69999981       0.00000000    
  -5.69500017       0.00000000    
  -5.69000006       0.00000000    
  -5.68499994       0.00000000    
  -5.67999983       0.00000000    
  -5.67500019       0.00000000    
  -5.67000008       0.00000000    
  -5.66499996       0.00000000    
  -5.65999985       0.00000000    
  -5.65500021       0.00000000    
  -5.65000010       0.00000000    
  -5.64499998       0.00000000    
  -5.63999987       0.00000000    
  -5.63500023       0.00000000    
  -5.63000011       0.00000000    
  -5.62500000       0.00000000    
  -5.61999989       0.00000000    
  -5.61499977       0.00000000    
  -5.61000013       0.00000000    
  -5.60500002       0.00000000    
  -5.59999990       0.00000000    
  -5.59499979       0.00000000    
  -5.59000015       0.00000000    
  -5.58500004       0.00000000    
  -5.57999992       0.00000000    
  -5.57499981       0.00000000    
  -5.57000017       0.00000000    
  -5.56500006       0.00000000    
  -5.55999994       0.00000000    
  -5.55499983       0.00000000    
  -5.55000019       0.00000000    
  -5.54500008       0.00000000    
  -5.53999996       0.00000000    
  -5.53499985       0.00000000    
  -5.53000021       0.00000000    
  -5.52500010       0.00000000    
  -5.51999998       0.00000000    
  -5.51499987       0.00000000    
  -5.51000023       0.00000000    
  -5.50500011       0.00000000    
  -5.50000000       0.00000000    
  -5.49499989       0.00000000    
  -5.48999977       0.00000000    
  -5.48500013       0.00000000    
  -5.48000002       0.00000000    
  -5.47499990       0.00000000    
  -5.46999979       0.00000000    
  -5.46500015       0.00000000    
  -5.46000004       0.00000000    
  -5.45499992       0.00000000    
  -5.44999981       0.00000000    
  -5.44500017       0.00000000    
  -5.44000006       0.00000000    
  -5.43499994       0.00000000    
  -5.42999983       0.00000000    
  -5.42500019       0.00000000    
  -5.42000008       0.00000000    
  -5.41499996       0.00000000    
  -5.40999985       0.00000000    
  -5.40500021       0.00000000    
  -5.40000010       0.00000000    
  -5.39499998       0.00000000    
  -5.38999987       0.00000000    
  -5.38500023       0.00000000    
  -5.38000011       0.00000000    
  -5.37500000       0.00000000    
  -5.36999989       0.00000000    
  -5.36499977       0.00000000    
  -5.36000013       0.00000000    
  -5.35500002       0.00000000    
  -5.34999990       0.00000000    
  -5.34499979       0.00000000    
  -5.34000015       0.00000000    
  -5.33500004       0.00000000    
  -5.32999992       0.00000000    
  -5.32499981       0.00000000    
  -5.32000017       0.00000000    
  -5.31500006       0.00000000    
  -5.30999994       0.00000000    
  -5.30499983       0.00000000    
  -5.30000019       0.00000000    
  -5.29500008       0.00000000    
  -5.28999996       0.00000000    
  -5.28499985       0.00000000    
  -5.28000021       0.00000000    
  -5.27500010       0.00000000    
  -5.26999998       0.00000000    
  -5.26499987       0.00000000    
  -5.26000023       0.00000000    
  -5.25500011       0.00000000    
  -5.25000000       0.00000000    
  -5.24499989       0.00000000    
  -5.23999977       0.00000000    
  -5.23500013       0.00000000    
  -5.23000002       0.00000000    
  -5.22499990       0.00000000    
  -5.21999979       0.00000000    
  -5.21500015       0.00000000    
  -5.21000004       0.00000000    
  -5.20499992       0.00000000    
  -5.19999981       0.00000000    
  -5.19500017       0.00000000    
  -5.19000006       0.00000000    
  -5.18499994       0.00000000    
  -5.17999983       0.00000000    
  -5.17500019       0.00000000    
  -5.17000008       0.00000000    
  -5.16499996       0.00000000    
  -5.15999985       0.00000000    
  -5.15500021       0.00000000    
  -5.15000010       0.00000000    
  -5.14499998       0.00000000    
  -5.13999987       0.00000000    
  -5.13500023       0.00000000    
  -5.13000011       0.00000000    
  -5.12500000       0.00000000    
  -5.11999989       0.00000000    
  -5.11499977       0.00000000    
  -5.11000013       0.00000000    
  -5.10500002       0.00000000    
  -5.09999990       0.00000000    
  -5.09499979       0.00000000    
  -5.09000015       0.00000000    
  -5.08500004       0.00000000    
  -5.07999992       0.00000000    
  -5.07499981       0.00000000    
  -5.07000017       0.00000000    
  -5.06500006       0.00000000    
  -5.05999994       0.00000000    
  -5.05499983       0.00000000    
  -5.05000019       0.00000000    
  -5.04500008       0.00000000    
  -5.03999996       0.00000000    
  -5.03499985       0.00000000    
  -5.03000021       0.00000000    
  -5.02500010       0.00000000    
  -5.01999998       0.00000000    
  -5.01499987       0.00000000    
  -5.01000023       0.00000000    
  -5.00500011       0.00000000    
  -5.00000000       0.00000000    
  -4.99499989       0.00000000    
  -4.98999977       0.00000000    
  -4.98500013       0.00000000    
  -4.98000002       0.00000000    
  -4.97499990       0.00000000    
  -4.96999979       0.00000000    
  -4.96500015       0.00000000    
  -4.96000004       0.00000000    
  -4.95499992       0.00000000    
  -4.94999981       0.00000000    
  -4.94500017       0.00000000    
  -4.94000006       0.00000000    
  -4.93499994       0.00000000    
  -4.92999983       0.00000000    
  -4.92500019       0.00000000    
  -4.92000008       0.00000000    
  -4.91499996       0.00000000    
  -4.90999985       0.00000000    
  -4.90500021       0.00000000    
  -4.90000010       0.00000000    
  -4.89499998       0.00000000    
  -4.88999987       0.00000000    
  -4.88500023       0.00000000    
  -4.88000011       0.00000000    
  -4.87500000       0.00000000    
  -4.86999989       0.00000000    
  -4.86499977       0.00000000    
  -4.86000013       0.00000000    
  -4.85500002       0.00000000    
  -4.84999990       0.00000000    
  -4.84499979       0.00000000    
  -4.84000015       0.00000000    
  -4.83500004       0.00000000    
  -4.82999992       0.00000000    
  -4.82499981       0.00000000    
  -4.82000017       0.00000000    
  -4.81500006       0.00000000    
  -4.80999994       0.00000000    
  -4.80499983       0.00000000    
  -4.80000019       0.00000000    
  -4.79500008       0.00000000    
  -4.78999996       0.00000000    
  -4.78499985       0.00000000    
  -4.78000021       0.00000000    
  -4.77500010       0.00000000    
  -4.76999998       0.00000000    
  -4.76499987       0.00000000    
  -4.76000023       0.00000000    
  -4.75500011       0.00000000    
  -4.75000000       0.00000000    
  -4.74499989       0.00000000    
  -4.73999977       0.00000000    
  -4.73500013       0.00000000    
  -4.73000002       0.00000000    
  -4.72499990       0.00000000    
  -4.71999979       0.00000000    
  -4.71500015       0.00000000    
  -4.71000004       0.00000000    
  -4.70499992       0.00000000    
  -4.69999981       0.00000000    
  -4.69500017       0.00000000    
  -4.69000006       0.00000000    
  -4.68499994       0.00000000    
  -4.67999983       0.00000000    
  -4.67500019       0.00000000    
  -4.67000008       0.00000000    
  -4.66499996       0.00000000    
  -4.65999985       0.00000000    
  -4.65500021       0.00000000    
  -4.65000010       0.00000000    
  -4.64499998       0.00000000    
  -4.63999987       0.00000000    
  -4.63500023       0.00000000    
  -4.63000011       0.00000000    
  -4.62500000       0.00000000    
  -4.61999989       0.00000000    
  -4.61499977       0.00000000    
  -4.61000013       0.00000000    
  -4.60500002       0.00000000    
  -4.59999990       0.00000000    
  -4.59499979       0.00000000    
  -4.59000015       0.00000000    
  -4.58500004       0.00000000    
  -4.57999992       0.00000000    
  -4.57499981       0.00000000    
  -4.57000017       0.00000000    
  -4.56500006       0.00000000    
  -4.55999994       0.00000000    
  -4.55499983       0.00000000    
  -4.55000019       0.00000000    
  -4.54500008       0.00000000    
  -4.53999996       0.00000000    
  -4.53499985       0.00000000    
  -4.53000021       0.00000000    
  -4.52500010       0.00000000    
  -4.51999998       0.00000000    
  -4.51499987       0.00000000    
  -4.51000023       0.00000000    
  -4.50500011       0.00000000    
  -4.50000000       0.00000000    
  -4.49499989       0.00000000    
  -4.48999977       0.00000000    
  -4.48500013       0.00000000    
  -4.48000002       0.00000000    
  -4.47499990       0.00000000    
  -4.46999979       0.00000000    
  -4.46500015       0.00000000    
  -4.46000004       0.00000000    
  -4.45499992       0.00000000    
  -4.44999981       0.00000000    
  -4.44500017       0.00000000    
  -4.44000006       0.00000000    
  -4.43499994       0.00000000    
  -4.42999983       0.00000000    
  -4.42500019       0.00000000    
  -4.42000008       0.00000000    
  -4.41499996       0.00000000    
  -4.40999985       0.00000000    
  -4.40500021       0.00000000    
  -4.40000010       0.00000000    
  -4.39499998       0.00000000    
  -4.38999987       0.00000000    
  -4.38500023       0.00000000    
  -4.38000011       0.00000000    
  -4.37500000       0.00000000    
  -4.36999989       0.00000000    
  -4.36499977       0.00000000    
  -4.36000013       0.00000000    
  -4.35500002       0.00000000    
  -4.34999990       0.00000000    
  -4.34499979       0.00000000    
  -4.34000015       0.00000000    
  -4.33500004       0.00000000    
  -4.32999992       0.00000000    
  -4.32499981       0.00000000    
  -4.32000017       0.00000000    
  -4.31500006       0.00000000    
  -4.30999994       0.00000000    
  -4.30499983       0.00000000    
  -4.30000019       0.00000000    
  -4.29500008       0.00000000    
  -4.28999996       0.00000000    
  -4.28499985       0.00000000    
  -4.28000021       0.00000000    
  -4.27500010       0.00000000    
  -4.26999998       0.00000000    
  -4.26499987       0.00000000    
  -4.26000023       0.00000000    
  -4.25500011       0.00000000    
  -4.25000000       0.00000000    
  -4.24499989       0.00000000    
  -4.23999977       0.00000000    
  -4.23500013       0.00000000    
  -4.23000002       0.00000000    
  -4.22499990       0.00000000    
  -4.21999979       0.00000000    
  -4.21500015       0.00000000    
  -4.21000004       0.00000000    
  -4.20499992       0.00000000    
  -4.19999981       0.00000000    
  -4.19500017       0.00000000    
  -4.19000006       0.00000000    
  -4.18499994       0.00000000    
  -4.17999983       0.00000000    
  -4.17500019       0.00000000    
  -4.17000008       0.00000000    
  -4.16499996       0.00000000    
  -4.15999985       0.00000000    
  -4.15500021       0.00000000    
  -4.15000010       0.00000000    
  -4.14499998       0.00000000    
  -4.13999987       0.00000000    
  -4.13500023       0.00000000    
  -4.13000011       0.00000000    
  -4.12500000       0.00000000    
  -4.11999989       0.00000000    
  -4.11499977       0.00000000    
  -4.11000013       0.00000000    
  -4.10500002       0.00000000    
  -4.09999990       0.00000000    
  -4.09499979       0.00000000    
  -4.09000015       0.00000000    
  -4.08500004       0.00000000    
  -4.07999992       0.00000000    
  -4.07499981       0.00000000    
  -4.07000017       0.00000000    
  -4.06500006       0.00000000    
  -4.05999994       0.00000000    
  -4.05499983       0.00000000    
  -4.05000019       0.00000000    
  -4.04500008       0.00000000    
  -4.03999996       0.00000000    
  -4.03499985      -0.00000000    
  -4.03000021      -0.00000000    
  -4.02500010      -0.00000000    
  -4.01999998      -1.24096470E-38
  -4.01499987      -0.00000000    
  -4.01000023      -1.47798228E-38
  -4.00500011      -1.74562426E-38
  -4.00000000      -1.94559039E-38
  -3.99499989      -2.02876839E-38
  -3.99000001      -1.92997755E-38
  -3.98499990      -1.58268674E-38
  -3.98000002      -1.29778230E-38
  -3.97499990       0.00000000    
  -3.97000003       1.73915250E-38
  -3.96499991       3.85053220E-38
  -3.96000004       6.55410834E-38
  -3.95499992       9.86974978E-38
  -3.95000005       1.37252073E-37
  -3.94499993       1.79844495E-37
  -3.94000006       2.25196802E-37
  -3.93499994       2.71921205E-37
  -3.93000007       3.18025359E-37
  -3.92499995       3.60703641E-37
  -3.92000008       3.96500517E-37
  -3.91499996       4.22170421E-37
  -3.91000009       4.34125627E-37
  -3.90499997       4.28147397E-37
  -3.90000010       4.00388593E-37
  -3.89499998       3.46900044E-37
  -3.89000010       2.64198884E-37
  -3.88499999       1.49848972E-37
  -3.88000011      -0.00000000    
  -3.87500000      -1.76724150E-37
  -3.86999989      -3.85327079E-37
  -3.86500001      -6.17668821E-37
  -3.85999990      -8.66335982E-37
  -3.85500002      -1.12237747E-36
  -3.84999990      -1.37435990E-36
  -3.84500003      -1.60896435E-36
  -3.83999991      -1.81212187E-36
  -3.83500004      -1.96815271E-36
  -3.82999992      -2.06048146E-36
  -3.82500005      -2.07239963E-36
  -3.81999993      -1.98754919E-36
  -3.81500006      -1.79151699E-36
  -3.80999994      -1.47192776E-36
  -3.80500007      -1.01902066E-36
  -3.79999995      -4.27893549E-37
  -3.79500008       3.00383774E-37
  -3.78999996       1.15824533E-36
  -3.78500009       2.13081005E-36
  -3.77999997       3.19519009E-36
  -3.77500010       4.32015590E-36
  -3.76999998       5.46577107E-36
  -3.76500010       6.58407128E-36
  -3.75999999       7.61935435E-36
  -3.75500011       8.50901933E-36
  -3.75000000       9.18591653E-36
  -3.74499989       9.57991951E-36
  -3.74000001       9.62063420E-36
  -3.73499990       9.24133423E-36
  -3.73000002       8.38164135E-36
  -3.72499990       6.99108405E-36
  -3.72000003       5.03376650E-36
  -3.71499991       2.49247366E-36
  -3.71000004      -6.27097206E-37
  -3.70499992      -4.29274337E-36
  -3.70000005      -8.44249743E-36
  -3.69499993      -1.29815457E-35
  -3.69000006      -1.77807181E-35
  -3.68499994      -2.26771213E-35
  -3.68000007      -2.74740265E-35
  -3.67499995      -3.19451036E-35
  -3.67000008      -3.58395285E-35
  -3.66499996      -3.88872616E-35
  -3.66000009      -4.08079264E-35
  -3.65499997      -4.13211548E-35
  -3.65000010      -4.01598921E-35
  -3.64499998      -3.70835550E-35
  -3.64000010      -3.18930817E-35
  -3.63499999      -2.44488619E-35
  -3.63000011      -1.46833895E-35
  -3.62500000      -2.61673821E-36
  -3.61999989       1.16262504E-35
  -3.61500001       2.78067780E-35
  -3.60999990       4.55601062E-35
  -3.60500002       6.43905844E-35
  -3.59999990       8.36737944E-35
  -3.59500003       1.02662637E-34
  -3.58999991       1.20495977E-34
  -3.58500004       1.36217628E-34
  -3.57999992       1.48805279E-34
  -3.57500005       1.57200937E-34
  -3.56999993       1.60348415E-34
  -3.56500006       1.57240140E-34
  -3.55999994       1.46970566E-34
  -3.55500007       1.28790628E-34
  -3.54999995       1.02165118E-34
  -3.54500008       6.68305732E-35
  -3.53999996       2.28503977E-35
  -3.53500009      -2.93349752E-35
  -3.52999997      -8.88656453E-35
  -3.52500010      -1.54431466E-34
  -3.51999998      -2.24255187E-34
  -3.51500010      -2.96093986E-34
  -3.50999999      -3.67259149E-34
  -3.50500011      -4.34656301E-34
  -3.50000000      -4.94858648E-34
  -3.49499989      -5.44196028E-34
  -3.49000001      -5.78866545E-34
  -3.48499990      -5.95081112E-34
  -3.48000002      -5.89222834E-34
  -3.47499990      -5.58026637E-34
  -3.47000003      -4.98770335E-34
  -3.46499991      -4.09473906E-34
  -3.46000004      -2.89097522E-34
  -3.45499992      -1.37730974E-34
  -3.45000005       4.32364788E-35
  -3.44499993       2.50973898E-34
  -3.44000006       4.81103022E-34
  -3.43499994       7.27643676E-34
  -3.43000007       9.83017987E-34
  -3.42499995       1.23812212E-33
  -3.42000008       1.48246882E-33
  -3.41499996       1.70441299E-33
  -3.41000009       1.89145710E-33
  -3.40499997       2.03063839E-33
  -3.40000010       2.10899335E-33
  -3.39499998       2.11408912E-33
  -3.39000010       2.03461634E-33
  -3.38499999       1.86101841E-33
  -3.38000011       1.58614283E-33
  -3.37500000       1.20589420E-33
  -3.36999989       7.19846705E-34
  -3.36500001       1.31807321E-34
  -3.35999990      -5.49721724E-34
  -3.35500002      -1.31120077E-33
  -3.34999990      -2.13386883E-33
  -3.34500003      -2.99374644E-33
  -3.33999991      -3.86185416E-33
  -3.33500004      -4.70465716E-33
  -3.32999992      -5.48478097E-33
  -3.32500005      -6.16195314E-33
  -3.31999993      -6.69423315E-33
  -3.31500006      -7.03945012E-33
  -3.30999994      -7.15688495E-33
  -3.30500007      -7.00910988E-33
  -3.29999995      -6.56395605E-33
  -3.29500008      -5.79655917E-33
  -3.28999996      -4.69137665E-33
  -3.28500009      -3.24412784E-33
  -3.27999997      -1.46353602E-33
  -3.27500010       6.27204664E-34
  -3.26999998       2.98934219E-33
  -3.26500010       5.56795895E-33
  -3.25999999       8.29192613E-33
  -3.25500011       1.10745027E-32
  -3.25000000       1.38146403E-32
  -3.24499989       1.63990587E-32
  -3.24000001       1.87050583E-32
  -3.23499990       2.06041208E-32
  -3.23000002       2.19662146E-32
  -3.22499990       2.26647418E-32
  -3.22000003       2.25820311E-32
  -3.21499991       2.16151826E-32
  -3.21000004       1.96821115E-32
  -3.20499992       1.67276005E-32
  -3.20000005       1.27290566E-32
  -3.19499993       7.70173099E-33
  -3.19000006       1.70315632E-33
  -3.18499994      -5.16353416E-33
  -3.18000007      -1.27476485E-32
  -3.17499995      -2.08506044E-32
  -3.17000008      -2.92274533E-32
  -3.16499996      -3.75904315E-32
  -3.16000009      -4.56146527E-32
  -3.15499997      -5.29460641E-32
  -3.15000010      -5.92114725E-32
  -3.14499998      -6.40306996E-32
  -3.14000010      -6.70305729E-32
  -3.13499999      -6.78604308E-32
  -3.13000011      -6.62086085E-32
  -3.12500000      -6.18197357E-32
  -3.11999989      -5.45117344E-32
  -3.11500001      -4.41923369E-32
  -3.10999990      -3.08740035E-32
  -3.10500002      -1.46866999E-32
  -3.09999990       4.11235972E-33
  -3.09500003       2.51327010E-32
  -3.08999991       4.78490882E-32
  -3.08500004       7.16050562E-32
  -3.07999992       9.56220691E-32
  -3.07500005       1.19014489E-31
  -3.06999993       1.40810646E-31
  -3.06500006       1.59979926E-31
  -3.05999994       1.75465395E-31
  -3.05500007       1.86221321E-31
  -3.04999995       1.91255329E-31
  -3.04500008       1.89672961E-31
  -3.03999996       1.80724381E-31
  -3.03500009       1.63850970E-31
  -3.02999997       1.38729974E-31
  -3.02500010       1.05315630E-31
  -3.01999998       6.38743706E-32
  -3.01500010       1.50121355E-32
  -3.00999999      -4.03081862E-32
  -3.00500011      -1.00761001E-31
  -3.00000000      -1.64665741E-31
  -2.99499989      -2.30009097E-31
  -2.99000001      -2.94483058E-31
  -2.98499990      -3.55538282E-31
  -2.98000002      -4.10453898E-31
  -2.97499990      -4.56421088E-31
  -2.97000003      -4.90641891E-31
  -2.96499991      -5.10435899E-31
  -2.96000004      -5.13358225E-31
  -2.95499992      -4.97320439E-31
  -2.95000005      -4.60711830E-31
  -2.94499993      -4.02516725E-31
  -2.94000006      -3.22422795E-31
  -2.93499994      -2.20913992E-31
  -2.93000007      -9.93444130E-32
  -2.92499995       4.00135691E-32
  -2.92000008       1.93950255E-31
  -2.91499996       3.58333748E-31
  -2.91000009       5.28162401E-31
  -2.90499997       6.97655568E-31
  -2.90000010       8.60386445E-31
  -2.89499998       1.00945229E-30
  -2.89000010       1.13768462E-30
  -2.88499999       1.23789138E-30
  -2.88000011       1.30312783E-30
  -2.87500000       1.32698971E-30
  -2.86999989       1.30391513E-30
  -2.86500001       1.22949308E-30
  -2.85999990       1.10075736E-30
  -2.85500002       9.16461287E-31
  -2.84999990       6.77316318E-31
  -2.84500003       3.86181703E-31
  -2.83999991       4.81946895E-32
  -2.83500004      -3.29172907E-31
  -2.82999992      -7.36140595E-31
  -2.82500005      -1.16073447E-30
  -2.81999993      -1.58900129E-30
  -2.81500006      -2.00531851E-30
  -2.80999994      -2.39280226E-30
  -2.80500007      -2.73380772E-30
  -2.79999995      -3.01051250E-30
  -2.79500008      -3.20557309E-30
  -2.78999996      -3.30282466E-30
  -2.78500009      -3.28802020E-30
  -2.77999997      -3.14958007E-30
  -2.77500010      -2.87930269E-30
  -2.76999998      -2.47304432E-30
  -2.76500010      -1.93130581E-30
  -2.75999999      -1.25970818E-30
  -2.75500011      -4.69326793E-31
  -2.75000000       4.23144347E-31
  -2.74499989       1.39542727E-30
  -2.74000001       2.41990370E-30
  -2.73499990       3.46408894E-30
  -2.73000002       4.49133897E-30
  -2.72499990       5.46178310E-30
  -2.72000003       6.33348457E-30
  -2.71499991       7.06378893E-30
  -2.71000004       7.61085083E-30
  -2.70499992       7.93527298E-30
  -2.70000005       8.00184094E-30
  -2.69499993       7.78126404E-30
  -2.69000006       7.25188382E-30
  -2.68499994       6.40126000E-30
  -2.68000007       5.22758663E-30
  -2.67499995       3.74084056E-30
  -2.67000008       1.96362062E-30
  -2.66499996      -6.84192902E-32
  -2.66000009      -2.30656235E-30
  -2.65499997      -4.68952205E-30
  -2.65000010      -7.14444778E-30
  -2.64499998      -9.58846943E-30
  -2.64000010      -1.19307614E-29
  -2.63499999      -1.40751279E-29
  -2.63000011      -1.59230080E-29
  -2.62500000      -1.73769301E-29
  -2.61999989      -1.83441998E-29
  -2.61500001      -1.87408210E-29
  -2.60999990      -1.84954681E-29
  -2.60500002      -1.75533784E-29
  -2.59999990      -1.58799860E-29
  -2.59500003      -1.34642093E-29
  -2.58999991      -1.03211496E-29
  -2.58500004      -6.49408757E-30
  -2.57999992      -2.05563531E-30
  -2.57500005       2.89209433E-30
  -2.56999993       8.21839296E-30
  -2.56500006       1.37660161E-29
  -2.55999994       1.93544118E-29
  -2.55500007       2.47841440E-29
  -2.54999995       2.98424109E-29
  -2.54500008       3.43095994E-29
  -2.53999996       3.79667327E-29
  -2.53500009       4.06035505E-29
  -2.52999997       4.20271377E-29
  -2.52500010       4.20705463E-29
  -2.51999998       4.06014891E-29
  -2.51500010       3.75303862E-29
  -2.50999999       3.28177018E-29
  -2.50500011       2.64800893E-29
  -2.50000000       1.85950086E-29
  -2.49499989       9.30355969E-30
  -2.49000001      -1.18875374E-30
  -2.48499990      -1.26136088E-29
  -2.48000002      -2.46438595E-29
  -2.47499990      -3.69001166E-29
  -2.47000003      -4.89598054E-29
  -2.46499991      -6.03686713E-29
  -2.46000004      -7.06545095E-29
  -2.45499992      -7.93428068E-29
  -2.45000005      -8.59738618E-29
  -2.44499993      -9.01209487E-29
  -2.44000006      -9.14089264E-29
  -2.43499994      -8.95325350E-29
  -2.43000007      -8.42739879E-29
  -2.42499995      -7.55186381E-29
  -2.42000008      -6.32685741E-29
  -2.41499996      -4.76528513E-29
  -2.41000009      -2.89342988E-29
  -2.40499997      -7.51172864E-30
  -2.40000010       1.60824705E-29
  -2.39499998       4.11898908E-29
  -2.39000010       6.70389552E-29
  -2.38499999       9.27630236E-29
  -2.38000011       1.17423612E-28
  -2.37500000       1.40038278E-28
  -2.36999989       1.59612503E-28
  -2.36500001       1.75174848E-28
  -2.35999990       1.85814335E-28
  -2.35500002       1.90718812E-28
  -2.34999990       1.89213288E-28
  -2.34500003       1.80796060E-28
  -2.33999991       1.65172182E-28
  -2.33500004       1.42281939E-28
  -2.32999992       1.12323340E-28
  -2.32500005       7.57670109E-29
  -2.31999993       3.33625022E-29
  -2.31500006      -1.38650766E-29
  -2.30999994      -6.46287080E-29
  -2.30500007      -1.17403907E-28
  -2.29999995      -1.70463795E-28
  -2.29500008      -2.21924643E-28
  -2.28999996      -2.69800806E-28
  -2.28500009      -3.12068323E-28
  -2.27999997      -3.46734677E-28
  -2.27500010      -3.71913876E-28
  -2.26999998      -3.85903687E-28
  -2.26500010      -3.87262478E-28
  -2.25999999      -3.74883491E-28
  -2.25500011      -3.48062413E-28
  -2.25000000      -3.06556553E-28
  -2.24499989      -2.50631832E-28
  -2.24000001      -1.81095277E-28
  -2.23499990      -9.93106558E-29
  -2.23000002      -7.19501171E-30
  -2.22499990       9.28051654E-29
  -2.22000003       1.97758591E-28
  -2.21499991       3.04315541E-28
  -2.21000004       4.08794231E-28
  -2.20499992       5.07286770E-28
  -2.20000005       5.95781276E-28
  -2.19499993       6.70298636E-28
  -2.19000006       7.27038073E-28
  -2.18499994       7.62528098E-28
  -2.18000007       7.73778514E-28
  -2.17499995       7.58426590E-28
  -2.17000008       7.14872358E-28
  -2.16499996       6.42396966E-28
  -2.16000009       5.41258537E-28
  -2.15499997       4.12761839E-28
  -2.15000010       2.59292956E-28
  -2.14499998       8.43206917E-29
  -2.14000010      -1.07643113E-28
  -2.13499999      -3.11123029E-28
  -2.13000011      -5.19800355E-28
  -2.12500000      -7.26673735E-28
  -2.11999989      -9.24256284E-28
  -2.11500001      -1.10480605E-27
  -2.10999990      -1.26058307E-27
  -2.10500002      -1.38412685E-27
  -2.09999990      -1.46854431E-27
  -2.09500003      -1.50780025E-27
  -2.08999991      -1.49699992E-27
  -2.08500004      -1.43265027E-27
  -2.07999992      -1.31289306E-27
  -2.07500005      -1.13769516E-27
  -2.06999993      -9.08990208E-28
  -2.06500006      -6.30757946E-28
  -2.05999994      -3.09038113E-28
  -2.05500007       4.81295159E-29
  -2.04999995       4.30840784E-28
  -2.04500008       8.27539934E-28
  -2.03999996       1.22530668E-27
  -2.03500009       1.61021485E-27
  -2.02999997       1.96775325E-27
  -2.02500010       2.28329703E-27
  -2.01999998       2.54262157E-27
  -2.01500010       2.73243468E-27
  -2.00999999       2.84092308E-27
  -2.00500011       2.85827359E-27
  -2.00000000       2.77717403E-27
  -1.99500000       2.59325485E-27
  -1.99000001       2.30545601E-27
  -1.98500001       1.91630915E-27
  -1.98000002       1.43210244E-27
  -1.97500002       8.62934193E-28
  -1.97000003       2.22626452E-28
  -1.96500003      -4.71497502E-28
  -1.96000004      -1.19897661E-27
  -1.95500004      -1.93671342E-27
  -1.95000005      -2.65960525E-27
  -1.94500005      -3.34129008E-27
  -1.94000006      -3.95499382E-27
  -1.93499994      -4.47444871E-27
  -1.92999995      -4.87485918E-27
  -1.92499995      -5.13388443E-27
  -1.91999996      -5.23259951E-27
  -1.91499996      -5.15640741E-27
  -1.90999997      -4.89585182E-27
  -1.90499997      -4.44731467E-27
  -1.89999998      -3.81354544E-27
  -1.89499998      -3.00400197E-27
  -1.88999999      -2.03497822E-27
  -1.88499999      -9.29498665E-28
  -1.88000000       2.83039191E-28
  -1.87500000       1.56746845E-27
  -1.87000000       2.88370454E-27
  -1.86500001       4.18783413E-27
  -1.86000001       5.43340467E-27
  -1.85500002       6.57290154E-27
  -1.85000002       7.55935746E-27
  -1.84500003       8.34804966E-27
  -1.84000003       8.89824239E-27
  -1.83500004       9.17487988E-27
  -1.83000004       9.15023029E-27
  -1.82500005       8.80532397E-27
  -1.82000005       8.13124156E-27
  -1.81500006       7.13006691E-27
  -1.80999994       5.81555462E-27
  -1.80499995       4.21341087E-27
  -1.79999995       2.36116565E-27
  -1.79499996       3.07621881E-28
  -1.78999996      -1.88813935E-27
  -1.78499997      -4.15817674E-27
  -1.77999997      -6.42752349E-27
  -1.77499998      -8.61638254E-27
  -1.76999998      -1.06426511E-26
  -1.76499999      -1.24246702E-26
  -1.75999999      -1.38841599E-26
  -1.75500000      -1.49492069E-26
  -1.75000000      -1.55572353E-26
  -1.74500000      -1.56578120E-26
  -1.74000001      -1.52152333E-26
  -1.73500001      -1.42107237E-26
  -1.73000002      -1.26441915E-26
  -1.72500002      -1.05354200E-26
  -1.72000003      -7.92463704E-27