  -6.00000000       0.00000000    
  -5.99499989       0.00000000    
  -5.98999977       0.00000000    
  -5.98500013       0.00000000    
  -5.98000002       0.00000000    
  -5.97499990       0.00000000    
  -5.96999979      -4.63296805E-36
  -5.96500015       3.57335038E-34
  -5.96000004       5.30644672E-33
  -5.95499992       4.03496459E-32
  -5.94999981       2.17986141E-31
  -5.94500017       9.39103471E-31
  -5.94000006       3.42086272E-30
  -5.93499994       1.09051352E-29
  -5.92999983       3.12064417E-29
  -5.92500019       8.15923892E-29
  -5.92000008       1.97516008E-28
  -5.91499996       4.47282304E-28
  -5.90999985       9.55195963E-28
  -5.90500021       1.93611734E-27
  -5.90000010       3.74424085E-27
  -5.89499998       6.93812565E-27
  -5.88999987       1.23620790E-26
  -5.88500023       2.12406469E-26
  -5.88000011       3.52778104E-26
  -5.87500000       5.67450082E-26
  -5.86999989       8.85329719E-26
  -5.86499977       1.34130488E-25
  -5.86000013       1.97480986E-25
  -5.85500002       2.82654089E-25
  -5.84999990       3.93259290E-25
  -5.84499979       5.31518602E-25
  -5.84000015       6.96920103E-25
  -5.83500004       8.84373225E-25
  -5.82999992       1.08182442E-24
  -5.82499981       1.26732191E-24
  -5.82000017       1.40558092E-24
  -5.81500006       1.44419507E-24
  -5.80999994       1.30973906E-24
  -5.80499983       9.04140699E-25
  -5.80000019       1.01848808E-25
  -5.79500008      -1.25151530E-24
  -5.78999996      -3.33818995E-24
  -5.78499985      -6.36402531E-24
  -5.78000021      -1.05498723E-23
  -5.77500010      -1.61175485E-23
  -5.76999998      -2.32692968E-23
  -5.76499987      -3.21599785E-23
  -5.76000023      -4.28613342E-23
  -5.75500011      -5.53184418E-23
  -5.75000000      -6.92987042E-23
  -5.74499989      -8.43352892E-23
  -5.73999977      -9.96669587E-23
  -5.73500013      -1.14178326E-22
  -5.73000002      -1.26345212E-22
  -5.72499990      -1.34191437E-22
  -5.71999979      -1.35264111E-22
  -5.71500015      -1.26636119E-22
  -5.71000004      -1.04944482E-22
  -5.70499992      -6.64744244E-23
  -5.69999981      -7.29746193E-24
  -5.69500017       7.65284882E-23
  -5.69000006       1.88691565E-22
  -5.68499994       3.32287928E-22
  -5.67999983       5.09415676E-22
  -5.67500019       7.20706251E-22
  -5.67000008       9.64808845E-22
  -5.66499996       1.23784378E-21
  -5.65999985       1.53285726E-21
  -5.65500021       1.83930900E-21
  -5.65000010       2.14263568E-21
  -5.64499998       2.42394373E-21
  -5.63999987       2.65988064E-21
  -5.63500023       2.82274092E-21
  -5.63000011       2.88087136E-21
  -5.62500000       2.79942032E-21
  -5.61999989       2.54147689E-21
  -5.61499977       2.06963901E-21
  -5.61000013       1.34800814E-21
  -5.60500002       3.44630812E-22
  -5.59999990      -9.65693783E-22
  -5.59499979      -2.59826357E-21
  -5.59000015      -4.55511723E-21
  -5.58500004      -6.82160422E-21
  -5.57999992      -9.36304718E-21
  -5.57499981      -1.21217301E-20
  -5.57000017      -1.50144542E-20
  -5.56500006      -1.79308733E-20
  -5.55999994      -2.07330074E-20
  -5.55499983      -2.32560343E-20
  -5.55000019      -2.53107832E-20
  -5.54500008      -2.66880357E-20
  -5.53999996      -2.71648472E-20
  -5.53499985      -2.65129546E-20
  -5.53000021      -2.45092808E-20
  -5.52500010      -2.09483862E-20
  -5.51999998      -1.56565822E-20
  -5.51499987      -8.50739993E-21
  -5.51000023       5.62255928E-22
  -5.50500011       1.15358495E-20
  -5.50000000       2.43018846E-20
  -5.49499989       3.86401203E-20
  -5.48999977       5.42108195E-20
  -5.48500013       7.05477529E-20
  -5.48000002       8.70561971E-20
  -5.47499990       1.03017157E-19
  -5.46999979       1.17598226E-19
  -5.46500015       1.29872707E-19
  -5.46000004       1.38846247E-19
  -5.45499992       1.43492443E-19
  -5.44999981       1.42796073E-19
  -5.44500017       1.35803967E-19
  -5.44000006       1.21682003E-19
  -5.43499994       9.97765288E-20
  -5.42999983       6.96777722E-20
  -5.42500019       3.12834344E-20
  -5.42000008      -1.51421906E-20
  -5.41499996      -6.89161068E-20
  -5.40999985      -1.28894915E-19
  -5.40500021      -1.93448827E-19
  -5.40000010      -2.60453713E-19
  -5.39499998      -3.27304848E-19
  -5.38999987      -3.90957068E-19
  -5.38500023      -4.47990577E-19
  -5.38000011      -4.94706067E-19
  -5.37500000      -5.27248748E-19
  -5.36999989      -5.41760495E-19
  -5.36499977      -5.34554562E-19
  -5.36000013      -5.02313285E-19
  -5.35500002      -4.42300143E-19
  -5.34999990      -3.52577335E-19
  -5.34499979      -2.32222970E-19
  -5.34000015      -8.15373062E-20
  -5.33500004       9.77765612E-20
  -5.32999992       3.02465674E-19
  -5.32499981       5.27627028E-19
  -5.32000017       7.66664648E-19
  -5.31500006       1.01131856E-18
  -5.30999994       1.25176953E-18
  -5.30499983       1.47682583E-18
  -5.30000019       1.67420632E-18
  -5.29500008       1.83090225E-18
  -5.28999996       1.93363394E-18
  -5.28499985       1.96937787E-18
  -5.28000021       1.92596495E-18
  -5.27500010       1.79272166E-18
  -5.26999998       1.56114810E-18
  -5.26499987       1.22558957E-18
  -5.26000023       7.83885152E-19
  -5.25500011       2.37962698E-19
  -5.25000000      -4.05659686E-19
  -5.24499989      -1.13549771E-18
  -5.23999977      -1.93487389E-18
  -5.23500013      -2.78188202E-18
  -5.23000002      -3.64956264E-18
  -5.22499990      -4.50630089E-18
  -5.21999979      -5.31648129E-18
  -5.21500015      -6.04138019E-18
  -5.21000004      -6.64030610E-18
  -5.20499992      -7.07196245E-18
  -5.19999981      -7.29600597E-18
  -5.19500017      -7.27476728E-18
  -5.19000006      -6.97508223E-18
  -5.18499994      -6.37015347E-18
  -5.17999983      -5.44141203E-18
  -5.17500019      -4.18025938E-18
  -5.17000008      -2.58963304E-18
  -5.16499996      -6.85312520E-19
  -5.15999985       1.50313720E-18
  -5.15500021       3.93182561E-18
  -5.15000010       6.54252467E-18
  -5.14499998       9.26316306E-18
  -5.13999987       1.20089635E-17
  -5.13500023       1.46841516E-17
  -5.13000011       1.71843000E-17
  -5.12500000       1.93992515E-17
  -5.11999989       2.12165905E-17
  -5.11499977       2.25255558E-17
  -5.11000013       2.32213586E-17
  -5.10500002       2.32096524E-17
  -5.09999990       2.24111716E-17
  -5.09499979       2.07662171E-17
  -5.09000015       1.82389437E-17
  -5.08500004       1.48210814E-17
  -5.07999992       1.05351658E-17
  -5.07499981       5.43682945E-18
  -5.07000017      -3.83876841E-19
  -5.06500006      -6.80227345E-18
  -5.05999994      -1.36601094E-17
  -5.05499983      -2.07679988E-17
  -5.05000019      -2.79091334E-17
  -5.04500008      -3.48444572E-17
  -5.03999996      -4.13190844E-17
  -5.03499985      -4.70699021E-17
  -5.03000021      -5.18341614E-17
  -5.02500010      -5.53588838E-17
  -5.01999998      -5.74107020E-17
  -5.01499987      -5.77859509E-17
  -5.01000023      -5.63205375E-17
  -5.00500011      -5.28992358E-17
  -5.00000000      -4.74641529E-17
  -4.99499989      -4.00217443E-17
  -4.98999977      -3.06481865E-17
  -4.98500013      -1.94927444E-17
  -4.98000002      -6.77875960E-18
  -4.97499990       7.19784114E-18
  -4.96999979       2.20728531E-17
  -4.96500015       3.74207609E-17
  -4.96000004       5.27645410E-17
  -4.95499992       6.75879882E-17
  -4.94999981       8.13505596E-17
  -4.94500017       9.35041391E-17
  -4.94000006       1.03511443E-16
  -4.93499994       1.10865535E-16
  -4.92999983       1.15109792E-16
  -4.92500019       1.15857643E-16
  -4.92000008       1.12811342E-16
  -4.91499996       1.05779307E-16
  -4.90999985       9.46907198E-17
  -4.90500021       7.96073195E-17
  -4.90000010       6.07315212E-17
  -4.89499998       3.84100093E-17
  -4.88999987       1.31327768E-17
  -4.88500023      -1.44727358E-17
  -4.88000011      -4.36529745E-17
  -4.87500000      -7.35443636E-17
  -4.86999989      -1.03194692E-16
  -4.86499977      -1.31588779E-16
  -4.86000013      -1.57678412E-16
  -4.85500002      -1.80415119E-16
  -4.84999990      -1.98785689E-16
  -4.84499979      -2.11848591E-16
  -4.84000015      -2.18770823E-16
  -4.83500004      -2.18863454E-16
  -4.82999992      -2.11614718E-16
  -4.82499981      -1.96719365E-16
  -4.82000017      -1.74103480E-16
  -4.81500006      -1.43942529E-16
  -4.80999994      -1.06672980E-16
  -4.80499983      -6.29955344E-17
  -4.80000019      -1.38699271E-17
  -4.79500008       3.94989661E-17
  -4.78999996       9.56843622E-17
  -4.78499985       1.53069415E-16
  -4.78000021       2.09887194E-16
  -4.77500010       2.64268774E-16
  -4.76999998       3.14296551E-16
  -4.76499987       3.58063485E-16
  -4.76000023       3.93735272E-16
  -4.75500011       4.19613981E-16
  -4.75000000       4.34200921E-16
  -4.74499989       4.36257623E-16
  -4.73999977       4.24861059E-16
  -4.73500013       3.99453168E-16
  -4.73000002       3.59880106E-16
  -4.72499990       3.06422851E-16
  -4.71999979       2.39813715E-16
  -4.71500015       1.61240729E-16
  -4.71000004       7.23375401E-17
  -4.70499992      -2.48416714E-17
  -4.69999981      -1.27862138E-16
  -4.69500017      -2.33961750E-16
  -4.69000006      -3.40118801E-16
  -4.68499994      -4.43130871E-16
  -4.67999983      -5.39704089E-16
  -4.67500019      -6.26549265E-16
  -4.67000008      -7.00485077E-16
  -4.66499996      -7.58541139E-16
  -4.65999985      -7.98061473E-16
  -4.65500021      -8.16802924E-16
  -4.65000010      -8.13027116E-16
  -4.64499998      -7.85580495E-16
  -4.63999987      -7.33960190E-16
  -4.63500023      -6.58364934E-16
  -4.63000011      -5.59725565E-16
  -4.62500000      -4.39714946E-16
  -4.61999989      -3.00735845E-16
  -4.61499977      -1.45885782E-16
  -4.61000013       2.11014171E-17
  -4.60500002       1.95936045E-16
  -4.59999990       3.73873911E-16
  -4.59499979       5.49837356E-16
  -4.59000015       7.18551337E-16
  -4.58500004       8.74692279E-16
  -4.57999992       1.01304749E-15
  -4.57499981       1.12867617E-15
  -4.57000017       1.21707210E-15
  -4.56500006       1.27432094E-15
  -4.55999994       1.29724673E-15
  -4.55499983       1.28354375E-15
  -4.55000019       1.23188597E-15
  -4.54500008       1.14201874E-15
  -4.53999996       1.01481429E-15
  -4.53499985       8.52302551E-16
  -4.53000021       6.57666397E-16
  -4.52500010       4.35201373E-16
  -4.51999998       1.90241654E-16
  -4.51499987      -7.09497428E-17
  -4.51000023      -3.41322567E-16
  -4.50500011      -6.13212679E-16
  -4.50000000      -8.78540508E-16
  -4.49499989      -1.12903213E-15
  -4.48999977      -1.35645624E-15
  -4.48500013      -1.55287111E-15
  -4.48000002      -1.71087749E-15
  -4.47499990      -1.82386056E-15
  -4.46999979      -1.88622887E-15
  -4.46500015      -1.89362686E-15
  -4.46000004      -1.84312591E-15
  -4.45499992      -1.73337998E-15
  -4.44999981      -1.56474122E-15
  -4.44500017      -1.33933453E-15
  -4.44000006      -1.06107828E-15
  -4.43499994      -7.35657538E-16
  -4.42999983      -3.70440807E-16
  -4.42500019       2.56539082E-17
  -4.42000008       4.42346890E-16
  -4.41499996       8.68234500E-16
  -4.40999985       1.29106837E-15
  -4.40500021       1.69807501E-15
  -4.40000010       2.07630412E-15
  -4.39499998       2.41300141E-15
  -4.38999987       2.69599195E-15
  -4.38500023       2.91406206E-15
  -4.38000011       3.05733578E-15
  -4.37500000       3.11762864E-15
  -4.36999989       3.08876811E-15
  -4.36499977       2.96686969E-15
  -4.36000013       2.75056162E-15
  -4.35500002       2.44114197E-15
  -4.34999990       2.04267416E-15
  -4.34499979       1.56199779E-15
  -4.34000015       1.00866452E-15
  -4.33500004       3.94787525E-16
  -4.32999992      -2.65184416E-16
  -4.32499981      -9.54779138E-16
  -4.32000017      -1.65587763E-15
  -4.31500006      -2.34916393E-15
  -4.30999994      -3.01462414E-15
  -4.30499983      -3.63209379E-15
  -4.30000019      -4.18182919E-15
  -4.29500008      -4.64509692E-15
  -4.28999996      -5.00475685E-15
  -4.28499985      -5.24583132E-15
  -4.28000021      -5.35602861E-15
  -4.27500010      -5.32621348E-15
  -4.26999998      -5.15081794E-15
  -4.26499987      -4.82815006E-15
  -4.26000023      -4.36061413E-15
  -4.25500011      -3.75482167E-15
  -4.25000000      -3.02157680E-15
  -4.24499989      -2.17574685E-15
  -4.23999977      -1.23600816E-15
  -4.23500013      -2.24467437E-16
  -4.23000002       8.33832098E-16
  -4.22499990       1.91150560E-15
  -4.21999979       2.97952839E-15
  -4.21500015       4.00799389E-15
  -4.21000004       4.96694911E-15
  -4.20499992       5.82725295E-15
  -4.19999981       6.56145009E-15
  -4.19500017       7.14463058E-15
  -4.19000006       7.55525691E-15
  -4.18499994       7.77590730E-15
  -4.17999983       7.79394232E-15
  -4.17500019       7.60206480E-15
  -4.17000008       7.19871872E-15
  -4.16499996       6.58836245E-15
  -4.15999985       5.78155891E-15
  -4.15500021       4.79490105E-15
  -4.15000010       3.65073911E-15
  -4.14499998       2.37674946E-15
  -4.13999987       1.00531228E-15
  -4.13500023      -4.27264780E-16
  -4.13000011      -1.88166950E-15
  -4.12500000      -3.31663649E-15
  -4.11999989      -4.69009216E-15
  -4.11499977      -5.96035824E-15
  -4.11000013      -7.08740673E-15
  -4.10500002      -8.03410242E-15
  -4.09999990      -8.76739494E-15
  -4.09499979      -9.25945332E-15
  -4.09000015      -9.48866213E-15
  -4.08500004      -9.44049983E-15
  -4.07999992      -9.10819441E-15
  -4.07499981      -8.49322223E-15
  -4.07000017      -7.60552916E-15
  -4.06500006      -6.46353054E-15
  -4.05999994      -5.09386387E-15
  -4.05499983      -3.53086828E-15
  -4.05000019      -1.81582413E-15
  -4.04500008       4.04438959E-18
  -4.03999996       1.87678128E-15
  -4.03499985       3.74709419E-15
  -4.03000021       5.55789986E-15
  -4.02500010       7.25197676E-15
  -4.01999998       8.77368162E-15
  -4.01499987       1.00706737E-14
  -4.01000023       1.10956005E-14
  -4.00500011       1.18077062E-14
  -4.00000000       1.21742538E-14
  -3.99499989       1.21718067E-14
  -3.99000001       1.17872580E-14
  -3.98499990       1.10185417E-14
  -3.98000002       9.87510143E-15
  -3.97499990       8.37799018E-15
  -3.97000003       6.55961076E-15
  -3.96499991       4.46316017E-15
  -3.96000004       2.14166669E-15
  -3.95499992      -3.43258302E-16
  -3.95000005      -2.92297814E-15
  -3.94499993      -5.52365559E-15
  -3.94000006      -8.06828952E-15
  -3.93499994      -1.04789123E-14
  -3.93000007      -1.26788745E-14
  -3.92499995      -1.45952044E-14
  -3.92000008      -1.61608719E-14
  -3.91499996      -1.73169940E-14
  -3.91000009      -1.80148339E-14
  -3.90499997      -1.82175814E-14
  -3.90000010      -1.79018330E-14
  -3.89499998      -1.70586659E-14
  -3.89000010      -1.56943838E-14
  -3.88499999      -1.38308122E-14
  -3.88000011      -1.15050656E-14
  -3.87500000      -8.76897296E-15
  -3.86999989      -5.68794144E-15
  -3.86500001      -2.33945841E-15
  -3.85999990       1.18885923E-15
  -3.85500002       4.80154517E-15
  -3.84999990       8.39787682E-15
  -3.84500003       1.18746811E-14
  -3.83999991       1.51293027E-14
  -3.83500004       1.80626320E-14
  -3.82999992       2.05821315E-14
  -3.82500005       2.26046886E-14
  -3.81999993       2.40593271E-14
  -3.81500006       2.48896041E-14
  -3.80999994       2.50556530E-14
  -3.80500007       2.45357493E-14
  -3.79999995       2.33274449E-14
  -3.79500008       2.14480685E-14
  -3.78999996       1.89347490E-14
  -3.78500009       1.58437852E-14
  -3.77999997       1.22494932E-14
  -3.77500010       8.24241832E-15
  -3.76999998       3.92711029E-15
  -3.76500010      -5.80640503E-16
  -3.75999999      -5.15691065E-15
  -3.75500011      -9.67308322E-15
  -3.75000000      -1.39995217E-14
  -3.74499989      -1.80093028E-14
  -3.74000001      -2.15820014E-14
  -3.73499990      -2.46073557E-14
  -3.73000002      -2.69887228E-14
  -3.72499990      -2.86460986E-14
  -3.72000003      -2.95189525E-14
  -3.71499991      -2.95682566E-14
  -3.71000004      -2.87781578E-14
  -3.70499992      -2.71568436E-14
  -3.70000005      -2.47368654E-14
  -3.69499993      -2.15745712E-14
  -3.69000006      -1.77490350E-14
  -3.68499994      -1.33600753E-14
  -3.68000007      -8.52585502E-15
  -3.67499995      -3.37967417E-15
  -3.67000008       1.93357441E-15
  -3.66499996       7.26143982E-15
  -3.66000009       1.24482291E-14
  -3.65499997       1.73394844E-14
  -3.65000010       2.17865700E-14
  -3.64499998       2.56510443E-14
  -3.64000010       2.88089966E-14
  -3.63499999       3.11548069E-14
  -3.63000011       3.26047105E-14
  -3.62500000       3.30995471E-14
  -3.61999989       3.26069975E-14
  -3.61500001       3.11229212E-14
  -3.60999990       2.86721330E-14
  -3.60500002       2.53081230E-14
  -3.59999990       2.11120472E-14
  -3.59500003       1.61907942E-14
  -3.58999991       1.06745150E-14
  -3.58500004       4.71309630E-15
  -3.57999992      -1.52771582E-15
  -3.57500005      -7.87088680E-15
  -3.56999993      -1.41329912E-14
  -3.56500006      -2.01293602E-14
  -3.55999994      -2.56794453E-14
  -3.55500007      -3.06120316E-14
  -3.54999995      -3.47702993E-14
  -3.54500008      -3.80166445E-14
  -3.53999996      -4.02368738E-14
  -3.53500009      -4.13438577E-14
  -3.52999997      -4.12805268E-14
  -3.52500010      -4.00218426E-14
  -3.51999998      -3.75762077E-14
  -3.51500010      -3.39855572E-14
  -3.50999999      -2.93247617E-14
  -3.50500011      -2.36999734E-14
  -3.50000000      -1.72460533E-14
  -3.49499989      -1.01231296E-14
  -3.49000001      -2.51241238E-15
  -3.48499990       5.38865336E-15
  -3.48000002       1.33718610E-14
  -3.47499990       2.12239131E-14
  -3.47000003       2.87325671E-14
  -3.46499991       3.56925691E-14
  -3.46000004       4.19116815E-14
  -3.45499992       4.72163473E-14
  -3.45000005       5.14567840E-14
  -3.44499993       5.45117371E-14
  -3.44000006       5.62920783E-14
  -3.43499994       5.67440483E-14
  -3.43000007       5.58510181E-14
  -3.42499995       5.36345362E-14
  -3.42000008       5.01542099E-14
  -3.41499996       4.55064521E-14
  -3.41000009       3.98222037E-14
  -3.40499997       3.32637123E-14
  -3.40000010       2.60200966E-14
  -3.39499998       1.83024999E-14
  -3.39000010       1.03381625E-14
  -3.38499999       2.36416446E-15
  -3.38000011      -5.37927967E-15
  -3.37500000      -1.26555099E-14
  -3.36999989      -1.92385695E-14
  -3.36500001      -2.49195789E-14
  -3.35999990      -2.95130504E-14
  -3.35500002      -3.28625609E-14
  -3.34999990      -3.48456615E-14
  -3.34500003      -3.53778388E-14
  -3.33999991      -3.44154399E-14
  -3.33500004      -3.19577366E-14
  -3.32999992      -2.80472429E-14
  -3.32500005      -2.27694094E-14
  -3.31999993      -1.62507760E-14
  -3.31500006      -8.65575261E-15
  -3.30999994      -1.82807418E-16
  -3.30500007       8.94089016E-15
  -3.29999995       1.84653792E-14
  -3.29500008       2.81248261E-14
  -3.28999996       3.76446649E-14
  -3.28500009       4.67492866E-14
  -3.27999997       5.51699562E-14
  -3.27500010       6.26523776E-14
  -3.26999998       6.89642232E-14
  -3.26500010       7.39018967E-14
  -3.25999999       7.72966828E-14
  -3.25500011       7.90202796E-14
  -3.25000000       7.89885938E-14
  -3.24499989       7.71650064E-14
  -3.24000001       7.35619654E-14
  -3.23499990       6.82414804E-14
  -3.23000002       6.13137403E-14
  -3.22499990       5.29350598E-14
  -3.22000003       4.33039563E-14
  -3.21499991       3.26560610E-14
  -3.21000004       2.12582722E-14
  -3.20499992       9.40154225E-15
  -3.20000005      -2.60690547E-15
  -3.19499993      -1.44515730E-14
  -3.19000006      -2.58181910E-14
  -3.18499994      -3.64014002E-14
  -3.18000007      -4.59139325E-14
  -3.17499995      -5.40946309E-14
  -3.17000008      -6.07160806E-14
  -3.16499996      -6.55910330E-14
  -3.16000009      -6.85778203E-14
  -3.15499997      -6.95849763E-14
  -3.15000010      -6.85738968E-14
  -3.14499998      -6.55605534E-14
  -3.14000010      -6.06154870E-14
  -3.13499999      -5.38618595E-14
  -3.13000011      -4.54726046E-14
  -3.12500000      -3.56657419E-14
  -3.11999989      -2.46989319E-14
  -3.11500001      -1.28618065E-14
  -3.10999990      -4.68425366E-16
  -3.10500002       1.21515482E-14
  -3.09999990       2.46622604E-14
  -3.09500003       3.67312077E-14
  -3.08999991       4.80383725E-14
  -3.08500004       5.82859905E-14
  -3.07999992       6.72068737E-14
  -3.07500005       7.45727197E-14
  -3.06999993       8.02002236E-14
  -3.06500006       8.39573840E-14
  -3.05999994       8.57679203E-14
  -3.05500007       8.56127913E-14
  -3.04999995       8.35322005E-14
  -3.04500008       7.96251831E-14
  -3.03999996       7.40465360E-14
  -3.03500009       6.70038501E-14
  -3.02999997       5.87509845E-14
  -3.02500010       4.95822831E-14
  -3.01999998       3.98240434E-14
  -3.01500010       2.98260867E-14
  -3.00999999       1.99515104E-14
  -3.00500011       1.05671240E-14
  -3.00000000       2.03234798E-15
  -2.99499989      -5.31033711E-15
  -2.99000001      -1.11451545E-14
  -2.98499990      -1.51925930E-14
  -2.98000002      -1.72180690E-14
  -2.97499990      -1.70363788E-14
  -2.97000003      -1.45210890E-14
  -2.96499991      -9.60619303E-15
  -2.96000004      -2.28906609E-15
  -2.95499992       7.36936028E-15
  -2.95000005       1.92435484E-14
  -2.94499993       3.31501048E-14
  -2.94000006       4.88474143E-14
  -2.93499994       6.60463031E-14
  -2.93000007       8.44151951E-14
  -2.92499995       1.03589412E-13
  -2.92000008       1.23181698E-13
  -2.91499996       1.42790510E-13
  -2.91000009       1.62014201E-13
  -2.90499997       1.80458364E-13
  -2.90000010       1.97750846E-13
  -2.89499998       2.13547618E-13
  -2.89000010       2.27547392E-13
  -2.88499999       2.39495977E-13
  -2.88000011       2.49196687E-13
  -2.87500000       2.56514346E-13
  -2.86999989       2.61378891E-13
  -2.86500001       2.63793273E-13
  -2.85999990       2.63825664E-13
  -2.85500002       2.61614948E-13
  -2.84999990       2.57364903E-13
  -2.84500003       2.51340805E-13
  -2.83999991       2.43859241E-13
  -2.83500004       2.35286562E-13
  -2.82999992       2.26022800E-13
  -2.82500005       2.16496756E-13
  -2.81999993       2.07150418E-13
  -2.81500006       1.98429435E-13
  -2.80999994       1.90773694E-13
  -2.80500007       1.84602361E-13
  -2.79999995       1.80302347E-13
  -2.79500008       1.78222129E-13
  -2.78999996       1.78659103E-13
  -2.78500009       1.81851591E-13
  -2.77999997       1.87972061E-13
  -2.77500010       1.97123825E-13
  -2.76999998       2.09342228E-13
  -2.76500010       2.24582858E-13
  -2.75999999       2.42729095E-13
  -2.75500011       2.63601044E-13
  -2.75000000       2.86946655E-13
  -2.74499989       3.12459450E-13
  -2.74000001       3.39784217E-13
  -2.73499990       3.68524222E-13
  -2.73000002       3.98250687E-13
  -2.72499990       4.28517980E-13
  -2.72000003       4.58879191E-13
  -2.71499991       4.88890016E-13
  -2.71000004       5.18131057E-13
  -2.70499992       5.46205225E-13
  -2.70000005       5.72765522E-13
  -2.69499993       5.97515364E-13
  -2.69000006       6.20214980E-13
  -2.68499994       6.40702389E-13
  -2.68000007       6.58884189E-13
  -2.67499995       6.74739832E-13
  -2.67000008       6.88336649E-13
  -2.66499996       6.99813742E-13
  -2.66000009       7.09384212E-13
  -2.65499997       7.17335425E-13
  -2.65000010       7.24014924E-13
  -2.64499998       7.29824784E-13
  -2.64000010       7.35209528E-13
  -2.63499999       7.40649566E-13
  -2.63000011       7.46641247E-13
  -2.62500000       7.53696801E-13
  -2.61999989       7.62300975E-13
  -2.61500001       7.72943450E-13
  -2.60999990       7.86061158E-13
  -2.60500002       8.02061271E-13
  -2.59999990       8.21271870E-13
  -2.59500003       8.43979834E-13
  -2.58999991       8.70384982E-13
  -2.58500004       9.00609069E-13
  -2.57999992       9.34684947E-13
  -2.57500005       9.72581065E-13
  -2.56999993       1.01416260E-12
  -2.56500006       1.05921782E-12
  -2.55999994       1.10746818E-12
  -2.55500007       1.15857009E-12
  -2.54999995       1.21211266E-12
  -2.54500008       1.26765222E-12
  -2.53999996       1.32470770E-12
  -2.53500009       1.38277692E-12
  -2.52999997       1.44136504E-12
  -2.52500010       1.49997950E-12
  -2.51999998       1.55816148E-12
  -2.51500010       1.61547522E-12
  -2.50999999       1.67157998E-12
  -2.50500011       1.72615242E-12
  -2.50000000       1.77898397E-12
  -2.49499989       1.82994527E-12
  -2.49000001       1.87897571E-12
  -2.48499990       1.92613135E-12
  -2.48000002       1.97156115E-12
  -2.47499990       2.01550538E-12
  -2.47000003       2.05829147E-12
  -2.46499991       2.10033423E-12
  -2.46000004       2.14211266E-12
  -2.45499992       2.18419987E-12
  -2.45000005       2.22716507E-12
  -2.44499993       2.27168089E-12
  -2.44000006       2.31839569E-12
  -2.43499994       2.36796997E-12
  -2.43000007       2.42105966E-12
  -2.42499995       2.47829773E-12
  -2.42000008       2.54024124E-12
  -2.41499996       2.60744096E-12
  -2.41000009       2.68032341E-12
  -2.40499997       2.75926569E-12
  -2.40000010       2.84456898E-12
  -2.39499998       2.93637554E-12
  -2.39000010       3.03478358E-12
  -2.38499999       3.13978119E-12
  -2.38000011       3.25126102E-12
  -2.37500000       3.36900581E-12
  -2.36999989       3.49269940E-12
  -2.36500001       3.62200829E-12
  -2.35999990       3.75644047E-12
  -2.35500002       3.89555185E-12
  -2.34999990       4.03881052E-12
  -2.34500003       4.18570343E-12
  -2.33999991       4.33563125E-12
  -2.33500004       4.48810520E-12
  -2.32999992       4.64261312E-12
  -2.32500005       4.79873259E-12
  -2.31999993       4.95607071E-12
  -2.31500006       5.11432433E-12
  -2.30999994       5.27328051E-12
  -2.30500007       5.43283604E-12
  -2.29999995       5.59290808E-12
  -2.29500008       5.75367141E-12
  -2.28999996       5.91524572E-12
  -2.28500009       6.07794067E-12
  -2.27999997       6.24219383E-12
  -2.27500010       6.40843888E-12
  -2.26999998       6.57725437E-12
  -2.26500010       6.74928776E-12
  -2.25999999       6.92524944E-12
  -2.25500011       7.10582027E-12
  -2.25000000       7.29177482E-12
  -2.24499989       7.48391626E-12
  -2.24000001       7.68288818E-12
  -2.23499990       7.88946599E-12
  -2.23000002       8.10434705E-12
  -2.22499990       8.32804832E-12
  -2.22000003       8.56120036E-12
  -2.21499991       8.80422991E-12
  -2.21000004       9.05748653E-12
  -2.20499992       9.32130675E-12
  -2.20000005       9.59585536E-12
  -2.19499993       9.88125293E-12
  -2.19000006       1.01774249E-11
  -2.18499994       1.04843296E-11
  -2.18000007       1.08017284E-11
  -2.17499995       1.11295079E-11
  -2.17000008       1.14673453E-11
  -2.16499996       1.18148460E-11
  -2.16000009       1.21716213E-11
  -2.15499997       1.25373843E-11
  -2.15000010       1.29116978E-11
  -2.14499998       1.32942849E-11
  -2.14000010       1.36846671E-11
  -2.13499999       1.40828477E-11
  -2.13000011       1.44884695E-11
  -2.12500000       1.49013822E-11
  -2.11999989       1.53216034E-11
  -2.11500001       1.57493359E-11
  -2.10999990       1.61846057E-11
  -2.10500002       1.66277599E-11
  -2.09999990       1.70790482E-11
  -2.09500003       1.75389998E-11
  -2.08999991       1.80083604E-11
  -2.08500004       1.84875674E-11
  -2.07999992       1.89775157E-11
  -2.07500005       1.94788664E-11
  -2.06999993       1.99924730E-11
  -2.06500006       2.05193466E-11
  -2.05999994       2.10603132E-11
  -2.05500007       2.16162765E-11
  -2.04999995       2.21882530E-11
  -2.04500008       2.27769036E-11
  -2.03999996       2.33834480E-11
  -2.03500009       2.40082797E-11
  -2.02999997       2.46522490E-11
  -2.02500010       2.53161294E-11
  -2.01999998       2.60005645E-11
  -2.01500010       2.67058303E-11
  -2.00999999       2.74324244E-11
  -2.00500011       2.81807147E-11
  -2.00000000       2.89508209E-11
  -1.99500000       2.97432044E-11
  -1.99000001       3.05577820E-11
  -1.98500001       3.13947791E-11
  -1.98000002       3.22539113E-11
  -1.97500002       3.31351543E-11
  -1.97000003       3.40386816E-11
  -1.96500003       3.49643439E-11
  -1.96000004       3.59120650E-11
  -1.95500004       3.68821744E-11
  -1.95000005       3.78739644E-11
  -1.94500005       3.88879380E-11
  -1.94000006       3.99244353E-11
  -1.93499994       4.09830607E-11
  -1.92999995       4.20648724E-11
  -1.92499995       4.31696658E-11
  -1.91999996       4.42981554E-11
  -1.91499996       4.54508098E-11
  -1.90999997       4.66282186E-11
  -1.90499997       4.78317629E-11
  -1.89999998       4.90615430E-11
  -1.89499998       5.03191724E-11
  -1.88999999       5.16049113E-11
  -1.88499999       5.29202480E-11
  -1.88000000       5.42667057E-11
  -1.87500000       5.56447041E-11
  -1.87000000       5.70557698E-11
  -1.86500001       5.85008916E-11
  -1.86000001       5.99814434E-11
  -1.85500002       6.14990767E-11
  -1.85000002       6.30548877E-11
  -1.84500003       6.46494594E-11
  -1.84000003       6.62840477E-11
  -1.83500004       6.79601514E-11
  -1.83000004       6.96778815E-11
  -1.82500005       7.14395904E-11
  -1.82000005       7.32452571E-11
  -1.81500006       7.50964985E-11
  -1.80999994       7.69937725E-11
  -1.80499995       7.89375926E-11
  -1.79999995       8.09286180E-11
  -1.79499996       8.29688263E-11
  -1.78999996       8.50577733E-11
  -1.78499997       8.71969441E-11
  -1.77999997       8.93863525E-11
  -1.77499998       9.16266923E-11
  -1.76999998       9.39191294E-11
  -1.76499999       9.62632543E-11
  -1.75999999       9.86617593E-11
  -1.75500000       1.01113715E-10
  -1.75000000       1.03620418E-10
  -1.74500000       1.06182521E-10
  -1.74000001       1.08801072E-10
  -1.73500001       1.11476918E-10
  -1.73000002       1.14212292E-10
  -1.72500002       1.17005142E-10
  -1.72000003       1.19859872E-10