  -3.00000000       0.00000000    
  -2.99499989       0.00000000    
  -2.99000001       0.00000000    
  -2.98499990       0.00000000    
  -2.98000002       0.00000000    
  -2.97499990       0.00000000    
  -2.97000003       0.00000000    
  -2.96499991       0.00000000    
  -2.96000004       0.00000000    
  -2.95499992       0.00000000    
  -2.95000005       0.00000000    
  -2.94499993       0.00000000    
  -2.94000006       0.00000000    
  -2.93499994       0.00000000    
  -2.93000007       0.00000000    
  -2.92499995       0.00000000    
  -2.92000008       0.00000000    
  -2.91499996       0.00000000    
  -2.91000009       0.00000000    
  -2.90499997       0.00000000    
  -2.90000010       0.00000000    
  -2.89499998       0.00000000    
  -2.89000010       0.00000000    
  -2.88499999       0.00000000    
  -2.88000011       0.00000000    
  -2.87500000       0.00000000    
  -2.86999989       0.00000000    
  -2.86500001       0.00000000    
  -2.85999990       0.00000000    
  -2.85500002       0.00000000    
  -2.84999990       0.00000000    
  -2.84500003       0.00000000    
  -2.83999991       0.00000000    
  -2.83500004       0.00000000    
  -2.82999992       0.00000000    
  -2.82500005       0.00000000    
  -2.81999993       0.00000000    
  -2.81500006       0.00000000    
  -2.80999994       0.00000000    
  -2.80500007       0.00000000    
  -2.79999995       0.00000000    
  -2.79500008       0.00000000    
  -2.78999996       0.00000000    
  -2.78500009       0.00000000    
  -2.77999997       0.00000000    
  -2.77500010       0.00000000    
  -2.76999998       0.00000000    
  -2.76500010       0.00000000    
  -2.75999999       0.00000000    
  -2.75500011       0.00000000    
  -2.75000000       0.00000000    
  -2.74499989       0.00000000    
  -2.74000001       0.00000000    
  -2.73499990       0.00000000    
  -2.73000002       0.00000000    
  -2.72499990       0.00000000    
  -2.72000003       0.00000000    
  -2.71499991       0.00000000    
  -2.71000004       0.00000000    
  -2.70499992       0.00000000    
  -2.70000005       0.00000000    
  -2.69499993       0.00000000    
  -2.69000006       0.00000000    
  -2.68499994       0.00000000    
  -2.68000007      -0.00000000    
  -2.67499995      -0.00000000    
  -2.67000008       0.00000000    
  -2.66499996       0.00000000    
  -2.66000009      -0.00000000    
  -2.65499997      -0.00000000    
  -2.65000010      -0.00000000    
  -2.64499998      -0.00000000    
  -2.64000010      -1.40129846E-45
  -2.63499999      -1.40129846E-45
  -2.63000011      -1.40129846E-45
  -2.62500000      -1.40129846E-45
  -2.61999989       1.40129846E-45
  -2.61500001       8.40779079E-45
  -2.60999990       1.68155816E-44
  -2.60500002       2.66246708E-44
  -2.59999990       3.50324616E-44
  -2.59500003       3.36311631E-44
  -2.58999991       1.26116862E-44
  -2.58500004      -4.06376555E-44
  -2.57999992      -1.31722056E-43
  -2.57500005      -2.74654499E-43
  -2.56999993      -4.54020702E-43
  -2.56500006      -6.29183010E-43
  -2.55999994      -6.93642740E-43
  -2.55500007      -4.75040179E-43
  -2.54999995       2.56437619E-43
  -2.54500008       1.72359711E-42
  -2.53999996       4.00911491E-42
  -2.53500009       6.89018455E-42
  -2.52999997       9.58488150E-42
  -2.52500010       1.05125411E-41
  -2.51999998       7.23770657E-42
  -2.51500010      -3.24260465E-42
  -2.50999999      -2.36146817E-41
  -2.50500011      -5.45217206E-41
  -2.50000000      -9.20933351E-41
  -2.49499989      -1.25032257E-40
  -2.49000001      -1.32352640E-40
  -2.48499990      -8.34557313E-41
  -2.48000002       5.70216371E-41
  -2.47499990       3.17073205E-40
  -2.47000003       6.96421515E-40
  -2.46499991       1.13799729E-39
  -2.46000004       1.49777366E-39
  -2.45499992       1.52537644E-39
  -2.45000005       8.75122101E-40
  -2.44499993      -8.28408416E-40
  -2.44000006      -3.84806648E-39
  -2.43499994      -8.10696143E-39
  -2.43000007      -1.28990575E-38
  -2.42499995      -1.66088200E-38
  -2.42000008      -1.65722741E-38
  -2.41499996      -9.26975049E-39
  -2.41000009       8.93388027E-39
  -2.40499997       4.03303115E-38
  -2.40000010       8.36774112E-38
  -2.39499998       1.31564841E-37
  -2.39000010       1.68059855E-37
  -2.38499999       1.67861005E-37
  -2.38000011       9.86029942E-38
  -2.37500000      -7.19625168E-38
  -2.36999989      -3.62745412E-37
  -2.36500001      -7.60387236E-37
  -2.35999990      -1.19753666E-36
  -2.35500002      -1.53473634E-36
  -2.34999990      -1.55605832E-36
  -2.34500003      -9.91289296E-37
  -2.33999991       4.22817440E-37
  -2.33500004       2.83511584E-36
  -2.32999992       6.13173052E-36
  -2.32500005       9.77191525E-36
  -2.31999993       1.26585546E-35
  -2.31500006       1.31189919E-35
  -2.30999994       9.08739068E-36
  -2.30500007      -1.42750853E-36
  -2.29999995      -1.95494698E-35
  -2.29500008      -4.44682711E-35
  -2.28999996      -7.22899122E-35
  -2.28500009      -9.51627708E-35
  -2.27999997      -1.01198010E-34
  -2.27500010      -7.57861067E-35
  -2.26999998      -4.83735297E-36
  -2.26500010       1.19842154E-34
  -2.25999999       2.93438976E-34
  -2.25500011       4.90578746E-34
  -2.25000000       6.59674343E-34
  -2.24499989       7.22464200E-34
  -2.24000001       5.82467874E-34
  -2.23499990       1.45525592E-34
  -2.23000002      -6.46440159E-34
  -2.22499990      -1.77106426E-33
  -2.22000003      -3.07855707E-33
  -2.21499991      -4.25622444E-33
  -2.21000004      -4.82400290E-33
  -2.20499992      -4.18284089E-33
  -2.20000005      -1.73428579E-33
  -2.19499993       2.92215571E-33
  -2.19000006       9.72873288E-33
  -2.18499994       1.78911181E-32
  -2.18000007       2.56611034E-32
  -2.17499995       3.02890775E-32
  -2.17000008       2.82680677E-32
  -2.16499996       1.59728538E-32
  -2.16000009      -9.26472264E-33
  -2.15499997      -4.77163250E-32
  -2.15000010      -9.56842998E-32
  -2.14499998      -1.44207108E-31
  -2.14000010      -1.78614227E-31
  -2.13499999      -1.79577897E-31
  -2.13000011      -1.26229544E-31
  -2.12500000      -1.60815341E-33
  -2.11999989       1.99848992E-31
  -2.11500001       4.63851199E-31
  -2.10999990       7.48825825E-31
  -2.10500002       9.82339376E-31
  -2.09999990       1.06464458E-30
  -2.09500003       8.82363582E-31
  -2.08999991       3.34005059E-31
  -2.08500004      -6.33520643E-31
  -2.07999992      -1.98191451E-30
  -2.07500005      -3.54093392E-30
  -2.06999993      -4.98334787E-30
  -2.06500006      -5.83112117E-30
  -2.05999994      -5.50808629E-30
  -2.05500007      -3.44928335E-30
  -2.04999995       7.33509886E-31
  -2.04500008       7.04666846E-30
  -2.03999996       1.49065338E-29
  -2.03500009       2.29846333E-29
  -2.02999997       2.91772819E-29
  -2.02500010       3.07728457E-29
  -2.01999998       2.48730316E-29
  -2.01500010       9.08381635E-30
  -2.00999999      -1.75741845E-29
  -2.00500011      -5.36709129E-29
  -2.00000000      -9.45129477E-29
  -1.99500000      -1.31730105E-28
  -1.99000001      -1.53632479E-28
  -1.98500001      -1.46624525E-28
  -1.98000002      -9.78226161E-29
  -1.97500002       1.22371661E-30
  -1.97000003       1.50144560E-28
  -1.96500003       3.35517459E-28
  -1.96000004       5.27960809E-28
  -1.95500004       6.81934719E-28
  -1.95000005       7.39580547E-28
  -1.94500005       6.39518086E-28
  -1.94000006       3.30677910E-28
  -1.93499994      -2.09993531E-28
  -1.92999995      -9.58631726E-28
  -1.92499995      -1.82854414E-27
  -1.91999996      -2.66262627E-27
  -1.91499996      -3.23975197E-27
  -1.90999997      -3.29983136E-27
  -1.90499997      -2.58970709E-27
  -1.89999998      -9.27868847E-28
  -1.89499998       1.71950126E-27
  -1.88999999       5.16467081E-27
  -1.88499999       8.94548083E-27
  -1.88000000       1.23152543E-26
  -1.87500000       1.42962550E-26
  -1.87000000       1.38110347E-26
  -1.86500001       9.89345898E-27
  -1.86000001       1.96299793E-27
  -1.85500002      -9.87579744E-27
  -1.85000002      -2.45684658E-26
  -1.84500003      -3.99564735E-26
  -1.84000003      -5.28149648E-26
  -1.83500004      -5.91517674E-26
  -1.83000004      -5.48043365E-26
  -1.82500005      -3.63174797E-26
  -1.82000005      -2.01314953E-27
  -1.81500006       4.69148091E-26
  -1.80999994       1.05519206E-25
  -1.80499995       1.64713701E-25
  -1.79999995       2.11661809E-25
  -1.79499996       2.31152639E-25
  -1.78999996       2.08035366E-25
  -1.78499997       1.30574845E-25
  -1.77999997      -5.66424124E-27
  -1.77499998      -1.94061521E-25
  -1.76999998      -4.14184023E-25
  -1.76499999      -6.31000372E-25
  -1.75999999      -7.96962457E-25
  -1.75500000      -8.57553138E-25
  -1.75000000      -7.60360643E-25
  -1.74500000      -4.67003684E-25
  -1.74000001       3.36218219E-26
  -1.73500001       7.13129469E-25
  -1.73000002       1.49541532E-24
  -1.72500002       2.25555981E-24
  -1.72000003       2.82857003E-24
  -1.71500003       3.02953787E-24
  -1.71000004       2.68492497E-24
  -1.70500004       1.67226403E-24
  -1.70000005      -3.70998695E-26
  -1.69500005      -2.34002414E-24
  -1.69000006      -4.97774268E-24
  -1.68499994      -7.53577997E-24
  -1.67999995      -9.47543984E-24
  -1.67499995      -1.02008061E-23
  -1.66999996      -9.15922731E-24
  -1.66499996      -5.96582489E-24
  -1.65999997      -5.34701015E-25
  -1.65499997       6.80726850E-24
  -1.64999998       1.52522391E-23
  -1.64499998       2.35166330E-23
  -1.63999999       2.99416385E-23
  -1.63499999       3.26985338E-23
  -1.63000000       3.00907711E-23
  -1.62500000       2.09230982E-23
  -1.62000000       4.88616382E-24
  -1.61500001      -1.71134333E-23
  -1.61000001      -4.27577315E-23
  -1.60500002      -6.83339715E-23
  -1.60000002      -8.90221580E-23
  -1.59500003      -9.94776194E-23
  -1.59000003      -9.46826894E-23
  -1.58500004      -7.09833703E-23
  -1.58000004      -2.71674419E-23
  -1.57500005       3.46070565E-23
  -1.57000005       1.08249185E-22
  -1.56500006       1.83745067E-22
  -1.55999994       2.47896700E-22
  -1.55499995       2.85852092E-22
  -1.54999995       2.83358812E-22
  -1.54499996       2.29521390E-22
  -1.53999996       1.19691366E-22
  -1.53499997      -4.20031640E-23
  -1.52999997      -2.41043253E-22
  -1.52499998      -4.52352785E-22
  -1.51999998      -6.41984395E-22
  -1.51499999      -7.70830902E-22
  -1.50999999      -8.00211617E-22
  -1.50500000      -6.98809795E-22
  -1.50000000      -4.50064710E-22
  -1.49500000      -5.88173176E-23
  -1.49000001       4.44145956E-22
  -1.48500001       1.00097033E-21
  -1.48000002       1.53005492E-21
  -1.47500002       1.93430976E-21
  -1.47000003       2.11408523E-21
  -1.46500003       1.98363404E-21
  -1.46000004       1.48908303E-21
  -1.45500004       6.25167042E-22
  -1.45000005      -5.52438610E-22
  -1.44500005      -1.92230635E-21
  -1.44000006      -3.30249355E-21
  -1.43499994      -4.46719496E-21
  -1.42999995      -5.17452970E-21
  -1.42499995      -5.20322132E-21
  -1.41999996      -4.39394545E-21
  -1.41499996      -2.68940085E-21
  -1.40999997      -1.66127228E-22
  -1.40499997       2.94900612E-21
  -1.39999998       6.28362542E-21
  -1.39499998       9.34964751E-21
  -1.38999999       1.15983057E-20
  -1.38499999       1.24965253E-20
  -1.38000000       1.16164083E-20
  -1.37500000       8.72584669E-21
  -1.37000000       3.86561534E-21
  -1.36500001      -2.60227406E-21
  -1.36000001      -9.98848055E-21
  -1.35500002      -1.73217210E-20
  -1.35000002      -2.34481858E-20
  -1.34500003      -2.71792582E-20
  -1.34000003      -2.74728136E-20
  -1.33500004      -2.36252864E-20
  -1.33000004      -1.54456334E-20
  -1.32500005      -3.37998115E-21
  -1.32000005       1.14418312E-20
  -1.31500006       2.72593914E-20
  -1.30999994       4.18437229E-20
  -1.30499995       5.27615926E-20
  -1.29999995       5.77179037E-20
  -1.29499996       5.49353586E-20
  -1.28999996       4.35174647E-20
  -1.28499997       2.37346197E-20
  -1.27999997      -2.82485511E-21
  -1.27499998      -3.32848754E-20
  -1.26999998      -6.37178001E-20
  -1.26499999      -8.95824907E-20
  -1.25999999      -1.06327205E-19
  -1.25500000      -1.10087800E-19
  -1.25000000      -9.83858185E-20
  -1.24500000      -7.07154444E-20
  -1.24000001      -2.89099107E-20
  -1.23500001       2.28044712E-20
  -1.23000002       7.81213669E-20
  -1.22500002       1.29338581E-19
  -1.22000003       1.68358203E-19
  -1.21500003       1.87887523E-19
  -1.21000004       1.82676854E-19
  -1.20500004       1.50599708E-19
  -1.20000005       9.33789782E-20
  -1.19500005       1.67925338E-20
  -1.19000006      -6.97461244E-20
  -1.18499994      -1.54248220E-19
  -1.17999995      -2.23761946E-19
  -1.17499995      -2.66343420E-19
  -1.16999996      -2.73105389E-19
  -1.16499996      -2.40009996E-19
  -1.15999997      -1.69069061E-19
  -1.15499997      -6.86692193E-20
  -1.14999998       4.71503257E-20
  -1.14499998       1.60481957E-19
  -1.13999999       2.52228100E-19
  -1.13499999       3.05324668E-19
  -1.13000000       3.08013884E-19
  -1.12500000       2.56588712E-19
  -1.12000000       1.57040381E-19
  -1.11500001       2.51506026E-20
  -1.11000001      -1.15218841E-19
  -1.10500002      -2.35597944E-19
  -1.10000002      -3.07774519E-19
  -1.09500003      -3.09371856E-19
  -1.09000003      -2.29216297E-19
  -1.08500004      -7.14561782E-20
  -1.08000004       1.42550297E-19
  -1.07500005       3.75317176E-19
  -1.07000005       5.77608434E-19
  -1.06500006       6.95880941E-19
  -1.05999994       6.81969211E-19
  -1.05499995       5.03626279E-19
  -1.04999995       1.54130528E-19
  -1.04499996      -3.40981607E-19
  -1.03999996      -9.21830134E-19
  -1.03499997      -1.49801303E-18
  -1.02999997      -1.95876224E-18
  -1.02499998      -2.18880779E-18
  -1.01999998      -2.08820836E-18
  -1.01499999      -1.59337620E-18
  -1.00999999      -6.95833482E-19
  -1.00500000       5.44994202E-19
  -1.00000000       1.99825019E-18
 -0.995000005       3.46968311E-18
 -0.990000010       4.72194688E-18
 -0.985000014       5.50589738E-18
 -0.980000019       5.59953836E-18
 -0.975000024       4.84942492E-18
 -0.970000029       3.20804113E-18
 -0.964999974       7.60292152E-19
 -0.959999979      -2.26701813E-18
 -0.954999983      -5.51705522E-18
 -0.949999988      -8.53761400E-18
 -0.944999993      -1.08365144E-17
 -0.939999998      -1.19519806E-17
 -0.935000002      -1.15289572E-17
 -0.930000007      -9.39002527E-18
 -0.925000012      -5.58886153E-18
 -0.920000017      -4.35282963E-19
 -0.915000021       5.51602041E-18
 -0.910000026       1.15161623E-17
 -0.904999971       1.67094371E-17
 -0.899999976       2.02484169E-17
 -0.894999981       2.14222259E-17
 -0.889999986       1.97796851E-17
 -0.884999990       1.52274868E-17
 -0.879999995       8.08522230E-18
 -0.875000000      -9.16229707E-19
 -0.870000005      -1.06989112E-17
 -0.865000010      -1.99615656E-17
 -0.860000014      -2.73500503E-17
 -0.855000019      -3.16528371E-17
 -0.850000024      -3.19940127E-17
 -0.845000029      -2.79936614E-17
 -0.839999974      -1.98679287E-17
 -0.834999979      -8.44774744E-18
 -0.829999983       4.89369108E-18
 -0.824999988       1.84014483E-17
 -0.819999993       3.01698379E-17
 -0.814999998       3.84139666E-17
 -0.810000002       4.17429152E-17
 -0.805000007       3.93929480E-17
 -0.800000012       3.13816310E-17
 -0.795000017       1.85539308E-17
 -0.790000021       2.50628963E-18
 -0.785000026      -1.46072387E-17
 -0.779999971      -3.03636066E-17
 -0.774999976      -4.24149267E-17
 -0.769999981      -4.88379345E-17
 -0.764999986      -4.84353689E-17
 -0.759999990      -4.09409438E-17
 -0.754999995      -2.70928633E-17
 -0.750000000      -8.56079904E-18
 -0.745000005       1.22664119E-17
 -0.740000010       3.26022287E-17
 -0.735000014       4.96449915E-17
 -0.730000019       6.09635354E-17
 -0.725000024       6.48263299E-17
 -0.720000029       6.04250144E-17
 -0.714999974       4.79614605E-17
 -0.709999979       2.85905483E-17
 -0.704999983       4.23740143E-18
 -0.699999988      -2.26718973E-17
 -0.694999993      -4.95124937E-17
 -0.689999998      -7.37403061E-17
 -0.685000002      -9.31019176E-17
 -0.680000007      -1.05749800E-16
 -0.675000012      -1.10260145E-16
 -0.670000017      -1.05583477E-16
 -0.665000021      -9.09753619E-17
 -0.660000026      -6.59673561E-17
 -0.654999971      -3.04329475E-17
 -0.649999976       1.52204558E-17
 -0.644999981       6.97361696E-17
 -0.639999986       1.30620302E-16
 -0.634999990       1.93772141E-16
 -0.629999995       2.53259066E-16
 -0.625000000       3.01369055E-16
 -0.620000005       3.29058006E-16
 -0.615000010       3.26854106E-16
 -0.610000014       2.86206292E-16
 -0.605000019       2.01159578E-16
 -0.600000024       7.01471990E-17
 -0.595000029      -1.02403934E-16
 -0.589999974      -3.04996686E-16
 -0.584999979      -5.18852202E-16
 -0.579999983      -7.18827311E-16
 -0.574999988      -8.75586216E-16
 -0.569999993      -9.58959987E-16
 -0.564999998      -9.42208534E-16
 -0.560000002      -8.06687815E-16
 -0.555000007      -5.46249007E-16
 -0.550000012      -1.70615835E-16
 -0.545000017       2.92996214E-16
 -0.540000021       8.00595372E-16
 -0.535000026       1.29477245E-15
 -0.529999971       1.71062761E-15
 -0.524999976       1.98377679E-15
 -0.519999981       2.05951847E-15
 -0.514999986       1.90193519E-15
 -0.509999990       1.50151477E-15
 -0.504999995       8.79900420E-16
 -0.500000000       9.06544887E-17
 -0.495000005      -7.84619113E-16
 -0.490000010      -1.64479049E-15
 -0.485000014      -2.38160593E-15
 -0.479999989      -2.89451360E-15
 -0.474999994      -3.10587945E-15
 -0.469999999      -2.97423570E-15
 -0.465000004      -2.50323287E-15
 -0.460000008      -1.74440019E-15
 -0.455000013      -7.92589322E-16
 -0.449999988       2.25939712E-16
 -0.444999993       1.17160867E-15
 -0.439999998       1.91344785E-15
 -0.435000002       2.35158030E-15
 -0.430000007       2.43647164E-15
 -0.425000012       2.18127374E-15
 -0.419999987       1.66427384E-15
 -0.414999992       1.01979929E-15
 -0.409999996       4.17722742E-16
 -0.405000001       3.36785627E-17
 -0.400000006       1.40821593E-17
 -0.395000011       4.41440088E-16
 -0.389999986       1.30625980E-15
 -0.384999990       2.49166685E-15
 -0.379999995       3.77545836E-15
 -0.375000000       4.85213379E-15
 -0.370000005       5.37436137E-15
 -0.365000010       5.00988309E-15
 -0.360000014       3.50669925E-15
 -0.354999989       7.56752099E-16
 -0.349999994      -3.15292217E-15
 -0.344999999      -7.91236261E-15
 -0.340000004      -1.29926858E-14
 -0.335000008      -1.76867527E-14
 -0.330000013      -2.11860406E-14
 -0.324999988      -2.26874387E-14
 -0.319999993      -2.15179894E-14
 -0.314999998      -1.72609187E-14
 -0.310000002      -9.86368427E-15
 -0.305000007       2.91181340E-16
 -0.300000012       1.23688427E-14
 -0.294999987       2.51288129E-14
 -0.289999992       3.70376337E-14
 -0.284999996       4.64399434E-14
 -0.280000001       5.17706029E-14
 -0.275000006       5.17820650E-14
 -0.270000011       4.57559168E-14
 -0.264999986       3.36659377E-14
 -0.259999990       1.62634053E-14
 -0.254999995      -4.93642331E-15
 -0.250000000      -2.77757553E-14
 -0.245000005      -4.96775405E-14
 -0.239999995      -6.79490847E-14
 -0.234999999      -8.01305230E-14
 -0.230000004      -8.43422757E-14
 -0.224999994      -7.95815372E-14
 -0.219999999      -6.59204001E-14
 -0.215000004      -4.45685020E-14
 -0.209999993      -1.77796248E-14
 -0.204999998       1.13968546E-14
 -0.200000003       3.94953506E-14
 -0.194999993       6.30984861E-14
 -0.189999998       7.93237072E-14
 -0.185000002       8.62605411E-14
 -0.180000007       8.32884380E-14
 -0.174999997       7.12174392E-14
 -0.170000002       5.22163354E-14
 -0.165000007       2.95229471E-14
 -0.159999996       6.96497532E-15
 -0.155000001      -1.16481692E-14
 -0.150000006      -2.31758023E-14
 -0.144999996      -2.57370148E-14
 -0.140000001      -1.91406983E-14
 -0.135000005      -5.06826950E-15
 -0.129999995       1.30458761E-14
 -0.125000000       3.04491573E-14
 -0.119999997       4.17836474E-14
 -0.115000002       4.19917566E-14
 -0.109999999       2.72891806E-14
 -0.104999997      -3.94548963E-15
 -0.100000001      -5.05194031E-14
  -9.49999988E-02  -1.08147046E-13
  -9.00000036E-02  -1.69637104E-13
  -8.50000009E-02  -2.25574523E-13
  -7.99999982E-02  -2.65455464E-13
  -7.50000030E-02  -2.79156906E-13
  -7.00000003E-02  -2.58559043E-13
  -6.49999976E-02  -1.99092248E-13
  -5.99999987E-02  -1.00968807E-13
  -5.49999997E-02   3.01235646E-14
  -5.00000007E-02   1.83031880E-13
  -4.50000018E-02   3.41932754E-13
  -3.99999991E-02   4.87886424E-13
  -3.50000001E-02   6.01010723E-13
  -2.99999993E-02   6.63032726E-13
  -2.50000004E-02   6.59897321E-13
  -1.99999996E-02   5.84072070E-13
  -1.49999997E-02   4.36198197E-13
  -9.99999978E-03   2.25799983E-13
  -4.99999989E-03  -2.91307777E-14
   6.24500451E-17  -3.03709721E-13
   4.99999989E-03  -5.68773490E-13
   9.99999978E-03  -7.94251329E-13
   1.49999997E-02  -9.52888593E-13
   1.99999996E-02  -1.02383726E-12
   2.50000004E-02  -9.95610712E-13
   2.99999993E-02  -8.67961519E-13
   3.50000001E-02  -6.52356912E-13
   3.99999991E-02  -3.70915158E-13
   4.50000018E-02  -5.38678734E-14
   5.00000007E-02   2.64166347E-13
   5.49999997E-02   5.48626086E-13
   5.99999987E-02   7.69569738E-13
   6.49999976E-02   9.05705740E-13
   7.00000003E-02   9.47285761E-13
   7.50000030E-02   8.97389747E-13
   7.99999982E-02   7.71348046E-13
   8.50000009E-02   5.94312034E-13
   9.00000036E-02   3.97265635E-13
   9.49999988E-02   2.12022877E-13
  0.100000001       6.59471460E-14
  0.104999997      -2.27872937E-14
  0.109999999      -4.86024354E-14
  0.115000002      -1.99603975E-14
  0.119999997       4.15231949E-14
  0.125000000       1.04320280E-13
  0.129999995       1.32240654E-13
  0.135000005       9.09985927E-14
  0.140000001      -4.48642114E-14
  0.144999996      -2.85794608E-13
  0.150000006      -6.22867209E-13
  0.155000001      -1.02613642E-12
  0.159999996      -1.44625750E-12
  0.165000007      -1.81947317E-12
  0.170000002      -2.07556368E-12
  0.174999997      -2.14785351E-12
  0.180000007      -1.98398242E-12
  0.185000002      -1.55590037E-12
  0.189999998      -8.67514610E-13
  0.194999993       4.13738258E-14
  0.200000003       1.09581007E-12
  0.204999998       2.19145535E-12
  0.209999993       3.20506469E-12
  0.215000004       4.00863804E-12
  0.219999999       4.48560330E-12
  0.224999994       4.54698085E-12
  0.230000004       4.14529262E-12
  0.234999999       3.28415572E-12
  0.239999995       2.02192972E-12
  0.245000005       4.68494438E-13
  0.250000000      -1.22486429E-12
  0.254999995      -2.88155329E-12
  0.259999990      -4.31995802E-12
  0.264999986      -5.37544271E-12
  0.270000011      -5.92122271E-12
  0.275000006      -5.88526927E-12
  0.280000001      -5.26081782E-12
  0.284999996      -4.10880574E-12
  0.289999992      -2.55163035E-12
  0.294999987      -7.58770596E-13
  0.300000012       1.07400829E-12
  0.305000007       2.74919063E-12
  0.310000002       4.09249240E-12
  0.314999998       4.97480312E-12
  0.319999993       5.32794251E-12
  0.324999988       5.15185290E-12
  0.330000013       4.51205913E-12
  0.335000008       3.52759467E-12
  0.340000004       2.35104904E-12
  0.344999999       1.14364453E-12
  0.349999994       4.91199793E-14
  0.354999989      -8.29461554E-13
  0.360000014      -1.44609953E-12
  0.365000010      -1.81845446E-12
  0.370000005      -2.02307051E-12
  0.375000000      -2.17933072E-12
  0.379999995      -2.42410324E-12
  0.384999990      -2.88067682E-12
  0.389999986      -3.62680806E-12
  0.395000011      -4.66726571E-12
  0.400000006      -5.91605324E-12
  0.405000001      -7.19244803E-12
  0.409999996      -8.23326303E-12
  0.414999992      -8.72147406E-12
  0.419999987      -8.32884022E-12
  0.425000012      -6.76781070E-12
  0.430000007      -3.84608621E-12
  0.435000002       4.83865389E-13
  0.439999998       6.08814605E-12
  0.444999993       1.26344100E-11
  0.449999988       1.95992250E-11
  0.455000013       2.63016414E-11
  0.460000008       3.19614578E-11
  0.465000004       3.57771625E-11
  0.469999999       3.70156163E-11
  0.474999994       3.51032467E-11
  0.479999989       2.97077085E-11
  0.485000014       2.07993085E-11
  0.490000010       8.68346801E-12
  0.495000005      -6.00144023E-12
  0.500000000      -2.23224078E-11
  0.504999995      -3.91234302E-11
  0.509999990      -5.51233781E-11
  0.514999986      -6.90295182E-11
  0.519999981      -7.96539432E-11
  0.524999976      -8.60195387E-11
  0.529999971      -8.74434067E-11
  0.535000026      -8.35883515E-11
  0.540000021      -7.44773965E-11
  0.545000017      -6.04709754E-11
  0.550000012      -4.22117584E-11
  0.555000007      -2.05461915E-11
  0.560000002       3.56485653E-12
  0.564999998       2.91325748E-11
  0.569999993       5.52109226E-11
  0.574999988       8.09410802E-11
  0.579999983       1.05563877E-10
  0.584999979       1.28399610E-10
  0.589999974       1.48800791E-10
  0.595000029       1.66088338E-10
  0.600000024       1.79486051E-10
  0.605000019       1.88069629E-10
  0.610000014       1.90746224E-10
  0.615000010       1.86276883E-10
  0.620000005       1.73349279E-10
  0.625000000       1.50700341E-10
  0.629999995       1.17280838E-10
  0.634999990       7.24465141E-11
  0.639999986       1.61538821E-11
  0.644999981      -5.08644966E-11
  0.649999976      -1.26971142E-10
  0.654999971      -2.09564338E-10
  0.660000026      -2.95105052E-10
  0.665000021      -3.79238196E-10
  0.670000017      -4.57005683E-10
  0.675000012      -5.23138366E-10
  0.680000007      -5.72403624E-10
  0.685000002      -5.99977901E-10
  0.689999998      -6.01810601E-10
  0.694999993      -5.74943870E-10
  0.699999988      -5.17758725E-10
  0.704999983      -4.30125241E-10
  0.709999979      -3.13445075E-10
  0.714999974      -1.70586725E-10
  0.720000029      -5.72611186E-12
  0.725000024       1.75885098E-10
  0.730000019       3.68193975E-10
  0.735000014       5.64631675E-10
  0.740000010       7.58379137E-10
  0.745000005       9.42588785E-10
  0.750000000       1.11054854E-09
  0.754999995       1.25578326E-09
  0.759999990       1.37210532E-09
  0.764999986       1.45363155E-09
  0.769999981       1.49479529E-09
  0.774999976       1.49038193E-09
  0.779999971       1.43561762E-09
  0.785000026       1.32633005E-09
  0.790000021       1.15919196E-09
  0.795000017       9.32041777E-10
  0.800000012       6.44262255E-10
  0.805000007       2.97184777E-10
  0.810000002      -1.05526428E-10
  0.814999998      -5.57554503E-10
  0.819999993      -1.04972420E-09
  0.824999988      -1.56994839E-09
  0.829999983      -2.10335194E-09
  0.834999979      -2.63258260E-09
  0.839999974      -3.13829651E-09
  0.845000029      -3.59978736E-09
  0.850000024      -3.99571354E-09
  0.855000019      -4.30486580E-09
  0.860000014      -4.50691084E-09
  0.865000010      -4.58305793E-09
  0.870000005      -4.51659909E-09
  0.875000000      -4.29328573E-09
  0.879999995      -3.90155019E-09
  0.884999990      -3.33255756E-09
  0.889999986      -2.58014787E-09
  0.894999981      -1.64068825E-09
  0.899999976      -5.12910381E-10
  0.904999971       8.02228339E-10
  0.910000026       2.30160424E-09
  0.915000021       3.97988975E-09
  0.920000017       5.82939741E-09
  0.925000012       7.83983634E-09
  0.930000007       9.99800864E-09
  0.935000002       1.22874999E-08
  0.939999998       1.46884540E-08
  0.944999993       1.71774595E-08
  0.949999988       1.97276471E-08
  0.954999983       2.23090257E-08
  0.959999979       2.48890473E-08
  0.964999974       2.74334599E-08
  0.970000029       2.99073086E-08
  0.975000024       3.22761267E-08
  0.980000019       3.45071278E-08
  0.985000014       3.65703876E-08
  0.990000010       3.84398646E-08
  0.995000005       4.00942461E-08
   1.00000000       4.15174810E-08
   1.00500000       4.26990461E-08
   1.00999999       4.36339498E-08
   1.01499999       4.43224764E-08
   1.01999998       4.47697595E-08
   1.02499998       4.49852848E-08
   1.02999997       4.49823823E-08
   1.03499997       4.47777957E-08
   1.03999996       4.43913635E-08
   1.04499996       4.38459011E-08
   1.04999995       4.31671729E-08
   1.05499995       4.23839843E-08
   1.05999994       4.15283345E-08
   1.06500006       4.06354346E-08
   1.07000005       3.97436217E-08
   1.07500005       3.88939725E-08
   1.08000004       3.81296168E-08
   1.08500004       3.74947255E-08
   1.09000003       3.70331179E-08
   1.09500003       3.67866555E-08
   1.10000002       3.67934447E-08
   1.10500002       3.70860604E-08
   1.11000001       3.76898512E-08
   1.11500001       3.86216001E-08
   1.12000000       3.98886080E-08
   1.12500000       4.14882848E-08
   1.13000000       4.34083702E-08
   1.13499999       4.56277007E-08
   1.13999999       4.81175242E-08
   1.14499998       5.08431697E-08
   1.14999998       5.37660156E-08
   1.15499997       5.68454865E-08
   1.15999997       6.00409535E-08
   1.16499996       6.33133936E-08
   1.16999996       6.66267113E-08
   1.17499995       6.99485625E-08
   1.17999995       7.32508809E-08
   1.18499994       7.65099202E-08
   1.19000006       7.97061617E-08
   1.19500005       8.28239806E-08
   1.20000005       8.58514255E-08
   1.20500004       8.87800411E-08
   1.21000004       9.16049530E-08
   1.21500003       9.43252445E-08
   1.22000003       9.69445040E-08
   1.22500002       9.94715776E-08
   1.23000002       1.01921330E-07
   1.23500001       1.04315305E-07
   1.24000001       1.06682052E-07
   1.24500000       1.09057076E-07
   1.25000000       1.11482180E-07
   1.25500000       1.14004195E-07
   1.25999999       1.16673192E-07
   1.26499999       1.19540132E-07
   1.26999998       1.22654228E-07
   1.27499998       1.26060229E-07
   1.27999997       1.29795765E-07