  -3.000000        1.0000000E-24
  -2.995000        1.0000000E-24
  -2.990000        1.0000000E-24
  -2.985000        1.0000000E-24
  -2.980000        1.0000000E-24
  -2.975000        1.0000001E-24
  -2.970000        1.0102682E-24
  -2.965000        1.1151825E-24
  -2.960000        1.6940739E-24
  -2.955000        3.9837176E-24
  -2.950000        1.1186530E-23
  -2.945000        2.9863516E-23
  -2.940000        6.9214372E-23
  -2.935000        1.3000194E-22
  -2.930000        1.6368271E-22
  -2.925000       -3.2062980E-23
  -2.920000       -1.0217096E-21
  -2.915000       -4.0597144E-21
  -2.910000       -1.1465286E-20
  -2.905000       -2.6796290E-20
  -2.900000       -5.4326612E-20
  -2.895000       -9.7099242E-20
  -2.890000       -1.5279249E-19
  -2.885000       -2.0704770E-19
  -2.880000       -2.2498809E-19
  -2.875000       -1.4345833E-19
  -2.870000        1.3127293E-19
  -2.865000        7.1374665E-19
  -2.860000        1.7105664E-18
  -2.855000        3.1682918E-18
  -2.850000        4.9999197E-18
  -2.845000        6.9019040E-18
  -2.840000        8.2856705E-18
  -2.835000        8.2581990E-18
  -2.830000        5.6906899E-18
  -2.825000       -5.9209578E-19
  -2.820000       -1.1490077E-17
  -2.815000       -2.7197043E-17
  -2.810000       -4.6729074E-17
  -2.805000       -6.7525791E-17
  -2.800000       -8.5270542E-17
  -2.795000       -9.4081180E-17
  -2.790000       -8.7190071E-17
  -2.785000       -5.8154814E-17
  -2.780000       -2.5251014E-18
  -2.775000        8.0249033E-17
  -2.770000        1.8502009E-16
  -2.765000        2.9971136E-16
  -2.760000        4.0513710E-16
  -2.755000        4.7629526E-16
  -2.750000        4.8537323E-16
  -2.745000        4.0642287E-16
  -2.740000        2.2129723E-16
  -2.735000       -7.3940246E-17
  -2.730000       -4.6325603E-16
  -2.725000       -9.0685560E-16
  -2.720000       -1.3406736E-15
  -2.715000       -1.6801937E-15
  -2.710000       -1.8291223E-15
  -2.705000       -1.6926903E-15
  -2.700000       -1.1944848E-15
  -2.695000       -2.9484269E-16
  -2.690000        9.9186605E-16
  -2.685000        2.5841247E-15
  -2.680000        4.3273363E-15
  -2.675000        5.9975472E-15
  -2.670000        7.3162928E-15
  -2.665000        7.9766465E-15
  -2.660000        7.6789720E-15
  -2.655000        6.1732956E-15
  -2.650000        3.3038806E-15
  -2.645000       -9.4933420E-16
  -2.640000       -6.4380645E-15
  -2.635000       -1.2827097E-14
  -2.630000       -1.9594086E-14
  -2.625000       -2.6050485E-14
  -2.620000       -3.1384349E-14
  -2.615000       -3.4723624E-14
  -2.610000       -3.5216252E-14
  -2.605000       -3.2121451E-14
  -2.600000       -2.4904922E-14
  -2.595000       -1.3329489E-14
  -2.590000        2.4677615E-15
  -2.585000        2.1920674E-14
  -2.580000        4.4009596E-14
  -2.575000        6.7273762E-14
  -2.570000        8.9864680E-14
  -2.565000        1.0964199E-13
  -2.560000        1.2430969E-13
  -2.555000        1.3158706E-13
  -2.550000        1.2940500E-13
  -2.545000        1.1611476E-13
  -2.540000        9.0692949E-14
  -2.535000        5.2925830E-14
  -2.530000        3.5537352E-15
  -2.525000       -5.5641269E-14
  -2.520000       -1.2181936E-13
  -2.515000       -1.9114913E-13
  -2.510000       -2.5896074E-13
  -2.505000       -3.1998449E-13
  -2.500000       -3.6866541E-13
  -2.495000       -3.9953850E-13
  -2.490000       -4.0764178E-13
  -2.485000       -3.8894026E-13
  -2.480000       -3.4072989E-13
  -2.475000       -2.6199054E-13
  -2.470000       -1.5365722E-13
  -2.465000       -1.8782891E-14
  -2.460000        1.3742791E-13
  -2.455000        3.0772826E-13
  -2.450000        4.8308579E-13
  -2.445000        6.5308186E-13
  -2.440000        8.0643765E-13
  -2.435000        9.3164365E-13
  -2.430000        1.0176584E-12
  -2.425000        1.0546376E-12
  -2.420000        1.0346483E-12
  -2.415000        9.5232361E-13
  -2.410000        8.0541227E-13
  -2.405000        5.9518232E-13
  -2.400000        3.2664672E-13
  -2.395000        8.5856759E-15
  -2.390000       -3.4664499E-13
  -2.385000       -7.2352026E-13
  -2.380000       -1.1039535E-12
  -2.375000       -1.4680799E-12
  -2.370000       -1.7951803E-12
  -2.365000       -2.0647015E-12
  -2.360000       -2.2573208E-12
  -2.355000       -2.3560062E-12
  -2.350000       -2.3470126E-12
  -2.345000       -2.2207707E-12
  -2.340000       -1.9726187E-12
  -2.335000       -1.6033380E-12
  -2.330000       -1.1194695E-12
  -2.325000       -5.3338502E-13
  -2.320000        1.3688979E-13
  -2.315000        8.6810312E-13
  -2.310000        1.6324402E-12
  -2.305000        2.3984014E-12
  -2.300000        3.1318689E-12
  -2.295000        3.7973244E-12
  -2.290000        4.3591775E-12
  -2.285000        4.7831691E-12
  -2.280000        5.0377974E-12
  -2.275000        5.0957350E-12
  -2.270000        4.9351898E-12
  -2.265000        4.5411700E-12
  -2.260000        3.9066203E-12
  -2.255000        3.0333886E-12
  -2.250000        1.9329861E-12
  -2.245000        6.2710096E-13
  -2.240000       -8.5217120E-13
  -2.235000       -2.4624231E-12
  -2.230000       -4.1514023E-12
  -2.225000       -5.8578810E-12
  -2.220000       -7.5129659E-12
  -2.215000       -9.0418653E-12
  -2.210000       -1.0366128E-11
  -2.205000       -1.1406324E-11
  -2.200000       -1.2085151E-11
  -2.195000       -1.2330875E-11
  -2.190000       -1.2081027E-11
  -2.185000       -1.1286211E-11
  -2.180000       -9.9138857E-12
  -2.175000       -7.9519299E-12
  -2.170000       -5.4117795E-12
  -2.165000       -2.3309549E-12
  -2.160000        1.2252532E-12
  -2.155000        5.1631260E-12
  -2.150000        9.3610788E-12
  -2.145000        1.3671570E-11
  -2.140000        1.7924452E-11
  -2.135000        2.1931814E-11
  -2.130000        2.5494249E-11
  -2.125000        2.8408472E-11
  -2.120000        3.0476038E-11
  -2.115000        3.1512921E-11
  -2.110000        3.1359530E-11
  -2.105000        2.9890760E-11
  -2.100000        2.7025550E-11
  -2.095000        2.2735418E-11
  -2.090000        1.7051386E-11
  -2.085000        1.0068817E-11
  -2.080000        1.9496299E-12
  -2.075000       -7.0784698E-12
  -2.070000       -1.6726018E-11
  -2.065000       -2.6649212E-11
  -2.060000       -3.6460661E-11
  -2.055000       -4.5743249E-11
  -2.050000       -5.4066689E-11
  -2.045000       -6.1006186E-11
  -2.040000       -6.6162444E-11
  -2.035000       -6.9182146E-11
  -2.030000       -6.9777899E-11
  -2.025000       -6.7746656E-11
  -2.020000       -6.2985520E-11
  -2.015000       -5.5504028E-11
  -2.010000       -4.5431936E-11
  -2.005000       -3.3021842E-11
  -2.000000       -1.8646119E-11
  -1.995000       -2.7879081E-12
  -1.990000        1.3973876E-11
  -1.985000        3.0985145E-11
  -1.980000        4.7542296E-11
  -1.975000        6.2921925E-11
  -1.970000        7.6413542E-11
  -1.965000        8.7353701E-11
  -1.960000        9.5160151E-11
  -1.955000        9.9364211E-11
  -1.950000        9.9639762E-11
  -1.945000        9.5827152E-11
  -1.940000        8.7950626E-11
  -1.935000        7.6228142E-11
  -1.930000        6.1072446E-11
  -1.925000        4.3083134E-11
  -1.920000        2.3029431E-11
  -1.915000        1.8240973E-12
  -1.910000       -1.9510827E-11
  -1.905000       -3.9885244E-11
  -1.900000       -5.8187583E-11
  -1.895000       -7.3334942E-11
  -1.890000       -8.4324651E-11
  -1.885000       -9.0284974E-11
  -1.880000       -9.0522700E-11
  -1.875000       -8.4565334E-11
  -1.870000       -7.2195847E-11
  -1.865000       -5.3478146E-11
  -1.860000       -2.8771777E-11
  -1.855000        1.2650823E-12
  -1.850000        3.5684965E-11
  -1.845000        7.3272825E-11
  -1.840000        1.1257949E-10
  -1.835000        1.5196600E-10
  -1.830000        1.8965710E-10
  -1.825000        2.2380235E-10
  -1.820000        2.5254218E-10
  -1.815000        2.7407662E-10
  -1.810000        2.8673439E-10
  -1.805000        2.8903907E-10
  -1.800000        2.7977071E-10
  -1.795000        2.5801983E-10
  -1.790000        2.2323227E-10
  -1.785000        1.7524328E-10
  -1.780000        1.1429933E-10
  -1.775000        4.1067250E-11
  -1.770000       -4.3369579E-11
  -1.765000       -1.3752789E-10
  -1.760000       -2.3955310E-10
  -1.755000       -3.4725908E-10
  -1.750000       -4.5817697E-10
  -1.745000       -5.6961225E-10
  -1.740000       -6.7870742E-10
  -1.735000       -7.8250834E-10
  -1.730000       -8.7803326E-10
  -1.725000       -9.6234087E-10
  -1.720000       -1.0325969E-09
  -1.715000       -1.0861378E-09
  -1.710000       -1.1205287E-09
  -1.705000       -1.1336163E-09
  -1.700000       -1.1235756E-09
  -1.695000       -1.0889479E-09
  -1.690000       -1.0286737E-09
  -1.685000       -9.4211616E-10
  -1.680000       -8.2907919E-10
  -1.675000       -6.8981743E-10
  -1.670000       -5.2504068E-10
  -1.665000       -3.3591188E-10
  -1.660000       -1.2403972E-10
  -1.655000        1.0853345E-10
  -1.650000        3.5934869E-10
  -1.645000        6.2555133E-10
  -1.640000        9.0391622E-10
  -1.635000        1.1908758E-09
  -1.630000        1.4825527E-09
  -1.625000        1.7747948E-09
  -1.620000        2.0632132E-09
  -1.615000        2.3432243E-09
  -1.610000        2.6100935E-09
  -1.605000        2.8589817E-09
  -1.600000        3.0849949E-09
  -1.595000        3.2832357E-09
  -1.590000        3.4488550E-09
  -1.585000        3.5771075E-09
  -1.580000        3.6634069E-09
  -1.575000        3.7033805E-09
  -1.570000        3.6929271E-09
  -1.565000        3.6282730E-09
  -1.560000        3.5060261E-09
  -1.555000        3.3232335E-09
  -1.550000        3.0774352E-09
  -1.545000        2.7667189E-09
  -1.540000        2.3897726E-09
  -1.535000        1.9459396E-09
  -1.530000        1.4352689E-09
  -1.525000        8.5856816E-10
  -1.520000        2.1745461E-10
  -1.515000       -4.8559534E-10
  -1.510000       -1.2471986E-09
  -1.505000       -2.0630198E-09
  -1.500000       -2.9277305E-09
  -1.495000       -3.8349746E-09
  -1.490000       -4.7773385E-09
  -1.485000       -5.7463359E-09
  -1.480000       -6.7323960E-09
  -1.475000       -7.7248759E-09
  -1.470000       -8.7120799E-09
  -1.465000       -9.6813055E-09
  -1.460000       -1.0618906E-08
  -1.455000       -1.1510372E-08
  -1.450000       -1.2340448E-08
  -1.445000       -1.3093255E-08
  -1.440000       -1.3752457E-08
  -1.435000       -1.4301434E-08
  -1.430000       -1.4723479E-08
  -1.425000       -1.5002017E-08
  -1.420000       -1.5120838E-08
  -1.415000       -1.5064327E-08
  -1.410000       -1.4817707E-08
  -1.405000       -1.4367284E-08
  -1.400000       -1.3700672E-08
  -1.395000       -1.2807003E-08
  -1.390000       -1.1677127E-08
  -1.385000       -1.0303768E-08
  -1.380000       -8.6816554E-09
  -1.375000       -6.8076202E-09
  -1.370000       -4.6806372E-09
  -1.365000       -2.3018321E-09
  -1.360000        3.2556249E-10
  -1.355000        3.1962923E-09
  -1.350000        6.3032175E-09
  -1.345000        9.6374819E-09
  -1.340000        1.3188727E-08
  -1.335000        1.6945325E-08
  -1.330000        2.0894651E-08
  -1.325000        2.5023352E-08
  -1.320000        2.9317643E-08
  -1.315000        3.3763584E-08
  -1.310000        3.8347345E-08
  -1.305000        4.3055476E-08
  -1.300000        4.7875115E-08
  -1.295000        5.2794199E-08
  -1.290000        5.7801582E-08
  -1.285000        6.2887175E-08
  -1.280000        6.8041963E-08
  -1.275000        7.3258043E-08
  -1.270000        7.8528551E-08
  -1.265000        8.3847603E-08
  -1.260000        8.9210111E-08
  -1.255000        9.4611671E-08
  -1.250000        1.0004830E-07
  -1.245000        1.0551630E-07
  -1.240000        1.1101193E-07
  -1.235000        1.1653123E-07
  -1.230000        1.2206984E-07
  -1.225000        1.2762270E-07
  -1.220000        1.3318405E-07
  -1.215000        1.3874715E-07
  -1.210000        1.4430438E-07
  -1.205000        1.4984708E-07
  -1.200000        1.5536578E-07
  -1.195000        1.6085021E-07
  -1.190000        1.6628955E-07
  -1.185000        1.7167280E-07
  -1.180000        1.7698896E-07
  -1.175000        1.8222761E-07
  -1.170000        1.8737917E-07
  -1.165000        1.9243552E-07
  -1.160000        1.9739043E-07
  -1.155000        2.0224007E-07
  -1.150000        2.0698350E-07
  -1.145000        2.1162309E-07
  -1.140000        2.1616495E-07
  -1.135000        2.2061919E-07
  -1.130000        2.2500026E-07
  -1.125000        2.2932696E-07
  -1.120000        2.3362261E-07
  -1.115000        2.3791488E-07
  -1.110000        2.4223550E-07
  -1.105000        2.4662012E-07
  -1.100000        2.5110774E-07
  -1.095000        2.5574016E-07
  -1.090000        2.6056134E-07
  -1.085000        2.6561665E-07
  -1.080000        2.7095223E-07
  -1.075000        2.7661395E-07
  -1.070000        2.8264679E-07
  -1.065000        2.8909389E-07
  -1.060000        2.9599587E-07
  -1.055000        3.0339021E-07
  -1.050000        3.1131046E-07
  -1.045000        3.1978604E-07
  -1.040000        3.2884171E-07
  -1.035000        3.3849744E-07
  -1.030000        3.4876848E-07
  -1.025000        3.5966522E-07
  -1.020000        3.7119378E-07
  -1.015000        3.8335614E-07
  -1.010000        3.9615091E-07
  -1.005000        4.0957372E-07
  -1.000000        4.2361813E-07
 -0.9950000        4.3827632E-07
 -0.9900000        4.5353985E-07
 -0.9850000        4.6940042E-07
 -0.9800000        4.8585065E-07
 -0.9750000        5.0288480E-07
 -0.9700000        5.2049916E-07
 -0.9650000        5.3869252E-07
 -0.9600000        5.5746682E-07
 -0.9550000        5.7682695E-07
 -0.9500000        5.9678109E-07
 -0.9450000        6.1734033E-07
 -0.9400000        6.3851883E-07
 -0.9350000        6.6033300E-07
 -0.9300000        6.8280161E-07
 -0.9250000        7.0594490E-07
 -0.9200000        7.2978423E-07
 -0.9150000        7.5434161E-07
 -0.9100000        7.7963909E-07
 -0.9050000        8.0569839E-07
 -0.9000000        8.3254042E-07
 -0.8950000        8.6018531E-07
 -0.8900000        8.8865164E-07
 -0.8850000        9.1795727E-07
 -0.8800000        9.4811867E-07
 -0.8750000        9.7915142E-07
 -0.8700000        1.0110707E-06
 -0.8650000        1.0438918E-06
 -0.8600000        1.0776300E-06
 -0.8550000        1.1123019E-06
 -0.8500000        1.1479257E-06
 -0.8450000        1.1845216E-06
 -0.8400000        1.2221125E-06
 -0.8350000        1.2607243E-06
 -0.8300000        1.3003867E-06
 -0.8250000        1.3411328E-06
 -0.8200000        1.3829998E-06
 -0.8150000        1.4260281E-06
 -0.8100000        1.4702621E-06
 -0.8050000        1.5157486E-06
 -0.8000000        1.5625377E-06
 -0.7950000        1.6106807E-06
 -0.7900000        1.6602305E-06
 -0.7850000        1.7112402E-06
 -0.7800000        1.7637627E-06
 -0.7750000        1.8178498E-06
 -0.7700000        1.8735517E-06
 -0.7650000        1.9309161E-06
 -0.7600000        1.9899880E-06
 -0.7550000        2.0508094E-06
 -0.7500000        2.1134192E-06
 -0.7450000        2.1778533E-06
 -0.7400000        2.2441448E-06
 -0.7350000        2.3123241E-06
 -0.7300000        2.3824214E-06
 -0.7250000        2.4544645E-06
 -0.7200000        2.5284826E-06
 -0.7150000        2.6045054E-06
 -0.7100000        2.6825655E-06
 -0.7050000        2.7626993E-06
 -0.7000000        2.8449463E-06
 -0.6950000        2.9293528E-06
 -0.6900000        3.0159704E-06
 -0.6850000        3.1048580E-06
 -0.6800000        3.1960813E-06
 -0.6750000        3.2897130E-06
 -0.6700000        3.3858337E-06
 -0.6650000        3.4845300E-06
 -0.6600000        3.5858955E-06
 -0.6550000        3.6900287E-06
 -0.6500000        3.7970335E-06
 -0.6450000        3.9070160E-06
 -0.6400000        4.0200857E-06
 -0.6350000        4.1363523E-06
 -0.6300000        4.2559259E-06
 -0.6250000        4.3789155E-06
 -0.6200000        4.5054271E-06
 -0.6150000        4.6355631E-06
 -0.6100000        4.7694216E-06
 -0.6050000        4.9070968E-06
 -0.6000000        5.0486774E-06
 -0.5950000        5.1942479E-06
 -0.5900000        5.3438866E-06
 -0.5850000        5.4976686E-06
 -0.5800000        5.6556655E-06
 -0.5750000        5.8179462E-06
 -0.5700000        5.9845775E-06
 -0.5650000        6.1556252E-06
 -0.5600000        6.3311568E-06
 -0.5550000        6.5112413E-06
 -0.5500000        6.6959506E-06
 -0.5450000        6.8853615E-06
 -0.5400000        7.0795563E-06
 -0.5350000        7.2786233E-06
 -0.5300000        7.4826571E-06
 -0.5250000        7.6917604E-06
 -0.5200000        7.9060419E-06
 -0.5150000        8.1256212E-06
 -0.5100000        8.3506211E-06
 -0.5050000        8.5811735E-06
 -0.5000000        8.8174174E-06
 -0.4950000        9.0594958E-06
 -0.4900000        9.3075578E-06
 -0.4850000        9.5617543E-06
 -0.4800000        9.8222445E-06
 -0.4750000        1.0089185E-05
 -0.4700000        1.0362739E-05
 -0.4650000        1.0643068E-05
 -0.4600000        1.0930336E-05
 -0.4550000        1.1224705E-05
 -0.4500000        1.1526342E-05
 -0.4450000        1.1835408E-05
 -0.4400000        1.2152070E-05
 -0.4350000        1.2476489E-05
 -0.4300000        1.2808834E-05
 -0.4250000        1.3149272E-05
 -0.4200000        1.3497975E-05
 -0.4150000        1.3855111E-05
 -0.4100000        1.4220861E-05
 -0.4050000        1.4595405E-05
 -0.4000000        1.4978928E-05
 -0.3950000        1.5371623E-05
 -0.3900000        1.5773685E-05
 -0.3850000        1.6185315E-05
 -0.3800000        1.6606724E-05
 -0.3750000        1.7038126E-05
 -0.3700000        1.7479742E-05
 -0.3650000        1.7931796E-05
 -0.3600000        1.8394523E-05
 -0.3550000        1.8868157E-05
 -0.3500000        1.9352939E-05
 -0.3450000        1.9849120E-05
 -0.3400000        2.0356942E-05
 -0.3350000        2.0876660E-05
 -0.3300000        2.1408523E-05
 -0.3250000        2.1952788E-05
 -0.3200000        2.2509712E-05
 -0.3150000        2.3079545E-05
 -0.3100000        2.3662547E-05
 -0.3050000        2.4258972E-05
 -0.3000000        2.4869079E-05
 -0.2950000        2.5493126E-05
 -0.2900000        2.6131373E-05
 -0.2850000        2.6784077E-05
 -0.2800000        2.7451504E-05
 -0.2750000        2.8133918E-05
 -0.2700000        2.8831588E-05
 -0.2650000        2.9544788E-05
 -0.2600000        3.0273794E-05
 -0.2550000        3.1018888E-05
 -0.2500000        3.1780357E-05
 -0.2450000        3.2558492E-05
 -0.2400000        3.3353605E-05
 -0.2350000        3.4165994E-05
 -0.2300000        3.4995981E-05
 -0.2250000        3.5843892E-05
 -0.2200000        3.6710058E-05
 -0.2150000        3.7594818E-05
 -0.2100000        3.8498525E-05
 -0.2050000        3.9421535E-05
 -0.2000000        4.0364208E-05
 -0.1950000        4.1326923E-05
 -0.1900000        4.2310050E-05
 -0.1850000        4.3313972E-05
 -0.1800000        4.4339082E-05
 -0.1750000        4.5385783E-05
 -0.1700000        4.6454472E-05
 -0.1650000        4.7545564E-05
 -0.1600000        4.8659469E-05
 -0.1550000        4.9796614E-05
 -0.1500000        5.0957417E-05
 -0.1450000        5.2142303E-05
 -0.1400000        5.3351709E-05
 -0.1350000        5.4586071E-05
 -0.1300000        5.5845831E-05
 -0.1250000        5.7131438E-05
 -0.1200000        5.8443336E-05
 -0.1150000        5.9781985E-05
 -0.1100000        6.1147854E-05
 -0.1050000        6.2541403E-05
 -0.1000000        6.3963111E-05
 -9.4999999E-02    6.5413442E-05
 -9.0000004E-02    6.6892884E-05
 -8.5000001E-02    6.8401918E-05
 -7.9999998E-02    6.9941038E-05
 -7.5000003E-02    7.1510738E-05
 -7.0000000E-02    7.3111507E-05
 -6.4999998E-02    7.4743861E-05
 -5.9999999E-02    7.6408294E-05
 -5.5000000E-02    7.8105331E-05
 -5.0000001E-02    7.9835467E-05
 -4.5000002E-02    8.1599232E-05
 -3.9999999E-02    8.3397150E-05
 -3.5000000E-02    8.5229745E-05
 -2.9999999E-02    8.7097564E-05
 -2.5000000E-02    8.9001129E-05
 -2.0000000E-02    9.0940972E-05
 -1.5000000E-02    9.2917653E-05
 -9.9999998E-03    9.4931718E-05
 -4.9999999E-03    9.6983735E-05
  0.0000000E+00    9.9074256E-05
  4.9999999E-03    1.0120385E-04
  9.9999998E-03    1.0337310E-04
  1.5000000E-02    1.0558260E-04
  2.0000000E-02    1.0783292E-04
  2.5000000E-02    1.1012466E-04
  2.9999999E-02    1.1245845E-04
  3.5000000E-02    1.1483492E-04
  3.9999999E-02    1.1725466E-04
  4.5000002E-02    1.1971834E-04
  5.0000001E-02    1.2222661E-04
  5.5000000E-02    1.2478010E-04
  5.9999999E-02    1.2737951E-04
  6.4999998E-02    1.3002551E-04
  7.0000000E-02    1.3271879E-04
  7.5000003E-02    1.3546001E-04
  7.9999998E-02    1.3824992E-04
  8.5000001E-02    1.4108917E-04
  9.0000004E-02    1.4397850E-04
  9.4999999E-02    1.4691862E-04
  0.1000000        1.4991025E-04
  0.1050000        1.5295410E-04
  0.1100000        1.5605091E-04
  0.1150000        1.5920140E-04
  0.1200000        1.6240629E-04
  0.1250000        1.6566628E-04
  0.1300000        1.6898217E-04
  0.1350000        1.7235460E-04
  0.1400000        1.7578437E-04
  0.1450000        1.7927216E-04
  0.1500000        1.8281874E-04
  0.1550000        1.8642483E-04
  0.1600000        1.9009113E-04
  0.1650000        1.9381841E-04
  0.1700000        1.9760740E-04
  0.1750000        2.0145885E-04
  0.1800000        2.0537348E-04
  0.1850000        2.0935206E-04
  0.1900000        2.1339535E-04
  0.1950000        2.1750414E-04
  0.2000000        2.2167918E-04
  0.2050000        2.2592126E-04
  0.2100000        2.3023116E-04
  0.2150000        2.3460969E-04
  0.2200000        2.3905764E-04
  0.2250000        2.4357582E-04
  0.2300000        2.4816502E-04
  0.2350000        2.5282605E-04
  0.2400000        2.5755976E-04
  0.2450000        2.6236699E-04
  0.2500000        2.6724854E-04
  0.2550000        2.7220527E-04
  0.2600000        2.7723797E-04
  0.2650000        2.8234749E-04
  0.2700000        2.8753467E-04
  0.2750000        2.9280040E-04
  0.2800000        2.9814546E-04
  0.2850000        3.0357076E-04
  0.2900000        3.0907709E-04
  0.2950000        3.1466532E-04
  0.3000000        3.2033626E-04
  0.3050000        3.2609078E-04
  0.3100000        3.3192974E-04
  0.3150000        3.3785397E-04
  0.3200000        3.4386435E-04
  0.3250000        3.4996177E-04
  0.3300000        3.5614707E-04
  0.3350000        3.6242107E-04
  0.3400000        3.6878468E-04
  0.3450000        3.7523877E-04
  0.3500000        3.8178414E-04
  0.3550000        3.8842164E-04
  0.3600000        3.9515219E-04
  0.3650000        4.0197663E-04
  0.3700000        4.0889575E-04
  0.3750000        4.1591044E-04
  0.3800000        4.2302153E-04
  0.3850000        4.3022988E-04
  0.3900000        4.3753625E-04
  0.3950000        4.4494148E-04
  0.4000000        4.5244643E-04
  0.4050000        4.6005187E-04
  0.4100000        4.6775863E-04
  0.4150000        4.7556739E-04
  0.4200000        4.8347903E-04
  0.4250000        4.9149425E-04
  0.4300000        4.9961382E-04
  0.4350000        5.0783850E-04
  0.4400000        5.1616906E-04
  0.4450000        5.2460626E-04
  0.4500000        5.3315080E-04
  0.4550000        5.4180349E-04
  0.4600000        5.5056496E-04
  0.4650000        5.5943622E-04
  0.4700000        5.6841789E-04
  0.4750000        5.7751080E-04
  0.4800000        5.8671582E-04
  0.4850000        5.9603353E-04
  0.4900000        6.0546491E-04
  0.4950000        6.1501050E-04
  0.5000000        6.2467111E-04
  0.5050000        6.3444750E-04
  0.5100000        6.4434041E-04
  0.5150000        6.5435062E-04
  0.5200000        6.6447892E-04
  0.5250000        6.7472598E-04
  0.5300000        6.8509264E-04
  0.5350000        6.9557963E-04
  0.5400000        7.0618757E-04
  0.5450000        7.1691704E-04
  0.5500000        7.2776875E-04
  0.5550000        7.3874323E-04
  0.5600000        7.4984116E-04
  0.5650000        7.6106301E-04
  0.5700000        7.7240932E-04
  0.5750000        7.8388071E-04
  0.5800000        7.9547771E-04
  0.5850000        8.0720091E-04
  0.5900000        8.1905094E-04
  0.5950000        8.3102821E-04
  0.6000000        8.4313331E-04
  0.6050000        8.5536658E-04
  0.6100000        8.6772855E-04
  0.6150000        8.8021962E-04
  0.6200000        8.9284033E-04
  0.6250000        9.0559100E-04
  0.6300000        9.1847219E-04
  0.6350000        9.3148428E-04
  0.6400000        9.4462768E-04
  0.6450000        9.5790287E-04
  0.6500000        9.7131036E-04
  0.6550000        9.8485046E-04
  0.6600000        9.9852367E-04
  0.6650000        1.0123303E-03
  0.6700000        1.0262708E-03
  0.6750000        1.0403453E-03
  0.6800000        1.0545541E-03
  0.6850000        1.0688978E-03
  0.6900000        1.0833762E-03
  0.6950000        1.0979899E-03
  0.7000000        1.1127389E-03
  0.7050000        1.1276236E-03
  0.7100000        1.1426442E-03
  0.7150000        1.1578008E-03
  0.7200000        1.1730936E-03
  0.7250000        1.1885226E-03
  0.7300000        1.2040879E-03
  0.7350000        1.2197896E-03
  0.7400000        1.2356277E-03
  0.7450000        1.2516023E-03
  0.7500000        1.2677130E-03
  0.7550000        1.2839602E-03
  0.7600000        1.3003437E-03
  0.7650000        1.3168632E-03
  0.7700000        1.3335191E-03
  0.7750000        1.3503109E-03
  0.7800000        1.3672387E-03
  0.7850000        1.3843024E-03
  0.7900000        1.4015017E-03
  0.7950000        1.4188363E-03
  0.8000000        1.4363062E-03
  0.8050000        1.4539110E-03
  0.8100000        1.4716506E-03
  0.8150000        1.4895246E-03
  0.8200000        1.5075329E-03
  0.8250000        1.5256748E-03
  0.8300000        1.5439505E-03
  0.8350000        1.5623594E-03
  0.8400000        1.5809009E-03
  0.8450000        1.5995748E-03
  0.8500000        1.6183808E-03
  0.8550000        1.6373183E-03
  0.8600000        1.6563870E-03
  0.8650000        1.6755861E-03
  0.8700000        1.6949152E-03
  0.8750000        1.7143738E-03
  0.8800000        1.7339615E-03
  0.8850000        1.7536776E-03
  0.8900000        1.7735214E-03
  0.8950000        1.7934927E-03
  0.9000000        1.8135903E-03
  0.9050000        1.8338138E-03
  0.9100000        1.8541627E-03
  0.9150000        1.8746358E-03
  0.9200000        1.8952327E-03
  0.9250000        1.9159524E-03
  0.9300000        1.9367944E-03
  0.9350000        1.9577576E-03
  0.9400000        1.9788411E-03
  0.9450000        2.0000443E-03
  0.9500000        2.0213663E-03
  0.9550000        2.0428058E-03
  0.9600000        2.0643619E-03
  0.9650000        2.0860336E-03
  0.9700000        2.1078198E-03
  0.9750000        2.1297194E-03
  0.9800000        2.1517309E-03
  0.9850000        2.1738538E-03
  0.9900000        2.1960870E-03
  0.9950000        2.2184292E-03
   1.000000        2.2408790E-03
   1.005000        2.2634356E-03
   1.010000        2.2860975E-03
   1.015000        2.3088637E-03
   1.020000        2.3317325E-03
   1.025000        2.3547027E-03
   1.030000        2.3777732E-03
   1.035000        2.4009424E-03
   1.040000        2.4242089E-03
   1.045000        2.4475714E-03
   1.050000        2.4710281E-03
   1.055000        2.4945780E-03
   1.060000        2.5182196E-03
   1.065000        2.5419511E-03
   1.070000        2.5657713E-03
   1.075000        2.5896786E-03
   1.080000        2.6136718E-03
   1.085000        2.6377486E-03
   1.090000        2.6619080E-03
   1.095000        2.6861480E-03
   1.100000        2.7104667E-03
   1.105000        2.7348627E-03
   1.110000        2.7593339E-03
   1.115000        2.7838787E-03
   1.120000        2.8084957E-03
   1.125000        2.8331825E-03
   1.130000        2.8579379E-03
   1.135000        2.8827603E-03
   1.140000        2.9076475E-03
   1.145000        2.9325977E-03
   1.150000        2.9576092E-03
   1.155000        2.9826800E-03
   1.160000        3.0078082E-03
   1.165000        3.0329924E-03
   1.170000        3.0582296E-03
   1.175000        3.0835189E-03
   1.180000        3.1088577E-03
   1.185000        3.1342441E-03
   1.190000        3.1596762E-03
   1.195000        3.1851521E-03
   1.200000        3.2106696E-03
   1.205000        3.2362270E-03
   1.210000        3.2618220E-03
   1.215000        3.2874527E-03
   1.220000        3.3131165E-03
   1.225000        3.3388117E-03
   1.230000        3.3645360E-03
   1.235000        3.3902875E-03
   1.240000        3.4160637E-03
   1.245000        3.4418630E-03
   1.250000        3.4676827E-03
   1.255000        3.4935214E-03
   1.260000        3.5193763E-03
   1.265000        3.5452456E-03
   1.270000        3.5711268E-03
   1.275000        3.5970183E-03
   1.280000        3.6229170E-03
   1.285000        3.6488210E-03
   1.290000        3.6747279E-03
   1.295000        3.7006359E-03
   1.300000        3.7265422E-03
   1.305000        3.7524451E-03
   1.310000        3.7783422E-03
   1.315000        3.8042315E-03
   1.320000        3.8301107E-03
   1.325000        3.8559770E-03
   1.330000        3.8818284E-03
   1.335000        3.9076624E-03
   1.340000        3.9334772E-03
   1.345000        3.9592702E-03
   1.350000        3.9850399E-03
   1.355000        4.0107821E-03
   1.360000        4.0364964E-03
   1.365000        4.0621795E-03
   1.370000        4.0878290E-03
   1.375000        4.1134432E-03
   1.380000        4.1390187E-03
   1.385000        4.1645542E-03
   1.390000        4.1900463E-03
   1.395000        4.2154929E-03
   1.400000        4.2408919E-03
   1.405000        4.2662411E-03
   1.410000        4.2915391E-03
   1.415000        4.3167821E-03
   1.420000        4.3419688E-03
   1.425000        4.3670968E-03
   1.430000        4.3921638E-03
   1.435000        4.4171684E-03
   1.440000        4.4421074E-03
   1.445000        4.4669788E-03
   1.450000        4.4917804E-03
   1.455000        4.5165098E-03
   1.460000        4.5411652E-03
   1.465000        4.5657437E-03
   1.470000        4.5902440E-03
   1.475000        4.6146633E-03
   1.480000        4.6389997E-03
   1.485000        4.6632513E-03
   1.490000        4.6874168E-03
   1.495000        4.7114934E-03
   1.500000        4.7354801E-03
   1.505000        4.7593731E-03
   1.510000        4.7831717E-03
   1.515000        4.8068734E-03
   1.520000        4.8304754E-03
   1.525000        4.8539760E-03
   1.530000        4.8773736E-03
   1.535000        4.9006650E-03
   1.540000        4.9238498E-03