  -3.000000        1.0000000E-24
  -2.995000        1.0000000E-24
  -2.990000        1.0000000E-24
  -2.985000        1.0000001E-24
  -2.980000        1.0000002E-24
  -2.975000        1.0000002E-24
  -2.970000        1.0000002E-24
  -2.965000        1.0000001E-24
  -2.960000        9.9999992E-25
  -2.955000        9.9999992E-25
  -2.950000        1.0000001E-24
  -2.945000        1.0000003E-24
  -2.940000        1.0000004E-24
  -2.935000        1.0000004E-24
  -2.930000        1.0000004E-24
  -2.925000        1.0000003E-24
  -2.920000        1.0000002E-24
  -2.915000        1.0000001E-24
  -2.910000        1.0000000E-24
  -2.905000        9.9999982E-25
  -2.900000        9.9999972E-25
  -2.895000        9.9999992E-25
  -2.890000        1.0000002E-24
  -2.885000        1.0000005E-24
  -2.880000        1.0000007E-24
  -2.875000        1.0000006E-24
  -2.870000        1.0000000E-24
  -2.865000        9.9999933E-25
  -2.860000        9.9999893E-25
  -2.855000        9.9999913E-25
  -2.850000        9.9999972E-25
  -2.845000        1.0000006E-24
  -2.840000        1.0000014E-24
  -2.835000        1.0000016E-24
  -2.830000        1.0000011E-24
  -2.825000        1.0000003E-24
  -2.820000        9.9999943E-25
  -2.815000        9.9999903E-25
  -2.810000        9.9999903E-25
  -2.805000        9.9999953E-25
  -2.800000        1.0000003E-24
  -2.795000        1.0000008E-24
  -2.790000        1.0000009E-24
  -2.785000        1.0000005E-24
  -2.780000        9.9999982E-25
  -2.775000        9.9999923E-25
  -2.770000        9.9999913E-25
  -2.765000        9.9999943E-25
  -2.760000        9.9999992E-25
  -2.755000        1.0000004E-24
  -2.750000        1.0000008E-24
  -2.745000        1.0000009E-24
  -2.740000        1.0000008E-24
  -2.735000        1.0000007E-24
  -2.730000        1.0000003E-24
  -2.725000        9.9999992E-25
  -2.720000        9.9999963E-25
  -2.715000        9.9999933E-25
  -2.710000        9.9999933E-25
  -2.705000        9.9999972E-25
  -2.700000        1.0000003E-24
  -2.695000        1.0000008E-24
  -2.690000        1.0000010E-24
  -2.685000        1.0000008E-24
  -2.680000        1.0000003E-24
  -2.675000        9.9999972E-25
  -2.670000        9.9999953E-25
  -2.665000        9.9999982E-25
  -2.660000        1.0000002E-24
  -2.655000        1.0000006E-24
  -2.650000        1.0000007E-24
  -2.645000        1.0000004E-24
  -2.640000        9.9999982E-25
  -2.635000        9.9999933E-25
  -2.630000        9.9999923E-25
  -2.625000        9.9999943E-25
  -2.620000        9.9999992E-25
  -2.615000        1.0000004E-24
  -2.610000        1.0000008E-24
  -2.605000        1.0000009E-24
  -2.600000        1.0000007E-24
  -2.595000        1.0000002E-24
  -2.590000        9.9999992E-25
  -2.585000        9.9999953E-25
  -2.580000        9.9999933E-25
  -2.575000        9.9999933E-25
  -2.570000        9.9999923E-25
  -2.565000        9.9999923E-25
  -2.560000        9.9999943E-25
  -2.555000        1.0000002E-24
  -2.550000        1.0000016E-24
  -2.545000        1.0000040E-24
  -2.540000        1.0000074E-24
  -2.535000        1.0000118E-24
  -2.530000        1.0000169E-24
  -2.525000        1.0000223E-24
  -2.520000        1.0000276E-24
  -2.515000        1.0000320E-24
  -2.510000        1.0000340E-24
  -2.505000        1.0000325E-24
  -2.500000        1.0000254E-24
  -2.495000        1.0000102E-24
  -2.490000        9.9998454E-25
  -2.485000        9.9994588E-25
  -2.480000        9.9989244E-25
  -2.475000        9.9982351E-25
  -2.470000        9.9974048E-25
  -2.465000        9.9964720E-25
  -2.460000        9.9955135E-25
  -2.455000        9.9946488E-25
  -2.450000        9.9940463E-25
  -2.445000        9.9939289E-25
  -2.440000        9.9945610E-25
  -2.435000        9.9962344E-25
  -2.430000        9.9992478E-25
  -2.425000        1.0003860E-24
  -2.420000        1.0010247E-24
  -2.415000        1.0018430E-24
  -2.410000        1.0028217E-24
  -2.405000        1.0039124E-24
  -2.400000        1.0050315E-24
  -2.395000        1.0060564E-24
  -2.390000        1.0068241E-24
  -2.385000        1.0071350E-24
  -2.380000        1.0067611E-24
  -2.375000        1.0054624E-24
  -2.370000        1.0030081E-24
  -2.365000        9.9920761E-25
  -2.360000        9.9394601E-25
  -2.355000        9.8722471E-25
  -2.350000        9.7920249E-25
  -2.345000        9.7023354E-25
  -2.340000        9.6089756E-25
  -2.335000        9.5201548E-25
  -2.330000        9.4464664E-25
  -2.325000        9.4006197E-25
  -2.320000        9.3968736E-25
  -2.315000        9.4501474E-25
  -2.310000        9.5748081E-25
  -2.305000        9.7831463E-25
  -2.300000        1.0083595E-24
  -2.295000        1.0478804E-24
  -2.290000        1.0963674E-24
  -2.285000        1.1523537E-24
  -2.280000        1.2132667E-24
  -2.275000        1.2753341E-24
  -2.270000        1.3335662E-24
  -2.265000        1.3818372E-24
  -2.260000        1.4130831E-24
  -2.255000        1.4196310E-24
  -2.250000        1.3936661E-24
  -2.245000        1.3278319E-24
  -2.240000        1.2159510E-24
  -2.235000        1.0538358E-24
  -2.230000        8.4014574E-25
  -2.225000        5.7723127E-25
  -2.220000        2.7189454E-25
  -2.215000       -6.4020013E-26
  -2.210000       -4.1329591E-25
  -2.205000       -7.5336774E-25
  -2.200000       -1.0567824E-24
  -2.195000       -1.2921689E-24
  -2.190000       -1.4257531E-24
  -2.185000       -1.4234244E-24
  -2.180000       -1.2532991E-24
  -2.175000       -8.8867922E-25
  -2.170000       -3.1123412E-25
  -2.165000        4.8583305E-25
  -2.160000        1.4949204E-24
  -2.155000        2.6918046E-24
  -2.150000        4.0344078E-24
  -2.145000        5.4629052E-24
  -2.140000        6.9014687E-24
  -2.135000        8.2618531E-24
  -2.130000        9.4488891E-24
  -2.125000        1.0367769E-23
  -2.120000        1.0932805E-23
  -2.115000        1.1077055E-23
  -2.110000        1.0761999E-23
  -2.105000        9.9861870E-24
  -2.100000        8.7915747E-24
  -2.095000        7.2661292E-24
  -2.090000        5.5412694E-24
  -2.085000        3.7828503E-24
  -2.080000        2.1746669E-24
  -2.075000        8.9391213E-25
  -2.070000        7.8817410E-26
  -2.065000       -2.1048596E-25
  -2.060000       -3.5670084E-26
  -2.055000        3.7492426E-25
  -2.050000        5.8508955E-25
  -2.045000       -8.0818978E-26
  -2.040000       -2.5524778E-24
  -2.035000       -8.0033181E-24
  -2.030000       -1.7806710E-23
  -2.025000       -3.3450842E-23
  -2.020000       -5.6405151E-23
  -2.015000       -8.7934111E-23
  -2.010000       -1.2885765E-22
  -2.005000       -1.7926223E-22
  -2.000000       -2.3817374E-22
  -1.995000       -3.0321047E-22
  -1.990000       -3.7024347E-22
  -1.985000       -4.3310069E-22
  -1.980000       -4.8336009E-22
  -1.975000       -5.1028547E-22
  -1.970000       -5.0096272E-22
  -1.965000       -4.4069663E-22
  -1.960000       -3.1372478E-22
  -1.955000       -1.0429425E-22
  -1.950000        2.0187065E-22
  -1.945000        6.1570849E-22
  -1.940000        1.1426044E-21
  -1.935000        1.7798938E-21
  -1.930000        2.5142195E-21
  -1.925000        3.3189301E-21
  -1.920000        4.1517609E-21
  -1.915000        4.9530998E-21
  -1.910000        5.6451809E-21
  -1.905000        6.1325696E-21
  -1.900000        6.3043118E-21
  -1.895000        6.0380897E-21
  -1.890000        5.2066512E-21
  -1.885000        3.6866660E-21
  -1.880000        1.3700113E-21
  -1.875000       -1.8227268E-21
  -1.870000       -5.9269846E-21
  -1.865000       -1.0917923E-20
  -1.860000       -1.6694122E-20
  -1.855000       -2.3062574E-20
  -1.850000       -2.9726577E-20
  -1.845000       -3.6278239E-20
  -1.840000       -4.2197537E-20
  -1.835000       -4.6859782E-20
  -1.830000       -4.9553111E-20
  -1.825000       -4.9507487E-20
  -1.820000       -4.5935915E-20
  -1.815000       -3.8088019E-20
  -1.810000       -2.5315042E-20
  -1.805000       -7.1444357E-21
  -1.800000        1.6639114E-20
  -1.795000        4.5910634E-20
  -1.790000        8.0125380E-20
  -1.785000        1.1824957E-19
  -1.780000        1.5870880E-19
  -1.775000        1.9936229E-19
  -1.770000        2.3751064E-19
  -1.765000        2.6994494E-19
  -1.760000        2.9304277E-19
  -1.755000        3.0291582E-19
  -1.750000        2.9561003E-19
  -1.745000        2.6735679E-19
  -1.740000        2.1486875E-19
  -1.735000        1.3567036E-19
  -1.730000        2.8448173E-20
  -1.725000       -1.0659846E-19
  -1.720000       -2.6742992E-19
  -1.715000       -4.4988854E-19
  -1.710000       -6.4749972E-19
  -1.705000       -8.5138097E-19
  -1.700000       -1.0502880E-18
  -1.695000       -1.2308218E-18
  -1.690000       -1.3778168E-18
  -1.685000       -1.4749201E-18
  -1.680000       -1.5053647E-18
  -1.675000       -1.4529223E-18
  -1.670000       -1.3030127E-18
  -1.665000       -1.0439292E-18
  -1.660000       -6.6812546E-19
  -1.655000       -1.7349342E-19
  -1.650000        4.3544431E-19
  -1.645000        1.1465205E-18
  -1.640000        1.9391798E-18
  -1.635000        2.7841007E-18
  -1.630000        3.6432719E-18
  -1.625000        4.4705952E-18
  -1.620000        5.2130771E-18
  -1.615000        5.8126308E-18
  -1.610000        6.2084955E-18
  -1.605000        6.3402302E-18
  -1.600000        6.1512017E-18
  -1.595000        5.5924457E-18
  -1.590000        4.6267438E-18
  -1.585000        3.2327105E-18
  -1.580000        1.4086613E-18
  -1.575000       -8.2399948E-19
  -1.570000       -3.4181276E-18
  -1.565000       -6.2991934E-18
  -1.560000       -9.3648864E-18
  -1.555000       -1.2486176E-17
  -1.550000       -1.5509987E-17
  -1.545000       -1.8263580E-17
  -1.540000       -2.0560643E-17
  -1.535000       -2.2209010E-17
  -1.530000       -2.3019806E-17
  -1.525000       -2.2817754E-17
  -1.520000       -2.1452205E-17
  -1.515000       -1.8808438E-17
  -1.510000       -1.4818661E-17
  -1.505000       -9.4720816E-18
  -1.500000       -2.8234251E-18
  -1.495000        5.0007456E-18
  -1.490000        1.3798520E-17
  -1.485000        2.3292440E-17
  -1.480000        3.3133040E-17
  -1.475000        4.2906378E-17
  -1.470000        5.2145664E-17
  -1.465000        6.0346836E-17
  -1.460000        6.6987773E-17
  -1.455000        7.1550600E-17
  -1.450000        7.3546336E-17
  -1.445000        7.2540888E-17
  -1.440000        6.8181374E-17
  -1.435000        6.0221468E-17
  -1.430000        4.8544520E-17
  -1.425000        3.3183204E-17
  -1.420000        1.4334383E-17
  -1.415000       -7.6318578E-18
  -1.410000       -3.2169967E-17
  -1.405000       -5.8564076E-17
  -1.400000       -8.5940949E-17
  -1.395000       -1.1329074E-16
  -1.390000       -1.3949520E-16
  -1.385000       -1.6336282E-16
  -1.380000       -1.8366964E-16
  -1.375000       -1.9920467E-16
  -1.370000       -2.0881811E-16
  -1.365000       -2.1147089E-16
  -1.360000       -2.0628355E-16
  -1.355000       -1.9258222E-16
  -1.350000       -1.6994055E-16
  -1.345000       -1.3821537E-16
  -1.340000       -9.7574715E-17
  -1.335000       -4.8517220E-17
  -1.330000        8.1182938E-18
  -1.325000        7.1153329E-17
  -1.320000        1.3908060E-16
  -1.315000        2.1008516E-16
  -1.310000        2.8207550E-16
  -1.305000        3.5272379E-16
  -1.300000        4.1951464E-16
  -1.295000        4.7980139E-16
  -1.290000        5.3086922E-16
  -1.285000        5.7000394E-16
  -1.280000        5.9456620E-16
  -1.275000        6.0206970E-16
  -1.270000        5.9026354E-16
  -1.265000        5.5721792E-16
  -1.260000        5.0141179E-16
  -1.255000        4.2182249E-16
  -1.250000        3.1801630E-16
  -1.245000        1.9023737E-16
  -1.240000        3.9493987E-17
  -1.235000       -1.3236192E-16
  -1.230000       -3.2256486E-16
  -1.225000       -5.2738045E-16
  -1.220000       -7.4206995E-16
  -1.215000       -9.6088127E-16
  -1.210000       -1.1770730E-15
  -1.205000       -1.3829765E-15
  -1.200000       -1.5701065E-15
  -1.195000       -1.7293203E-15
  -1.190000       -1.8510368E-15
  -1.185000       -1.9255115E-15
  -1.180000       -1.9431732E-15
  -1.175000       -1.8950175E-15
  -1.170000       -1.7730471E-15
  -1.165000       -1.5707559E-15
  -1.160000       -1.2836342E-15
  -1.155000       -9.0968099E-16
  -1.150000       -4.4990001E-16
  -1.145000        9.1250284E-17
  -1.140000        7.0547738E-16
  -1.135000        1.3803793E-15
  -1.130000        2.0993040E-15
  -1.125000        2.8413716E-15
  -1.120000        3.5816873E-15
  -1.115000        4.2917643E-15
  -1.110000        4.9401714E-15
  -1.105000        5.4934080E-15
  -1.100000        5.9170046E-15
  -1.095000        6.1768256E-15
  -1.090000        6.2405495E-15
  -1.085000        6.0792821E-15
  -1.080000        5.6692440E-15
  -1.075000        4.9934680E-15
  -1.070000        4.0434329E-15
  -1.065000        2.8205380E-15
  -1.060000        1.3373479E-15
  -1.055000       -3.8149557E-16
  -1.050000       -2.2987680E-15
  -1.045000       -4.3646422E-15
  -1.040000       -6.5172125E-15
  -1.035000       -8.6836064E-15
  -1.030000       -1.0781696E-14
  -1.025000       -1.2722425E-14
  -1.020000       -1.4412681E-14
  -1.015000       -1.5758684E-14
  -1.010000       -1.6669783E-14
  -1.005000       -1.7062527E-14
  -1.000000       -1.6864872E-14
 -0.9950000       -1.6020358E-14
 -0.9900000       -1.4492066E-14
 -0.9850000       -1.2266144E-14
 -0.9800000       -9.3547293E-15
 -0.9750000       -5.7980714E-15
 -0.9700000       -1.6656812E-15
 -0.9650000        2.9436218E-15
 -0.9600000        7.9028818E-15
 -0.9550000        1.3059443E-14
 -0.9500000        1.8238674E-14
 -0.9450000        2.3248928E-14
 -0.9400000        2.7887630E-14
 -0.9350000        3.1948345E-14
 -0.9300000        3.5228598E-14
 -0.9250000        3.7538142E-14
 -0.9200000        3.8707488E-14
 -0.9150000        3.8596188E-14
 -0.9100000        3.7100643E-14
 -0.9050000        3.4161042E-14
 -0.9000000        2.9767059E-14
 -0.8950000        2.3962022E-14
 -0.8900000        1.6845244E-14
 -0.8850000        8.5723190E-15
 -0.8800000       -6.4677292E-16
 -0.8750000       -1.0551819E-14
 -0.8700000       -2.0838740E-14
 -0.8650000       -3.1168085E-14
 -0.8600000       -4.1175430E-14
 -0.8550000       -5.0483367E-14
 -0.8500000       -5.8714752E-14
 -0.8450000       -6.5506709E-14
 -0.8400000       -7.0524966E-14
 -0.8350000       -7.3477845E-14
 -0.8300000       -7.4129532E-14
 -0.8250000       -7.2311914E-14
 -0.8200000       -6.7934563E-14
 -0.8150000       -6.0992362E-14
 -0.8100000       -5.1570388E-14
 -0.8050000       -3.9845741E-14
 -0.8000000       -2.6086152E-14
 -0.7950000       -1.0645187E-14
 -0.7900000        6.0458332E-15
 -0.7850000        2.3489081E-14
 -0.7800000        4.1134383E-14
 -0.7750000        5.8395861E-14
 -0.7700000        7.4670569E-14
 -0.7650000        8.9358595E-14
 -0.7600000        1.0188385E-13
 -0.7550000        1.1171507E-13
 -0.7500000        1.1838603E-13
 -0.7450000        1.2151457E-13
 -0.7400000        1.2081942E-13
 -0.7350000        1.1613456E-13
 -0.7300000        1.0742011E-13
 -0.7250000        9.4769651E-14
 -0.7200000        7.8413323E-14
 -0.7150000        5.8716541E-14
 -0.7100000        3.6174307E-14
 -0.7050000        1.1400936E-14
 -0.7000000       -1.4884590E-14
 -0.6950000       -4.1877343E-14
 -0.6900000       -6.8708873E-14
 -0.6850000       -9.4472803E-14
 -0.6800000       -1.1825293E-13
 -0.6750000       -1.3915308E-13
 -0.6700000       -1.5632798E-13
 -0.6650000       -1.6901418E-13
 -0.6600000       -1.7655987E-13
 -0.6550000       -1.7845308E-13
 -0.6500000       -1.7434678E-13
 -0.6450000       -1.6408020E-13
 -0.6400000       -1.4769531E-13
 -0.6350000       -1.2544776E-13
 -0.6300000       -9.7811299E-14
 -0.6250000       -6.5475261E-14
 -0.6200000       -2.9334658E-14
 -0.6150000        9.5275155E-15
 -0.6100000        4.9865555E-14
 -0.6050000        9.0303910E-14
 -0.6000000        1.2937700E-13
 -0.5950000        1.6557522E-13
 -0.5900000        1.9739599E-13
 -0.5850000        2.2339865E-13
 -0.5800000        2.4226145E-13
 -0.5750000        2.5283849E-13
 -0.5700000        2.5421521E-13
 -0.5650000        2.4575949E-13
 -0.5600000        2.2716659E-13
 -0.5550000        1.9849560E-13
 -0.5500000        1.6019510E-13
 -0.5450000        1.1311611E-13
 -0.5400000        5.8510658E-14
 -0.5350000       -1.9852290E-15
 -0.5300000       -6.6384933E-14
 -0.5250000       -1.3240089E-13
 -0.5200000       -1.9751034E-13
 -0.5150000       -2.5903577E-13
 -0.5100000       -3.1423806E-13
 -0.5050000       -3.6041995E-13
 -0.5000000       -3.9503619E-13
 -0.4950000       -4.1580690E-13
 -0.4900000       -4.2082939E-13
 -0.4850000       -4.0868369E-13
 -0.4800000       -3.7852721E-13
 -0.4750000       -3.3017342E-13
 -0.4700000       -2.6415044E-13
 -0.4650000       -1.8173459E-13
 -0.4600000       -8.4956483E-14
 -0.4550000        2.3423326E-14
 -0.4500000        1.3997053E-13
 -0.4450000        2.6066494E-13
 -0.4400000        3.8101914E-13
 -0.4350000        4.9622508E-13
 -0.4300000        6.0132433E-13
 -0.4250000        6.9139746E-13
 -0.4200000        7.6176435E-13
 -0.4150000        8.0818934E-13
 -0.4100000        8.2708222E-13
 -0.4050000        8.1568568E-13
 -0.4000000        7.7224213E-13
 -0.3950000        6.9612946E-13
 -0.3900000        5.8795964E-13
 -0.3850000        4.4963241E-13
 -0.3800000        2.8433996E-13
 -0.3750000        9.6517968E-14
 -0.3700000       -1.0825671E-13
 -0.3650000       -3.2342168E-13
 -0.3600000       -5.4163347E-13
 -0.3550000       -7.5501600E-13
 -0.3500000       -9.5544362E-13
 -0.3450000       -1.1348510E-12
 -0.3400000       -1.2855540E-12
 -0.3350000       -1.4005743E-12
 -0.3300000       -1.4739487E-12
 -0.3250000       -1.5010120E-12
 -0.3200000       -1.4786395E-12
 -0.3150000       -1.4054371E-12
 -0.3100000       -1.2818678E-12
 -0.3050000       -1.1103068E-12
 -0.3000000       -8.9502001E-13
 -0.2950000       -6.4206247E-13
 -0.2900000       -3.5909952E-13
 -0.2850000       -5.5153541E-14
 -0.2800000        2.5971518E-13
 -0.2750000        5.7478154E-13
 -0.2700000        8.7906977E-13
 -0.2650000        1.1617908E-12
 -0.2600000        1.4127855E-12
 -0.2550000        1.6229540E-12
 -0.2500000        1.7846513E-12
 -0.2450000        1.8920312E-12
 -0.2400000        1.9413230E-12
 -0.2350000        1.9310220E-12
 -0.2300000        1.8619882E-12
 -0.2250000        1.7374411E-12
 -0.2200000        1.5628515E-12
 -0.2150000        1.3457263E-12
 -0.2100000        1.0952989E-12
 -0.2050000        8.2213349E-13
 -0.2000000        5.3765738E-13
 -0.1950000        2.5364351E-13
 -0.1900000       -1.8337499E-14
 -0.1850000       -2.6746780E-13
 -0.1800000       -4.8421396E-13
 -0.1750000       -6.6081223E-13
 -0.1700000       -7.9168210E-13
 -0.1650000       -8.7374888E-13
 -0.1600000       -9.0665274E-13
 -0.1550000       -8.9283577E-13
 -0.1500000       -8.3749186E-13
 -0.1450000       -7.4838145E-13
 -0.1400000       -6.3551220E-13
 -0.1350000       -5.1069435E-13
 -0.1300000       -3.8698775E-13
 -0.1250000       -2.7806053E-13
 -0.1200000       -1.9748596E-13
 -0.1150000       -1.5800646E-13
 -0.1100000       -1.7079735E-13
 -0.1050000       -2.4476580E-13
 -0.1000000       -3.8591602E-13
 -9.4999999E-02   -5.9681605E-13
 -9.0000004E-02   -8.7619208E-13
 -8.5000001E-02   -1.2186759E-12
 -7.9999998E-02   -1.6147278E-12
 -7.5000003E-02   -2.0507433E-12
 -7.0000000E-02   -2.5093488E-12
 -6.4999998E-02   -2.9698878E-12
 -5.9999999E-02   -3.4090797E-12
 -5.5000000E-02   -3.8018391E-12
 -5.0000001E-02   -4.1222234E-12
 -4.5000002E-02   -4.3444796E-12
 -3.9999999E-02   -4.4441534E-12
 -3.5000000E-02   -4.3992145E-12
 -2.9999999E-02   -4.1911535E-12
 -2.5000000E-02   -3.8060089E-12
 -2.0000000E-02   -3.2352790E-12
 -1.5000000E-02   -2.4766701E-12
 -9.9999998E-03   -1.5346548E-12
 -4.9999999E-03   -4.2079949E-13
  0.0000000E+00    8.4615350E-13
  4.9999999E-03    2.2404687E-12
  9.9999998E-03    3.7298654E-12
  1.5000000E-02    5.2762321E-12
  2.0000000E-02    6.8365847E-12
  2.5000000E-02    8.3642520E-12
  2.9999999E-02    9.8102455E-12
  3.5000000E-02    1.1124779E-11
  3.9999999E-02    1.2258879E-11
  4.5000002E-02    1.3166046E-11
  5.0000001E-02    1.3803896E-11
  5.5000000E-02    1.4135724E-11
  5.9999999E-02    1.4131949E-11
  6.4999998E-02    1.3771361E-11
  7.0000000E-02    1.3042126E-11
  7.5000003E-02    1.1942538E-11
  7.9999998E-02    1.0481429E-11
  8.5000001E-02    8.6782586E-12
  9.0000004E-02    6.5628518E-12
  9.4999999E-02    4.1747833E-12
  0.1000000        1.5624321E-12
  0.1050000       -1.2182767E-12
  0.1100000       -4.1054070E-12
  0.1150000       -7.0327754E-12
  0.1200000       -9.9318808E-12
  0.1250000       -1.2733944E-11
  0.1300000       -1.5371983E-11
  0.1350000       -1.7782843E-11
  0.1400000       -1.9909121E-11
  0.1450000       -2.1700919E-11
  0.1500000       -2.3117307E-11
  0.1550000       -2.4127528E-11
  0.1600000       -2.4711812E-11
  0.1650000       -2.4861800E-11
  0.1700000       -2.4580567E-11
  0.1750000       -2.3882181E-11
  0.1800000       -2.2790899E-11
  0.1850000       -2.1339923E-11
  0.1900000       -1.9569834E-11
  0.1950000       -1.7526730E-11
  0.2000000       -1.5260144E-11
  0.2050000       -1.2820823E-11
  0.2100000       -1.0258469E-11
  0.2150000       -7.6195369E-12
  0.2200000       -4.9451593E-12
  0.2250000       -2.2693501E-12
  0.2300000        3.8246324E-13
  0.2350000        2.9944873E-12
  0.2400000        5.5611097E-12
  0.2450000        8.0869131E-12
  0.2500000        1.0586105E-11
  0.2550000        1.3081388E-11
  0.2600000        1.5602256E-11
  0.2650000        1.8182771E-11
  0.2700000        2.0858898E-11
  0.2750000        2.3665465E-11
  0.2800000        2.6632889E-11
  0.2850000        2.9783773E-11
  0.2900000        3.3129537E-11
  0.2950000        3.6667225E-11
  0.3000000        4.0376653E-11
  0.3050000        4.4218035E-11
  0.3100000        4.8130253E-11
  0.3150000        5.2029887E-11
  0.3200000        5.5811123E-11
  0.3250000        5.9346611E-11
  0.3300000        6.2489333E-11
  0.3350000        6.5075445E-11
  0.3400000        6.6928157E-11
  0.3450000        6.7862514E-11
  0.3500000        6.7690950E-11
  0.3550000        6.6229550E-11
  0.3600000        6.3304854E-11
  0.3650000        5.8760885E-11
  0.3700000        5.2466205E-11
  0.3750000        4.4320905E-11
  0.3800000        3.4263037E-11
  0.3850000        2.2274394E-11
  0.3900000        8.3853827E-12
  0.3950000       -7.3212868E-12
  0.4000000       -2.4708223E-11
  0.4050000       -4.3582471E-11
  0.4100000       -6.3696229E-11
  0.4150000       -8.4749215E-11
  0.4200000       -1.0639271E-10
  0.4250000       -1.2823519E-10
  0.4300000       -1.4984940E-10
  0.4350000       -1.7078090E-10
  0.4400000       -1.9055753E-10
  0.4450000       -2.0869992E-10
  0.4500000       -2.2473243E-10
  0.4550000       -2.3819452E-10
  0.4600000       -2.4865174E-10
  0.4650000       -2.5570668E-10
  0.4700000       -2.5900901E-10
  0.4750000       -2.5826438E-10
  0.4800000       -2.5324229E-10
  0.4850000       -2.4378208E-10
  0.4900000       -2.2979768E-10
  0.4950000       -2.1127997E-10
  0.5000000       -1.8829784E-10
  0.5050000       -1.6099708E-10
  0.5100000       -1.2959746E-10
  0.5150000       -9.4388324E-11
  0.5200000       -5.5722461E-11
  0.5250000       -1.4008937E-11
  0.5300000        3.0295016E-11
  0.5350000        7.6692756E-11
  0.5400000        1.2465723E-10
  0.5450000        1.7364001E-10
  0.5500000        2.2308003E-10
  0.5550000        2.7241159E-10
  0.5600000        3.2107172E-10
  0.5650000        3.6850600E-10
  0.5700000        4.1417347E-10
  0.5750000        4.5755022E-10
  0.5800000        4.9813126E-10
  0.5850000        5.3543153E-10
  0.5900000        5.6898514E-10
  0.5950000        5.9834415E-10
  0.6000000        6.2307653E-10
  0.6050000        6.4276301E-10
  0.6100000        6.5699446E-10
  0.6150000        6.6536882E-10
  0.6200000        6.6748918E-10
  0.6250000        6.6296196E-10
  0.6300000        6.5139705E-10
  0.6350000        6.3240885E-10
  0.6400000        6.0561928E-10
  0.6450000        5.7066252E-10
  0.6500000        5.2719212E-10
  0.6550000        4.7488963E-10
  0.6600000        4.1347553E-10
  0.6650000        3.4272191E-10
  0.6700000        2.6246710E-10
  0.6750000        1.7263083E-10
  0.6800000        7.3230977E-11
  0.6850000       -3.5599433E-11
  0.6900000       -1.5359523E-10
  0.6950000       -2.8034253E-10
  0.7000000       -4.1526346E-10
  0.7050000       -5.5760213E-10
  0.7100000       -7.0641321E-10
  0.7150000       -8.6055257E-10
  0.7200000       -1.0186716E-09
  0.7250000       -1.1792141E-09
  0.7300000       -1.3404179E-09
  0.7350000       -1.5003198E-09
  0.7400000       -1.6567641E-09
  0.7450000       -1.8074164E-09
  0.7500000       -1.9497806E-09
  0.7550000       -2.0812188E-09
  0.7600000       -2.1989759E-09
  0.7650000       -2.3002058E-09
  0.7700000       -2.3820022E-09
  0.7750000       -2.4414279E-09
  0.7800000       -2.4755507E-09
  0.7850000       -2.4814726E-09
  0.7900000       -2.4563678E-09
  0.7950000       -2.3975117E-09
  0.8000000       -2.3023148E-09
  0.8050000       -2.1683515E-09
  0.8100000       -1.9933892E-09
  0.8150000       -1.7754128E-09
  0.8200000       -1.5126469E-09
  0.8250000       -1.2035745E-09
  0.8300000       -8.4695162E-10
  0.8350000       -4.4182000E-10
  0.8400000        1.2485662E-11
  0.8450000        5.1633192E-10
  0.8500000        1.0697859E-09
  0.8550000        1.6726162E-09
  0.8600000        2.3242976E-09
  0.8650000        3.0240186E-09
  0.8700000        3.7706882E-09
  0.8750000        4.5629500E-09
  0.8800000        5.3991909E-09
  0.8850000        6.2775576E-09
  0.8900000        7.1959678E-09
  0.8950000        8.1521305E-09
  0.9000000        9.1435561E-09
  0.9050000        1.0167577E-08
  0.9100000        1.1221360E-08
  0.9150000        1.2301933E-08
  0.9200000        1.3406195E-08
  0.9250000        1.4530944E-08
  0.9300000        1.5672889E-08
  0.9350000        1.6828679E-08
  0.9400000        1.7994919E-08
  0.9450000        1.9168212E-08
  0.9500000        2.0345164E-08
  0.9550000        2.1522437E-08
  0.9600000        2.2696762E-08
  0.9650000        2.3864978E-08
  0.9700000        2.5024065E-08
  0.9750000        2.6171181E-08
  0.9800000        2.7303702E-08
  0.9850000        2.8419263E-08
  0.9900000        2.9515773E-08
  0.9950000        3.0591465E-08
   1.000000        3.1644930E-08
   1.005000        3.2675139E-08
   1.010000        3.3681474E-08
   1.015000        3.4663763E-08
   1.020000        3.5622278E-08
   1.025000        3.6557765E-08
   1.030000        3.7471423E-08
   1.035000        3.8364941E-08
   1.040000        3.9240469E-08
   1.045000        4.0100595E-08
   1.050000        4.0948358E-08
   1.055000        4.1787189E-08
   1.060000        4.2620897E-08
   1.065000        4.3453618E-08
   1.070000        4.4289795E-08
   1.075000        4.5134097E-08
   1.080000        4.5991413E-08
   1.085000        4.6866784E-08
   1.090000        4.7765347E-08
   1.095000        4.8692289E-08
   1.100000        4.9652819E-08
   1.105000        5.0652087E-08
   1.110000        5.1695178E-08
   1.115000        5.2787051E-08
   1.120000        5.3932549E-08
   1.125000        5.5136333E-08
   1.130000        5.6402897E-08
   1.135000        5.7736507E-08
   1.140000        5.9141254E-08
   1.145000        6.0620998E-08
   1.150000        6.2179403E-08
   1.155000        6.3819989E-08
   1.160000        6.5546047E-08
   1.165000        6.7360723E-08
   1.170000        6.9267010E-08
   1.175000        7.1267756E-08
   1.180000        7.3365683E-08
   1.185000        7.5563420E-08
   1.190000        7.7863533E-08
   1.195000        8.0268485E-08
   1.200000        8.2780737E-08
   1.205000        8.5402668E-08
   1.210000        8.8136638E-08
   1.215000        9.0984955E-08
   1.220000        9.3949900E-08
   1.225000        9.7033720E-08
   1.230000        1.0023862E-07
   1.235000        1.0356680E-07
   1.240000        1.0702038E-07
   1.245000        1.1060152E-07
   1.250000        1.1431229E-07
   1.255000        1.1815477E-07
   1.260000        1.2213097E-07
   1.265000        1.2624290E-07
   1.270000        1.3049254E-07
   1.275000        1.3488190E-07
   1.280000        1.3941296E-07
   1.285000        1.4408781E-07
   1.290000        1.4890855E-07
   1.295000        1.5387741E-07
   1.300000        1.5899663E-07
   1.305000        1.6426863E-07
   1.310000        1.6969595E-07
   1.315000        1.7528137E-07
   1.320000        1.8102787E-07
   1.325000        1.8693864E-07
   1.330000        1.9301710E-07
   1.335000        1.9926692E-07
   1.340000        2.0569207E-07
   1.345000        2.1229683E-07
   1.350000        2.1908575E-07
   1.355000        2.2606369E-07
   1.360000        2.3323578E-07
   1.365000        2.4060742E-07
   1.370000        2.4818428E-07
   1.375000        2.5597220E-07
   1.380000        2.6397728E-07
   1.385000        2.7220588E-07
   1.390000        2.8066458E-07
   1.395000        2.8936003E-07
   1.400000        2.9829903E-07
   1.405000        3.0748856E-07
   1.410000        3.1693568E-07
   1.415000        3.2664752E-07
   1.420000        3.3663127E-07
   1.425000        3.4689418E-07
   1.430000        3.5744367E-07
   1.435000        3.6828712E-07
   1.440000        3.7943201E-07
   1.445000        3.9088602E-07
   1.450000        4.0265681E-07
   1.455000        4.1475229E-07
   1.460000        4.2718051E-07
   1.465000        4.3994964E-07
   1.470000        4.5306814E-07
   1.475000        4.6654469E-07
   1.480000        4.8038828E-07
   1.485000        4.9460817E-07
   1.490000        5.0921398E-07
   1.495000        5.2421575E-07
   1.500000        5.3962407E-07
   1.505000        5.5544990E-07
   1.510000        5.7170473E-07
   1.515000        5.8840027E-07
   1.520000        6.0554868E-07
   1.525000        6.2316286E-07
   1.530000        6.4125572E-07
   1.535000        6.5984102E-07
   1.540000        6.7893302E-07