  -10.00000        1.0000000E-24
  -9.950000        1.0000000E-24
  -9.900000        1.0000000E-24
  -9.850000        1.0000000E-24
  -9.800000        1.0000001E-24
  -9.750000        1.0000001E-24
  -9.700000        1.0000001E-24
  -9.650000        1.0000001E-24
  -9.600000        1.1076688E-24
  -9.550000        2.5574545E-24
  -9.500000        1.1679909E-23
  -9.450000        4.6383374E-23
  -9.400000        1.3135617E-22
  -9.350000        2.6413832E-22
  -9.300000        4.5287785E-22
  -9.250000        1.3767273E-21
  -9.200000        6.9969390E-21
  -9.150000        3.0549984E-20
  -9.100000        1.0204631E-19
  -9.050000        2.6522244E-19
  -9.000000        5.3568129E-19
  -8.950000        7.8373140E-19
  -8.900000        5.3862031E-19
  -8.850000       -1.1728547E-18
  -8.800000       -5.6347299E-18
  -8.750000       -1.3386186E-17
  -8.700000       -2.1881305E-17
  -8.650000       -2.2206114E-17
  -8.600000        3.1186988E-18
  -8.550000        7.6966886E-17
  -8.500000        2.1342357E-16
  -8.450000        3.8909631E-16
  -8.400000        5.0490189E-16
  -8.350000        3.5881343E-16
  -8.300000       -3.3195584E-16
  -8.250000       -1.8123646E-15
  -8.200000       -4.0465347E-15
  -8.150000       -6.3848513E-15
  -8.100000       -7.2820015E-15
  -8.050000       -4.3248926E-15
  -8.000000        5.1125943E-15
  -7.950000        2.2372315E-14
  -7.900000        4.5299366E-14
  -7.850000        6.6023311E-14
  -7.800000        7.0101341E-14
  -7.750000        3.8782064E-14
  -7.700000       -4.4193490E-14
  -7.650000       -1.8130082E-13
  -7.600000       -3.4810468E-13
  -7.550000       -4.8406564E-13
  -7.500000       -4.9528860E-13
  -7.450000       -2.7669853E-13
  -7.400000        2.4379806E-13
  -7.350000        1.0462684E-12
  -7.300000        1.9643141E-12
  -7.250000        2.6650691E-12
  -7.200000        2.6951603E-12
  -7.150000        1.6110804E-12
  -7.100000       -8.1744003E-13
  -7.050000       -4.3837646E-12
  -7.000000       -8.2915766E-12
  -6.950000       -1.1179452E-11
  -6.900000       -1.1401643E-11
  -6.850000       -7.5652011E-12
  -6.800000        7.9322725E-13
  -6.750000        1.2624377E-11
  -6.700000        2.5170248E-11
  -6.650000        3.4396049E-11
  -6.600000        3.6102496E-11
  -6.550000        2.7477701E-11
  -6.500000        8.5502569E-12
  -6.450000       -1.7149785E-11
  -6.400000       -4.3286954E-11
  -6.350000       -6.2868398E-11
  -6.300000       -7.1221258E-11
  -6.250000       -6.8478369E-11
  -6.200000       -5.9956096E-11
  -6.150000       -5.3269212E-11
  -6.100000       -5.2367041E-11
  -6.050000       -5.0606956E-11
  -6.000000       -2.6759489E-11
  -5.950000        5.1580858E-11
  -5.900000        2.1427479E-10
  -5.850000        4.6574727E-10
  -5.800000        7.5980516E-10
  -5.750000        9.8443809E-10
  -5.700000        9.7103159E-10
  -5.650000        5.3855898E-10
  -5.600000       -4.2778669E-10
  -5.550000       -1.8807988E-09
  -5.500000       -3.5329115E-09
  -5.450000       -4.8401558E-09
  -5.400000       -5.0883697E-09
  -5.350000       -3.5967183E-09
  -5.300000       -1.0419801E-11
  -5.250000        5.3962270E-09
  -5.200000        1.1525593E-08
  -5.150000        1.6498335E-08
  -5.100000        1.8017193E-08
  -5.050000        1.4046668E-08
  -5.000000        3.6751244E-09
  -4.950000       -1.2098044E-08
  -4.900000       -2.9977478E-08
  -4.850000       -4.4684970E-08
  -4.800000       -5.0109513E-08
  -4.750000       -4.1167741E-08
  -4.700000       -1.5939673E-08
  -4.650000        2.2603606E-08
  -4.600000        6.6037600E-08
  -4.550000        1.0166082E-07
  -4.500000        1.1553064E-07
  -4.450000        9.6844516E-08
  -4.400000        4.2517158E-08
  -4.350000       -3.9598394E-08
  -4.300000       -1.3035316E-07
  -4.250000       -2.0271703E-07
  -4.200000       -2.2878856E-07
  -4.150000       -1.8891261E-07
  -4.100000       -8.0298079E-08
  -4.050000        7.7953509E-08
  -4.000000        2.4600899E-07
  -3.950000        3.7173501E-07
  -3.900000        4.0522150E-07
  -3.850000        3.1584833E-07
  -3.800000        1.0666891E-07
  -3.750000       -1.7934956E-07
  -3.700000       -4.6509263E-07
  -3.650000       -6.5766164E-07
  -3.600000       -6.7576565E-07
  -3.550000       -4.7878683E-07
  -3.500000       -8.8133270E-08
  -3.450000        4.0774805E-07
  -3.400000        8.6947938E-07
  -3.350000        1.1425863E-06
  -3.300000        1.1048136E-06
  -3.250000        7.1137504E-07
  -3.200000        2.2901457E-08
  -3.150000       -7.9602700E-07
  -3.100000       -1.5121828E-06
  -3.050000       -1.8868185E-06
  -3.000000       -1.7504999E-06
  -2.950000       -1.0671845E-06
  -2.900000        3.4807545E-08
  -2.850000        1.2797597E-06
  -2.800000        2.3108005E-06
  -2.750000        2.7908936E-06
  -2.700000        2.5107593E-06
  -2.650000        1.4699500E-06
  -2.600000       -9.8363444E-08
  -2.550000       -1.7738191E-06
  -2.500000       -3.0601464E-06
  -2.450000       -3.5331423E-06
  -2.400000       -2.9819284E-06
  -2.350000       -1.4972143E-06
  -2.300000        5.2776039E-07
  -2.250000        2.4933852E-06
  -2.200000        3.7662185E-06
  -2.150000        3.8800604E-06
  -2.100000        2.7032877E-06
  -2.050000        5.1456641E-07
  -2.000000       -2.0471628E-06
  -1.950000       -4.1550843E-06
  -1.900000       -5.0457288E-06
  -1.850000       -4.2753150E-06
  -1.800000       -1.8983962E-06
  -1.750000        1.4969918E-06
  -1.700000        4.9233859E-06
  -1.650000        7.2704242E-06
  -1.600000        7.6483821E-06
  -1.550000        5.6944141E-06
  -1.500000        1.7395708E-06
  -1.450000       -3.2296996E-06
  -1.400000       -7.8214807E-06
  -1.350000       -1.0638073E-05
  -1.300000       -1.0710273E-05
  -1.250000       -7.8303683E-06
  -1.200000       -2.6695513E-06
  -1.150000        3.3741160E-06
  -1.100000        8.5683014E-06
  -1.050000        1.1370687E-05
  -1.000000        1.0925272E-05
 -0.9500000        7.3682531E-06
 -0.9000000        1.8312033E-06
 -0.8500000       -3.8800858E-06
 -0.8000000       -7.8479843E-06
 -0.7500000       -8.6780792E-06
 -0.7000000       -6.0018269E-06
 -0.6500000       -6.7005618E-07
 -0.6000000        5.4505208E-06
 -0.5500000        1.0040666E-05
 -0.5000000        1.1092148E-05
 -0.4500000        7.6323568E-06
 -0.4000000        1.6434795E-07
 -0.3500000       -9.3489425E-06
 -0.3000000       -1.7990420E-05
 -0.2500000       -2.2759046E-05
 -0.2000000       -2.1548058E-05
 -0.1500000       -1.3918041E-05
 -0.1000000       -1.3938050E-06
 -5.0000001E-02    1.2850863E-05
  0.0000000E+00    2.4865973E-05
  5.0000001E-02    3.1113537E-05
  0.1000000        2.9606990E-05
  0.1500000        2.0626287E-05
  0.2000000        6.7448750E-06
  0.2500000       -7.8876537E-06
  0.3000000       -1.8821887E-05
  0.3500000       -2.2759754E-05
  0.4000000       -1.8710143E-05
  0.4500000       -8.4418234E-06
  0.5000000        3.9700030E-06
  0.5500000        1.3420134E-05
  0.6000000        1.5507270E-05
  0.6500000        8.1768676E-06
  0.7000000       -7.2912289E-06
  0.7500000       -2.6343921E-05
  0.8000000       -4.2343137E-05
  0.8500000       -4.8591883E-05
  0.9000000       -4.0605413E-05
  0.9500000       -1.7900742E-05
   1.000000        1.5329942E-05
   1.050000        5.0988783E-05
   1.100000        7.9172773E-05
   1.150000        9.1054273E-05
   1.200000        8.1693724E-05
   1.250000        5.1888572E-05
   1.300000        8.3974173E-06
   1.350000       -3.7658479E-05
   1.400000       -7.3852862E-05
   1.450000       -9.0121728E-05
   1.500000       -8.1937877E-05
   1.550000       -5.1969037E-05
   1.600000       -9.6019257E-06
   1.650000        3.1657044E-05
   1.700000        5.8227168E-05
   1.750000        6.0770068E-05
   1.800000        3.7440943E-05
   1.850000       -5.0158383E-06
   1.900000       -5.2814437E-05
   1.950000       -8.9013505E-05
   2.000000       -9.8688040E-05
   2.050000       -7.3867996E-05
   2.100000       -1.6699547E-05
   2.150000        6.0264574E-05
   2.200000        1.3692584E-04
   2.250000        1.9098533E-04
   2.300000        2.0431158E-04
   2.350000        1.6847675E-04
   2.400000        8.7757442E-05
   2.450000       -2.1426149E-05
   2.500000       -1.3463902E-04
   2.550000       -2.2606444E-04
   2.600000       -2.7578225E-04
   2.650000       -2.7556584E-04
   2.700000       -2.3143603E-04
   2.750000       -1.6212027E-04
   2.800000       -9.3766357E-05
   2.850000       -5.2395753E-05
   2.900000       -5.6302120E-05
   2.950000       -1.1067459E-04
   3.000000       -2.0610398E-04
   3.050000       -3.2148574E-04
   3.100000       -4.3049883E-04
   3.150000       -5.0972309E-04
   3.200000       -5.4591167E-04
   3.250000       -5.4014567E-04
   3.300000       -5.0752593E-04
   3.350000       -4.7243142E-04
   3.400000       -4.6077647E-04
   3.450000       -4.9169239E-04
   3.500000       -5.7130732E-04
   3.550000       -6.9070369E-04
   3.600000       -8.2884968E-04
   3.650000       -9.5971371E-04
   3.700000       -1.0613794E-03
   3.750000       -1.1242339E-03
   3.800000       -1.1554688E-03
   3.850000       -1.1782089E-03
   3.900000       -1.2252437E-03
   3.950000       -1.3290960E-03
   4.000000       -1.5114441E-03
   4.050000       -1.7752909E-03
   4.100000       -2.1025897E-03
   4.150000       -2.4584353E-03
   4.200000       -2.8009156E-03
   4.250000       -3.0938736E-03
   4.300000       -3.3187694E-03
   4.350000       -3.4819301E-03
   4.400000       -3.6147169E-03
   4.450000       -3.7662298E-03
   4.500000       -3.9904476E-03
   4.550000       -4.3314733E-03
   4.600000       -4.8112711E-03
   4.650000       -5.4236432E-03
   4.700000       -6.1364076E-03
   4.750000       -6.9012982E-03
   4.800000       -7.6687559E-03
   4.850000       -8.4032547E-03
   4.900000       -9.0945996E-03
   4.950000       -9.7618112E-03
   5.000000       -1.0448439E-02
   5.050000       -1.1210750E-02
   5.100000       -1.2102404E-02
   5.150000       -1.3160267E-02
   5.200000       -1.4395660E-02
   5.250000       -1.5793597E-02
   5.300000       -1.7320102E-02
   5.350000       -1.8935179E-02
   5.400000       -2.0607295E-02
   5.450000       -2.2324828E-02
   5.500000       -2.4100978E-02
   5.550000       -2.5970766E-02
   5.600000       -2.7981305E-02
   5.650000       -3.0178685E-02
   5.700000       -3.2595843E-02
   5.750000       -3.5245456E-02
   5.800000       -3.8120169E-02
   5.850000       -4.1200131E-02
   5.900000       -4.4465225E-02
   5.950000       -4.7907930E-02
   6.000000       -5.1542409E-02
   6.050000       -5.5406559E-02
   6.100000       -5.9556056E-02
   6.150000       -6.4052023E-02
   6.200000       -6.8946116E-02
   6.250000       -7.4267872E-02
   6.300000       -8.0018505E-02
   6.350000       -8.6173691E-02
   6.400000       -9.2694901E-02
   6.450000       -9.9546365E-02
   6.500000       -0.1067125    
   6.550000       -0.1142110    
   6.600000       -0.1220961    
   6.650000       -0.1304527    
   6.700000       -0.1393797    
   6.750000       -0.1489700    
   6.800000       -0.1592903    
   6.850000       -0.1703681    
   6.900000       -0.1821905    
   6.950000       -0.1947137    
   7.000000       -0.2078834    
   7.050000       -0.2216590    
   7.100000       -0.2360358    
   7.150000       -0.2510581    
   7.200000       -0.2668200    
   7.250000       -0.2834519    
   7.300000       -0.3010969    
   7.350000       -0.3198835    
   7.400000       -0.3399006    
   7.450000       -0.3611842    
   7.500000       -0.3837177    
   7.550000       -0.4074466    
   7.600000       -0.4323054    
   7.650000       -0.4582466    
   7.700000       -0.4852661    
   7.750000       -0.5134161    
   7.800000       -0.5428037    
   7.850000       -0.5735731    
   7.900000       -0.6058787    
   7.950000       -0.6398549    
   8.000000       -0.6755934    
   8.050000       -0.7131314    
   8.100000       -0.7524573    
   8.150000       -0.7935290    
   8.200000       -0.8363019    
   8.250000       -0.8807556    
   8.300000       -0.9269139    
   8.350000       -0.9748502    
   8.400000        -1.024680    
   8.450000        -1.076538    
   8.500000        -1.130555    
   8.550000        -1.186835    
   8.600000        -1.245439    
   8.650000        -1.306387    
   8.700000        -1.369668    
   8.750000        -1.435261    
   8.800000        -1.503158    
   8.850000        -1.573374    
   8.900000        -1.645958    
   8.950000        -1.720987    
   9.000000        -1.798550    
   9.050000        -1.878729    
   9.100000        -1.961590    
   9.150000        -2.047167    
   9.200000        -2.135467    
   9.250000        -2.226478    
   9.300000        -2.320185    
   9.350000        -2.416578    
   9.400000        -2.515666    
   9.450000        -2.617477    
   9.500000        -2.722048    
   9.550000        -2.829422    
   9.600000        -2.939631    
   9.650000        -3.052690    
   9.700000        -3.168591    
   9.750000        -3.287308    
   9.800000        -3.408806    
   9.850000        -3.533042    
   9.900000        -3.659984    
   9.950000        -3.789606    
   10.00000        -3.921897    
   10.05000        -4.056852    
   10.10000        -4.194466    
   10.15000        -4.334726    
   10.20000        -4.477609    
   10.25000        -4.623069    
   10.30000        -4.771045    
   10.35000        -4.921455    
   10.40000        -5.074206    
   10.45000        -5.229198    
   10.50000        -5.386333    
   10.55000        -5.545523    
   10.60000        -5.706692    
   10.65000        -5.869778    
   10.70000        -6.034731    
   10.75000        -6.201502    
   10.80000        -6.370032    
   10.85000        -6.540245    
   10.90000        -6.712037    
   10.95000        -6.885282    
   11.00000        -7.059828    
   11.05000        -7.235518    
   11.10000        -7.412198    
   11.15000        -7.589730    
   11.20000        -7.768001    
   11.25000        -7.946917    
   11.30000        -8.126392    
   11.35000        -8.306338    
   11.40000        -8.486644    
   11.45000        -8.667170    
   11.50000        -8.847747    
   11.55000        -9.028191    
   11.60000        -9.208317    
   11.65000        -9.387963    
   11.70000        -9.567001    
   11.75000        -9.745339    
   11.80000        -9.922915    
   11.85000        -10.09968    
   11.90000        -10.27555    
   11.95000        -10.45044    
   12.00000        -10.62421    
   12.05000        -10.79665    
   12.10000        -10.96756    
   12.15000        -11.13673    
   12.20000        -11.30397    
   12.25000        -11.46914    
   12.30000        -11.63212    
   12.35000        -11.79285    
   12.40000        -11.95130    
   12.45000        -12.10742    
   12.50000        -12.26116    
   12.55000        -12.41246    
   12.60000        -12.56122    
   12.65000        -12.70734    
   12.70000        -12.85074    
   12.75000        -12.99134    
   12.80000        -13.12906    
   12.85000        -13.26386    
   12.90000        -13.39569    
   12.95000        -13.52450    
   13.00000        -13.65023    
   13.05000        -13.77279    
   13.10000        -13.89212    
   13.15000        -14.00813    
   13.20000        -14.12077    
   13.25000        -14.23001    
   13.30000        -14.33585    
   13.35000        -14.43833    
   13.40000        -14.53750    
   13.45000        -14.63344    
   13.50000        -14.72621    
   13.55000        -14.81587    
   13.60000        -14.90248    
   13.65000        -14.98606    
   13.70000        -15.06665    
   13.75000        -15.14427    
   13.80000        -15.21892    
   13.85000        -15.29063    
   13.90000        -15.35940    
   13.95000        -15.42526    
   14.00000        -15.48825    
   14.05000        -15.54841    
   14.10000        -15.60581    
   14.15000        -15.66053    
   14.20000        -15.71268    
   14.25000        -15.76237    
   14.30000        -15.80974    
   14.35000        -15.85492    
   14.40000        -15.89805    
   14.45000        -15.93926    
   14.50000        -15.97867    
   14.55000        -16.01643    
   14.60000        -16.05262    
   14.65000        -16.08737    
   14.70000        -16.12074    
   14.75000        -16.15283    
   14.80000        -16.18368    
   14.85000        -16.21335    
   14.90000        -16.24189    
   14.95000        -16.26936    
   15.00000        -16.29585    
   15.05000        -16.32144    
   15.10000        -16.34628    
   15.15000        -16.37052    
   15.20000        -16.39433    
   15.25000        -16.41788    
   15.30000        -16.44134    
   15.35000        -16.46485    
   15.40000        -16.48855    
   15.45000        -16.51253    
   15.50000        -16.53688    
   15.55000        -16.56165    
   15.60000        -16.58688    
   15.65000        -16.61263    
   15.70000        -16.63892    
   15.75000        -16.66580    
   15.80000        -16.69333    
   15.85000        -16.72156    
   15.90000        -16.75058    
   15.95000        -16.78049    
   16.00000        -16.81138    
   16.05000        -16.84336    
   16.10000        -16.87653    
   16.15000        -16.91099    
   16.20000        -16.94681    
   16.25000        -16.98410    
   16.30000        -17.02293    
   16.35000        -17.06335    
   16.40000        -17.10542    
   16.45000        -17.14918    
   16.50000        -17.19465    
   16.55000        -17.24182    
   16.60000        -17.29067    
   16.65000        -17.34120    
   16.70000        -17.39339    
   16.75000        -17.44728    
   16.80000        -17.50290    
   16.85000        -17.56033    
   16.90000        -17.61968    
   16.95000        -17.68104    
   17.00000        -17.74449    
   17.05000        -17.81007    
   17.10000        -17.87779    
   17.15000        -17.94763    
   17.20000        -18.01957    
   17.25000        -18.09360    
   17.30000        -18.16972    
   17.35000        -18.24800    
   17.40000        -18.32850    
   17.45000        -18.41128    
   17.50000        -18.49637    
   17.55000        -18.58378    
   17.60000        -18.67348    
   17.65000        -18.76540    
   17.70000        -18.85950    
   17.75000        -18.95578    
   17.80000        -19.05428    
   17.85000        -19.15512    
   17.90000        -19.25843    
   17.95000        -19.36435    
   18.00000        -19.47296    
   18.05000        -19.58430    
   18.10000        -19.69832    
   18.15000        -19.81495    
   18.20000        -19.93410    
   18.25000        -20.05573    
   18.30000        -20.17986    
   18.35000        -20.30659    
   18.40000        -20.43604    
   18.45000        -20.56836    
   18.50000        -20.70366    
   18.55000        -20.84196    
   18.60000        -20.98325    
   18.65000        -21.12747    
   18.70000        -21.27456    
   18.75000        -21.42452    
   18.80000        -21.57744    
   18.85000        -21.73345    
   18.90000        -21.89273    
   18.95000        -22.05546    
   19.00000        -22.22174    
   19.05000        -22.39160    
   19.10000        -22.56498    
   19.15000        -22.74180    
   19.20000        -22.92195    
   19.25000        -23.10539    
   19.30000        -23.29217    
   19.35000        -23.48239    
   19.40000        -23.67621    
   19.45000        -23.87380    
   19.50000        -24.07528    
   19.55000        -24.28072    
   19.60000        -24.49013    
   19.65000        -24.70349    
   19.70000        -24.92082    
   19.75000        -25.14213    
   19.80000        -25.36753    
   19.85000        -25.59709    
   19.90000        -25.83091    
   19.95000        -26.06898    
   20.00000        -26.31126    
   20.05000        -26.55758    
   20.10000        -26.80780    
   20.15000        -27.06178    
   20.20000        -27.31946    
   20.25000        -27.58091    
   20.30000        -27.84628    
   20.35000        -28.11577    
   20.40000        -28.38958    
   20.45000        -28.66778    
   20.50000        -28.95035    
   20.55000        -29.23712    
   20.60000        -29.52786    
   20.65000        -29.82231    
   20.70000        -30.12026    
   20.75000        -30.42161    
   20.80000        -30.72631    
   20.85000        -31.03441    
   20.90000        -31.34592    
   20.95000        -31.66081    
   21.00000        -31.97896    
   21.05000        -32.30014    
   21.10000        -32.62411    
   21.15000        -32.95062    
   21.20000        -33.27950    
   21.25000        -33.61061    
   21.30000        -33.94389    
   21.35000        -34.27929    
   21.40000        -34.61670    
   21.45000        -34.95591    
   21.50000        -35.29662    
   21.55000        -35.63845    
   21.60000        -35.98100    
   21.65000        -36.32391    
   21.70000        -36.66690    
   21.75000        -37.00978    
   21.80000        -37.35244    
   21.85000        -37.69476    
   21.90000        -38.03661    
   21.95000        -38.37773    
   22.00000        -38.71780    
   22.05000        -39.05640    
   22.10000        -39.39307    
   22.15000        -39.72739    
   22.20000        -40.05897    
   22.25000        -40.38748    
   22.30000        -40.71262    
   22.35000        -41.03411    
   22.40000        -41.35168    
   22.45000        -41.66500    
   22.50000        -41.97373    
   22.55000        -42.27752    
   22.60000        -42.57603    
   22.65000        -42.86898    
   22.70000        -43.15609    
   22.75000        -43.43708    
   22.80000        -43.71166    
   22.85000        -43.97948    
   22.90000        -44.24017    
   22.95000        -44.49329    
   23.00000        -44.73843    
   23.05000        -44.97520    
   23.10000        -45.20328    
   23.15000        -45.42245    
   23.20000        -45.63249    
   23.25000        -45.83323    
   23.30000        -46.02443    
   23.35000        -46.20584    
   23.40000        -46.37716    
   23.45000        -46.53808    
   23.50000        -46.68834    
   23.55000        -46.82773    
   23.60000        -46.95615    
   23.65000        -47.07353    
   23.70000        -47.17983    
   23.75000        -47.27497    
   23.80000        -47.35879    
   23.85000        -47.43108    
   23.90000        -47.49156    
   23.95000        -47.53999    
   24.00000        -47.57621    
   24.05000        -47.60015    
   24.10000        -47.61187    
   24.15000        -47.61150    
   24.20000        -47.59920    
   24.25000        -47.57508    
   24.30000        -47.53920    
   24.35000        -47.49150    
   24.40000        -47.43194    
   24.45000        -47.36047    
   24.50000        -47.27712    
   24.55000        -47.18204    
   24.60000        -47.07549    
   24.65000        -46.95774    
   24.70000        -46.82908    
   24.75000        -46.68974    
   24.80000        -46.53984    
   24.85000        -46.37946    
   24.90000        -46.20868    
   24.95000        -46.02763    
   25.00000        -45.83652    
   25.05000        -45.63572    
   25.10000        -45.42565    
   25.15000        -45.20676    
   25.20000        -44.97947    
   25.25000        -44.74408    
   25.30000        -44.50083    
   25.35000        -44.24986    
   25.40000        -43.99131    
   25.45000        -43.72540    
   25.50000        -43.45243    
   25.55000        -43.17284    
   25.60000        -42.88710    
   25.65000        -42.59574    
   25.70000        -42.29921    
   25.75000        -41.99789    
   25.80000        -41.69211    
   25.85000        -41.38213    
   25.90000        -41.06821    
   25.95000        -40.75070    
   26.00000        -40.42999    
   26.05000        -40.10653    
   26.10000        -39.78077    
   26.15000        -39.45312    
   26.20000        -39.12391    
   26.25000        -38.79337    
   26.30000        -38.46169    
   26.35000        -38.12906    
   26.40000        -37.79572    
   26.45000        -37.46201    
   26.50000        -37.12836    
   26.55000        -36.79522    
   26.60000        -36.46305    
   26.65000        -36.13224    
   26.70000        -35.80304    
   26.75000        -35.47565    
   26.80000        -35.15018    
   26.85000        -34.82676    
   26.90000        -34.50557    
   26.95000        -34.18687    
   27.00000        -33.87097    
   27.05000        -33.55822    
   27.10000        -33.24889    
   27.15000        -32.94319    
   27.20000        -32.64124    
   27.25000        -32.34308    
   27.30000        -32.04874    
   27.35000        -31.75827    
   27.40000        -31.47179    
   27.45000        -31.18948    
   27.50000        -30.91155    
   27.55000        -30.63822    
   27.60000        -30.36963    
   27.65000        -30.10585    
   27.70000        -29.84689    
   27.75000        -29.59272    
   27.80000        -29.34334    
   27.85000        -29.09878    
   27.90000        -28.85915    
   27.95000        -28.62458    
   28.00000        -28.39517    
   28.05000        -28.17098    
   28.10000        -27.95196    
   28.15000        -27.73798    
   28.20000        -27.52888    
   28.25000        -27.32450    
   28.30000        -27.12478    
   28.35000        -26.92974    
   28.40000        -26.73949    
   28.45000        -26.55418    
   28.50000        -26.37390    
   28.55000        -26.19865    
   28.60000        -26.02831    
   28.65000        -25.86264    
   28.70000        -25.70137    
   28.75000        -25.54428    
   28.80000        -25.39125    
   28.85000        -25.24225    
   28.90000        -25.09737    
   28.95000        -24.95673    
   29.00000        -24.82041    
   29.05000        -24.68835    
   29.10000        -24.56042    
   29.15000        -24.43634    
   29.20000        -24.31586    
   29.25000        -24.19874    
   29.30000        -24.08484    
   29.35000        -23.97416    
   29.40000        -23.86675    
   29.45000        -23.76268    
   29.50000        -23.66197    
   29.55000        -23.56454    
   29.60000        -23.47021    
   29.65000        -23.37875    
   29.70000        -23.28994    
   29.75000        -23.20362    
   29.80000        -23.11974    
   29.85000        -23.03834    
   29.90000        -22.95950    
   29.95000        -22.88326    
   30.00000        -22.80959    
   30.05000        -22.73830    
   30.10000        -22.66917    
   30.15000        -22.60188    
   30.20000        -22.53621    
   30.25000        -22.47202    
   30.30000        -22.40932    
   30.35000        -22.34820    
   30.40000        -22.28882    
   30.45000        -22.23131    
   30.50000        -22.17569    
   30.55000        -22.12186    
   30.60000        -22.06964    
   30.65000        -22.01881    
   30.70000        -21.96917    
   30.75000        -21.92064    
   30.80000        -21.87322    
   30.85000        -21.82698    
   30.90000        -21.78200    
   30.95000        -21.73830    
   31.00000        -21.69578    
   31.05000        -21.65426    
   31.10000        -21.61347    
   31.15000        -21.57317    
   31.20000        -21.53322    
   31.25000        -21.49359    
   31.30000        -21.45443    
   31.35000        -21.41598    
   31.40000        -21.37848    
   31.45000        -21.34213    
   31.50000        -21.30699    
   31.55000        -21.27296    
   31.60000        -21.23985    
   31.65000        -21.20738    
   31.70000        -21.17531    
   31.75000        -21.14347    
   31.80000        -21.11181    
   31.85000        -21.08039    
   31.90000        -21.04928    
   31.95000        -21.01861    
   32.00000        -20.98842    
   32.05000        -20.95867    
   32.10000        -20.92928    
   32.15000        -20.90014    
   32.20000        -20.87115    
   32.25000        -20.84230    
   32.30000        -20.81361    
   32.35000        -20.78521    
   32.40000        -20.75721    
   32.45000        -20.72972    
   32.50000        -20.70281    
   32.55000        -20.67645    
   32.60000        -20.65053    
   32.65000        -20.62494    
   32.70000        -20.59953    
   32.75000        -20.57423    
   32.80000        -20.54897    
   32.85000        -20.52377    
   32.90000        -20.49869    
   32.95000        -20.47377    
   33.00000        -20.44907    
   33.05000        -20.42460    
   33.10000        -20.40033    
   33.15000        -20.37619    
   33.20000        -20.35213    
   33.25000        -20.32810    
   33.30000        -20.30408    
   33.35000        -20.28012    
   33.40000        -20.25626    
   33.45000        -20.23261    
   33.50000        -20.20923    
   33.55000        -20.18617    
   33.60000        -20.16344    
   33.65000        -20.14101    
   33.70000        -20.11880    
   33.75000        -20.09674    
   33.80000        -20.07475    
   33.85000        -20.05277    
   33.90000        -20.03079    
   33.95000        -20.00885    
   34.00000        -19.98698    
   34.05000        -19.96524    
   34.10000        -19.94365    
   34.15000        -19.92220    
   34.20000        -19.90086    
   34.25000        -19.87956    
   34.30000        -19.85826    
   34.35000        -19.83692    
   34.40000        -19.81553    
   34.45000        -19.79415    
   34.50000        -19.77287    
   34.55000        -19.75179    
   34.60000        -19.73098    
   34.65000        -19.71047    
   34.70000        -19.69025    
   34.75000        -19.67023    
   34.80000        -19.65034    
   34.85000        -19.63046    
   34.90000        -19.61053    
   34.95000        -19.59052    
   35.00000        -19.57047    
   35.05000        -19.55045    
   35.10000        -19.53052    
   35.15000        -19.51073    
   35.20000        -19.49110    
   35.25000        -19.47159    
   35.30000        -19.45215    
   35.35000        -19.43272    
   35.40000        -19.41327    