 -0.622799993         1.00000002E-24
 -0.610800028         1.00000002E-24
 -0.598800004         1.00000002E-24
 -0.586799979         1.00000002E-24
 -0.574800014        -2.87080706E-21
 -0.562799990        -1.95428157E-20
 -0.550800025        -6.68718657E-20
 -0.538800001        -1.46526283E-19
 -0.526799977        -2.13322319E-19
 -0.514800012        -1.81553491E-19
 -0.502799988        -4.37168831E-20
 -0.490799993        -1.32314131E-19
 -0.478799999        -1.41046506E-18
 -0.466800004        -5.48173130E-18
 -0.454800010        -1.39206176E-17
 -0.442799985        -2.67435416E-17
 -0.430799991        -4.04568082E-17
 -0.418799996        -4.69426387E-17
 -0.406800002        -3.49510874E-17
 -0.394800007         4.51518274E-18
 -0.382800013         6.94851236E-17
 -0.370799989         1.38357154E-16
 -0.358799994         1.67110376E-16
 -0.346799999         9.83267874E-17
 -0.334800005        -1.15709399E-16
 -0.322800010        -4.80805547E-16
 -0.310799986        -9.32685237E-16
 -0.298799992        -1.33056403E-15
 -0.286799997        -1.48678349E-15
 -0.274800003        -1.23384949E-15
 -0.262800008        -5.11122127E-16
 -0.250800014         5.63561460E-16
 -0.238800004         1.67681819E-15
 -0.226799995         2.38260648E-15
 -0.214800000         2.23920973E-15
 -0.202800006         9.77719331E-16
 -0.190799996        -1.36483838E-15
 -0.178800002        -4.41037350E-15
 -0.166800007        -7.52835853E-15
 -0.154799998        -1.00173725E-14
 -0.142800003        -1.12998591E-14
 -0.130799994        -1.10385164E-14
 -0.118799999        -9.12313692E-15
 -0.106799997        -5.55632311E-15
  -9.48000029E-02    -3.45234218E-16
  -8.28000009E-02     6.46791860E-15
  -7.07999989E-02     1.45671219E-14
  -5.88000007E-02     2.29900395E-14
  -4.67999987E-02     2.98588906E-14
  -3.48000005E-02     3.25354605E-14
  -2.28000004E-02     2.84362039E-14
  -1.08000003E-02     1.64648128E-14
   1.20000006E-03    -1.37614658E-15
   1.31999999E-02    -1.89737108E-14
   2.52000000E-02    -2.65470493E-14
   3.72000001E-02    -1.30582123E-14
   4.91999984E-02     2.96403323E-14
   6.12000003E-02     1.02085746E-13
   7.32000023E-02     1.93813837E-13
   8.51999968E-02     2.83317450E-13
   9.71999988E-02     3.42617427E-13
  0.109200001         3.46130785E-13
  0.121200003         2.81572725E-13
  0.133200005         1.59056457E-13
  0.145199999         1.41335409E-14
  0.157199994        -9.82489914E-14
  0.169200003        -1.19091979E-13
  0.181199998        -6.57769195E-15
  0.193200007         2.43401002E-13
  0.205200002         5.85379564E-13
  0.217199996         9.27700299E-13
  0.229200006         1.15349234E-12
  0.241200000         1.15562573E-12
  0.253199995         8.76127946E-13
  0.265199989         3.37016195E-13
  0.277200013        -3.50002796E-13
  0.289200008        -1.00244140E-12
  0.301200002        -1.41345692E-12
  0.313199997        -1.41512312E-12
  0.325199991        -9.40475345E-13
  0.337199986        -6.38650035E-14
  0.349200010         9.96748040E-13
  0.361200005         1.92196628E-12
  0.373199999         2.37077285E-12
  0.385199994         2.07870288E-12
  0.397199988         9.47411203E-13
  0.409200013        -9.01324534E-13
  0.421200007        -3.12595718E-12
  0.433200002        -5.22430103E-12
  0.445199996        -6.63947283E-12
  0.457199991        -6.88712412E-12
  0.469199985        -5.67196940E-12
  0.481200010        -2.96428247E-12
  0.493200004         9.81882978E-13
  0.505200028         5.67080627E-12
  0.517199993         1.04533491E-11
  0.529200017         1.46357371E-11
  0.541199982         1.75802428E-11
  0.553200006         1.87751741E-11
  0.565199971         1.78646872E-11
  0.577199996         1.46445425E-11
  0.589200020         9.04288189E-12
  0.601199985         1.11081825E-12
  0.613200009        -8.95617001E-12
  0.625199974        -2.07576092E-11
  0.637199998        -3.35975935E-11
  0.649200022        -4.63916093E-11
  0.661199987        -5.76097260E-11
  0.673200011        -6.52972190E-11
  0.685199976        -6.72042214E-11
  0.697200000        -6.10365439E-11
  0.709200025        -4.48145861E-11
  0.721199989        -1.73017625E-11
  0.733200014         2.15562117E-11
  0.745199978         7.02511799E-11
  0.757200003         1.25461974E-10
  0.769200027         1.81994961E-10
  0.781199992         2.32960901E-10
  0.793200016         2.70212491E-10
  0.805199981         2.85043517E-10
  0.817200005         2.69124723E-10
  0.829200029         2.15624102E-10
  0.841199994         1.20427210E-10
  0.853200018        -1.66587855E-11
  0.865199983        -1.90863991E-10
  0.877200007        -3.91746413E-10
  0.889199972        -6.02986772E-10
  0.901199996        -8.02841071E-10
  0.913200021        -9.65352132E-10
  0.925199986        -1.06234743E-09
  0.937200010        -1.06614539E-09
  0.949199975        -9.52788848E-10
  0.961199999        -7.05516923E-10
  0.973200023        -3.18109539E-10
  0.985199988         2.02316428E-10
  0.997200012         8.33482172E-10
   1.00919998         1.53748891E-09
   1.02119994         2.26204433E-09
   1.03320003         2.94357960E-09
   1.04519999         3.51231066E-09
   1.05719995         3.89911348E-09
   1.06920004         4.04387546E-09
   1.08120000         3.90474364E-09
   1.09319997         3.46748341E-09
   1.10520005         2.75396905E-09
   1.11720002         1.82871285E-09
   1.12919998         8.02372335E-10
   1.14119995        -1.68674241E-10
   1.15320003        -8.87246943E-10
   1.16520000        -1.12482712E-09
   1.17719996        -6.34946984E-10
   1.18920004         8.30782165E-10
   1.20120001         3.50609652E-09
   1.21319997         7.59565566E-09
   1.22520006         1.32658906E-08
   1.23720002         2.06446185E-08
   1.24919999         2.98327230E-08
   1.26119995         4.09308001E-08
   1.27320004         5.40831380E-08
   1.28520000         6.95399862E-08
   1.29719996         8.77380657E-08
   1.30920005         1.09397440E-07
   1.32120001         1.35631311E-07
   1.33319998         1.68063707E-07
   1.34519994         2.08948066E-07
   1.35720003         2.61278899E-07
   1.36919999         3.28887012E-07
   1.38119996         4.16509209E-07
   1.39320004         5.29822671E-07
   1.40520000         6.75435786E-07
   1.41719997         8.60826901E-07
   1.42920005         1.09422854E-06
   1.44120002         1.38445080E-06
   1.45319998         1.74064780E-06
   1.46519995         2.17202955E-06
   1.47720003         2.68752592E-06
   1.48920000         3.29541808E-06
   1.50119996         4.00294266E-06
   1.51320004         4.81589541E-06
   1.52520001         5.73824536E-06
   1.53719997         6.77178559E-06
   1.54920006         7.91583079E-06
   1.56120002         9.16698991E-06
   1.57319999         1.05190156E-05
   1.58519995         1.19627612E-05
   1.59720004         1.34862348E-05
   1.60920000         1.50747592E-05
   1.62119997         1.67112375E-05
   1.63320005         1.83765187E-05
   1.64520001         2.00498343E-05
   1.65719998         2.17093238E-05
   1.66919994         2.33325827E-05
   1.68120003         2.48972628E-05
   1.69319999         2.63816564E-05
   1.70519996         2.77652634E-05
   1.71720004         2.90293301E-05
   1.72920001         3.01573018E-05
   1.74119997         3.11352269E-05
   1.75320005         3.19520514E-05
   1.76520002         3.25998299E-05
   1.77719998         3.30738112E-05
   1.78919995         3.33724893E-05
   1.80120003         3.34974866E-05
   1.81320000         3.34534452E-05
   1.82519996         3.32477866E-05
   1.83720005         3.28904716E-05
   1.84920001         3.23937165E-05
   1.86119998         3.17716658E-05
   1.87320006         3.10401192E-05
   1.88520002         3.02161934E-05
   1.89719999         2.93180747E-05
   1.90919995         2.83647132E-05
   1.92120004         2.73755977E-05
   1.93320000         2.63705151E-05
   1.94519997         2.53693379E-05
   1.95720005         2.43918112E-05
   1.96920002         2.34573454E-05
   1.98119998         2.25847907E-05
   1.99319994         2.17921988E-05
   2.00519991         2.10965518E-05
   2.01719999         2.05134711E-05
   2.02920008         2.00568938E-05
   2.04119992         1.97387308E-05
   2.05320001         1.95684806E-05
   2.06520009         1.95528810E-05
   2.07719994         1.96955370E-05
   2.08920002         1.99965943E-05
   2.10120010         2.04524677E-05
   2.11319995         2.10556336E-05
   2.12520003         2.17945271E-05
   2.13720012         2.26535376E-05
   2.14919996         2.36131673E-05
   2.16120005         2.46503023E-05
   2.17319989         2.57386600E-05
   2.18519998         2.68493659E-05
   2.19720006         2.79517026E-05
   2.20919991         2.90139578E-05
   2.22119999         3.00044067E-05
   2.23320007         3.08923409E-05
   2.24519992         3.16491605E-05
   2.25720000         3.22494452E-05
   2.26920009         3.26719855E-05
   2.28119993         3.29007453E-05
   2.29320002         3.29256472E-05
   2.30520010         3.27432426E-05
   2.31719995         3.23571330E-05
   2.32920003         3.17781924E-05
   2.34120011         3.10245196E-05
   2.35319996         3.01211530E-05
   2.36520004         2.90994885E-05
   2.37719989         2.79965061E-05
   2.38919997         2.68537206E-05
   2.40120006         2.57159681E-05
   2.41319990         2.46300133E-05
   2.42519999         2.36430496E-05
   2.43720007         2.28011377E-05
   2.44919991         2.21476294E-05
   2.46120000         2.17216420E-05
   2.47320008         2.15566251E-05
   2.48519993         2.16790868E-05
   2.49720001         2.21075079E-05
   2.50920010         2.28515182E-05
   2.52119994         2.39113215E-05
   2.53320003         2.52774462E-05
   2.54520011         2.69307857E-05
   2.55719995         2.88429765E-05
   2.56920004         3.09770621E-05
   2.58119988         3.32884301E-05
   2.59319997         3.57260469E-05
   2.60520005         3.82338294E-05
   2.61719990         4.07522457E-05
   2.62919998         4.32199740E-05
   2.64120007         4.55756308E-05
   2.65319991         4.77594949E-05
   2.66520000         4.97151304E-05
   2.67720008         5.13909326E-05
   2.68919992         5.27414559E-05
   2.70120001         5.37285414E-05
   2.71320009         5.43222013E-05
   2.72519994         5.45012263E-05
   2.73720002         5.42535163E-05
   2.74920011         5.35761101E-05
   2.76119995         5.24749594E-05
   2.77320004         5.09644669E-05
   2.78520012         4.90667626E-05
   2.79719996         4.68108337E-05
   2.80920005         4.42314813E-05
   2.82119989         4.13681846E-05
   2.83319998         3.82638827E-05
   2.84520006         3.49637448E-05
   2.85719991         3.15139405E-05
   2.86919999         2.79604810E-05
   2.88120008         2.43481245E-05
   2.89319992         2.07194098E-05
   2.90520000         1.71138236E-05
   2.91720009         1.35671107E-05
   2.92919993         1.01107489E-05
   2.94120002         6.77159414E-06
   2.95320010         3.57168187E-06
   2.96519995         5.28192516E-07
   2.97720003        -2.34644449E-06
   2.98920012        -5.04430682E-06
   3.00119996        -7.56163081E-06
   3.01320004        -9.89836371E-06
   3.02519989        -1.20576424E-05
   3.03719997        -1.40452248E-05
   3.04920006        -1.58688817E-05
   3.06119990        -1.75377954E-05
   3.07319999        -1.90619539E-05
   3.08520007        -2.04515909E-05
   3.09719992        -2.17166671E-05
   3.10920000        -2.28663939E-05
   3.12120008        -2.39088604E-05
   3.13319993        -2.48506876E-05
   3.14520001        -2.56967924E-05
   3.15720010        -2.64502160E-05
   3.16919994        -2.71120280E-05
   3.18120003        -2.76813262E-05
   3.19320011        -2.81553075E-05
   3.20519996        -2.85294063E-05
   3.21720004        -2.87975236E-05
   3.22919989        -2.89523141E-05
   3.24119997        -2.89855598E-05
   3.25320005        -2.88885822E-05
   3.26519990        -2.86527265E-05
   3.27719998        -2.82698747E-05
   3.28920007        -2.77330055E-05
   3.30119991        -2.70367273E-05
   3.31320000        -2.61778550E-05
   3.32520008        -2.51559031E-05
   3.33719993        -2.39735509E-05
   3.34920001        -2.26370230E-05
   3.36120009        -2.11563456E-05
   3.37319994        -1.95454832E-05
   3.38520002        -1.78223181E-05
   3.39720011        -1.60084710E-05
   3.40919995        -1.41289320E-05
   3.42120004        -1.22115371E-05
   3.43319988        -1.02862668E-05
   3.44519997        -8.38440974E-06
   3.45720005        -6.53761208E-06
   3.46919990        -4.77685262E-06
   3.48119998        -3.13139208E-06
   3.49320006        -1.62773631E-06
   3.50519991        -2.88678137E-07
   3.51719999         8.67545225E-07
   3.52920008         1.82793622E-06
   3.54119992         2.58521936E-06
   3.55320001         3.13810415E-06
   3.56520009         3.49130937E-06
   3.57719994         3.65534765E-06
   3.58920002         3.64607467E-06
   3.60120010         3.48402637E-06
   3.61319995         3.19357036E-06
   3.62520003         2.80190920E-06
   3.63720012         2.33798346E-06
   3.64919996         1.83131851E-06
   3.66120005         1.31087211E-06
   3.67319989         8.03932380E-07
   3.68519998         3.35113270E-07
   3.69720006        -7.45091668E-08
   3.70919991        -4.08085157E-07
   3.72119999        -6.53481209E-07
   3.73320007        -8.03557271E-07
   3.74519992        -8.56227587E-07
   3.75720000        -8.14311704E-07
   3.76920009        -6.85191822E-07
   3.78119993        -4.80297842E-07
   3.79320002        -2.14447198E-07
   3.80520010         9.49263992E-08
   3.81719995         4.28624304E-07
   3.82920003         7.66577784E-07
   3.84120011         1.08875054E-06
   3.85319996         1.37601421E-06
   3.86520004         1.61096762E-06
   3.87719989         1.77866298E-06
   3.88919997         1.86722161E-06
   3.90120006         1.86831198E-06
   3.91319990         1.77747950E-06
   3.92519999         1.59431511E-06
   3.93720007         1.32246328E-06
   3.94919991         9.69468942E-07
   3.96120000         5.46474155E-07
   3.97320008         6.77755096E-08
   3.98519993        -4.49738877E-07
   3.99720001        -9.87251724E-07
   4.00920010        -1.52475320E-06
   4.02120018        -2.04182334E-06
   4.03319979        -2.51843062E-06
   4.04519987        -2.93571588E-06
   4.05719995        -3.27672865E-06
   4.06920004        -3.52708980E-06
   4.08120012        -3.67555140E-06
   4.09320021        -3.71443252E-06
   4.10519981        -3.63991740E-06
   4.11719990        -3.45220019E-06
   4.12919998        -3.15547686E-06
   4.14120007        -2.75778120E-06
   4.15320015        -2.27067767E-06
   4.16520023        -1.70881879E-06
   4.17719984        -1.08938809E-06
   4.18919992        -4.31448967E-07
   4.20120001         2.44775038E-07
   4.21320009         9.18660987E-07
   4.22520018         1.56996271E-06
   4.23719978         2.17957108E-06
   4.24919987         2.73023079E-06
   4.26119995         3.20718527E-06
   4.27320004         3.59872774E-06
   4.28520012         3.89663091E-06
   4.29720020         4.09643962E-06
   4.30919981         4.19760818E-06
   4.32119989         4.20348260E-06
   4.33319998         4.12111422E-06
   4.34520006         3.96092628E-06
   4.35720015         3.73623607E-06
   4.36920023         3.46266415E-06
   4.38119984         3.15745206E-06
   4.39319992         2.83872737E-06
   4.40520000         2.52474365E-06
   4.41720009         2.23313350E-06
   4.42920017         1.98020530E-06
   4.44119978         1.78031837E-06
   4.45319986         1.64535561E-06
   4.46519995         1.58432636E-06
   4.47720003         1.60310503E-06
   4.48920012         1.70432543E-06
   4.50120020         1.88742229E-06
   4.51319981         2.14881970E-06
   4.52519989         2.48225069E-06
   4.53719997         2.87917896E-06
   4.54920006         3.32930063E-06
   4.56120014         3.82108919E-06
   4.57320023         4.34235562E-06
   4.58519983         4.88079013E-06
   4.59719992         5.42446878E-06
   4.60920000         5.96229074E-06
   4.62120008         6.48434934E-06
   4.63320017         6.98221993E-06
   4.64519978         7.44915769E-06
   4.65719986         7.88021589E-06
   4.66919994         8.27227359E-06
   4.68120003         8.62398883E-06
   4.69320011         8.93567631E-06
   4.70520020         9.20911225E-06
   4.71719980         9.44729163E-06
   4.72919989         9.65413346E-06
   4.74119997         9.83415703E-06
   4.75320005         9.99213808E-06
   4.76520014         1.01327660E-05
   4.77720022         1.02603171E-05
   4.78919983         1.03783559E-05
   4.80119991         1.04894807E-05
   4.81320000         1.05951294E-05
   4.82520008         1.06954449E-05
   4.83720016         1.07892201E-05
   4.84919977         1.08739205E-05
   4.86119986         1.09457878E-05
   4.87319994         1.10000346E-05
   4.88520002         1.10311075E-05
   4.89720011         1.10330384E-05
   4.90920019         1.09998455E-05
   4.92119980         1.09259809E-05
   4.93319988         1.08068116E-05
   4.94519997         1.06390880E-05
   4.95720005         1.04213832E-05
   4.96920013         1.01544802E-05
   4.98120022         9.84166581E-06
   4.99319983         9.48892284E-06
   5.00519991         9.10499693E-06
   5.01719999         8.70133317E-06
   5.02920008         8.29187411E-06
   5.04120016         7.89274418E-06
   5.05319977         7.52179994E-06
   5.06519985         7.19810168E-06
   5.07719994         6.94129949E-06
   5.08920002         6.77097341E-06
   5.10120010         6.70594454E-06
   5.11320019         6.76358968E-06
   5.12519979         6.95917652E-06
   5.13719988         7.30523743E-06
   5.14919996         7.81101062E-06
   5.16120005         8.48195486E-06
   5.17320013         9.31935574E-06
   5.18520021         1.03200318E-05
   5.19719982         1.14761551E-05
   5.20919991         1.27751837E-05
   5.22119999         1.41999317E-05
   5.23320007         1.57287686E-05
   5.24520016         1.73359476E-05
   5.25719976         1.89920975E-05
   5.26919985         2.06648274E-05
   5.28119993         2.23194947E-05
   5.29320002         2.39200963E-05
   5.30520010         2.54302668E-05
   5.31720018         2.68144122E-05
   5.32919979         2.80388667E-05
   5.34119987         2.90731259E-05
   5.35319996         2.98910418E-05
   5.36520004         3.04719797E-05
   5.37720013         3.08018280E-05
   5.38920021         3.08738527E-05
   5.40119982         3.06892871E-05
   5.41319990         3.02576591E-05
   5.42519999         2.95967748E-05
   5.43720007         2.87323473E-05
   5.44920015         2.76972696E-05
   5.46120024         2.65305407E-05
   5.47319984         2.52758473E-05
   5.48519993         2.39799137E-05
   5.49720001         2.26906050E-05
   5.50920010         2.14549509E-05
   5.52120018         2.03171094E-05
   5.53319979         1.93164378E-05
   5.54519987         1.84857126E-05
   5.55719995         1.78496248E-05
   5.56920004         1.74236357E-05
   5.58120012         1.72132295E-05
   5.59320021         1.72136406E-05
   5.60519981         1.74100478E-05
   5.61719990         1.77782476E-05
   5.62919998         1.82857602E-05
   5.64120007         1.88933263E-05
   5.65320015         1.95567063E-05
   5.66520023         2.02286992E-05
   5.67719984         2.08612637E-05
   5.68919992         2.14076736E-05
   5.70120001         2.18245368E-05
   5.71320009         2.20736511E-05
   5.72520018         2.21235714E-05
   5.73719978         2.19508274E-05
   5.74919987         2.15407690E-05
   5.76119995         2.08879865E-05
   5.77320004         1.99963270E-05
   5.78520012         1.88785125E-05
   5.79720020         1.75554142E-05
   5.80919981         1.60550171E-05
   5.82119989         1.44111500E-05
   5.83319998         1.26620507E-05
   5.84520006         1.08488384E-05
   5.85720015         9.01396925E-06
   5.86920023         7.19973332E-06
   5.88119984         5.44685781E-06
   5.89319992         3.79326980E-06
   5.90520000         2.27304372E-06
   5.91720009         9.15572059E-07
   5.92920017        -2.55036809E-07
   5.94119978        -1.22032645E-06
   5.95319986        -1.96763744E-06
   5.96519995        -2.49004074E-06
   5.97720003        -2.78608968E-06
   5.98920012        -2.85941360E-06
   6.00120020        -2.71818976E-06
   6.01319981        -2.37452400E-06
   6.02519989        -1.84377802E-06
   6.03719997        -1.14387558E-06
   6.04920006        -2.94620662E-07
   6.06120014         6.82949917E-07
   6.07320023         1.76714991E-06
   6.08519983         2.93615039E-06
   6.09719992         4.16839794E-06
   6.10920000         5.44293334E-06
   6.12120008         6.73962813E-06
   6.13320017         8.03931925E-06
   6.14519978         9.32388139E-06
   6.15719986         1.05762356E-05
   6.16919994         1.17803174E-05
   6.18120003         1.29210266E-05
   6.19320011         1.39841823E-05
   6.20520020         1.49564930E-05
   6.21719980         1.58255752E-05
   6.22919989         1.65800247E-05
   6.24119997         1.72095406E-05
   6.25320005         1.77051352E-05
   6.26520014         1.80593743E-05
   6.27720022         1.82667009E-05
   6.28919983         1.83237644E-05
   6.30119991         1.82297663E-05
   6.31320000         1.79867948E-05
   6.32520008         1.76000904E-05
   6.33720016         1.70782550E-05
   6.34919977         1.64333451E-05
   6.36119986         1.56808364E-05
   6.37319994         1.48394374E-05
   6.38520002         1.39307549E-05
   6.39720011         1.29787859E-05
   6.40920019         1.20092654E-05
   6.42119980         1.10488818E-05
   6.43319988         1.01243850E-05
   6.44519997         9.26163739E-06
   6.45720005         8.48464697E-06
   6.46920013         7.81463223E-06
   6.48120022         7.26918188E-06
   6.49319983         6.86154272E-06
   6.50519991         6.60008936E-06
   6.51719999         6.48800506E-06
   6.52920008         6.52319613E-06
   6.54120016         6.69844576E-06
   6.55319977         7.00180499E-06
   6.56519985         7.41720669E-06
   6.57719994         7.92525043E-06
   6.58920002         8.50414563E-06
   6.60120010         9.13072927E-06
   6.61320019         9.78151184E-06
   6.62519979         1.04336959E-05
   6.63719988         1.10660967E-05
   6.64919996         1.16599131E-05
   6.66120005         1.21993144E-05
   6.67320013         1.26718123E-05
   6.68520021         1.30684020E-05
   6.69719982         1.33834892E-05
   6.70919991         1.36146091E-05
   6.72119999         1.37619927E-05
   6.73320007         1.38279984E-05
   6.74520016         1.38164751E-05
   6.75719976         1.37321122E-05
   6.76919985         1.35798064E-05
   6.78119993         1.33641042E-05
   6.79320002         1.30887520E-05
   6.80520010         1.27563771E-05
   6.81720018         1.23683139E-05
   6.82919979         1.19245824E-05
   6.84119987         1.14240038E-05
   6.85319996         1.08644472E-05
   6.86520004         1.02431604E-05
   6.87720013         9.55719224E-06
   6.88920021         8.80381776E-06
   6.90119982         7.98098154E-06
   6.91319990         7.08769267E-06
   6.92519999         6.12436133E-06
   6.93720007         5.09304346E-06
   6.94920015         3.99759483E-06
   6.96120024         2.84372186E-06
   6.97319984         1.63893628E-06
   6.98519993         3.92425505E-07
   6.99720001        -8.85144743E-07
   7.00920010        -2.18188052E-06
   7.02120018        -3.48493836E-06
   7.03319979        -4.78082029E-06
   7.04519987        -6.05566538E-06
   7.05719995        -7.29552903E-06
   7.06920004        -8.48664149E-06
   7.08120012        -9.61563273E-06
   7.09320021        -1.06697362E-05
   7.10519981        -1.16369501E-05
   7.11719990        -1.25061870E-05
   7.12919998        -1.32673895E-05
   7.14120007        -1.39116401E-05
   7.15320015        -1.44312535E-05
   7.16520023        -1.48198724E-05
   7.17719984        -1.50725546E-05
   7.18919992        -1.51858594E-05
   7.20120001        -1.51579388E-05
   7.21320009        -1.49886109E-05
   7.22520018        -1.46794273E-05
   7.23719978        -1.42337121E-05
   7.24919987        -1.36565714E-05
   7.26119995        -1.29548571E-05
   7.27320004        -1.21370877E-05
   7.28520012        -1.12133021E-05
   7.29720020        -1.01948744E-05
   7.30919981        -9.09425853E-06
   7.32119989        -7.92470018E-06
   7.33319998        -6.69991368E-06
   7.34520006        -5.43373881E-06
   7.35720015        -4.13980297E-06
   7.36920023        -2.83119721E-06
   7.38119984        -1.52018629E-06
   7.39319992        -2.17965948E-07
   7.40520000         1.06552159E-06
   7.41720009         2.32170851E-06
   7.42920017         3.54344729E-06
   7.44119978         4.72498823E-06
   7.45319986         5.86188480E-06
   7.46519995         6.95084100E-06
   7.47720003         7.98950896E-06
   7.48920012         8.97625341E-06
   7.50120020         9.90989975E-06
   7.51319981         1.07894894E-05
   7.52519989         1.16140636E-05
   7.53719997         1.23824730E-05
   7.54920006         1.30932485E-05
   7.56120014         1.37445386E-05
   7.57320023         1.43340721E-05
   7.58519983         1.48592189E-05
   7.59719992         1.53170677E-05
   7.60920000         1.57045524E-05
   7.62120008         1.60186137E-05
   7.63320017         1.62563774E-05
   7.64519978         1.64153262E-05
   7.65719986         1.64935009E-05
   7.66919994         1.64896519E-05
   7.68120003         1.64034154E-05
   7.69320011         1.62354263E-05
   7.70520020         1.59874271E-05
   7.71719980         1.56623391E-05
   7.72919989         1.52642915E-05
   7.74119997         1.47986257E-05
   7.75320005         1.42718654E-05
   7.76520014         1.36916569E-05
   7.77720022         1.30666876E-05
   7.78919983         1.24065818E-05
   7.80119991         1.17217805E-05
   7.81320000         1.10234096E-05
   7.82520008         1.03231314E-05
   7.83720016         9.63298135E-06
   7.84919977         8.96520305E-06
   7.86119986         8.33205104E-06
   7.87319994         7.74559066E-06
   7.88520002         7.21747347E-06
   7.89720011         6.75869933E-06
   7.90920019         6.37935773E-06
   7.92119980         6.08836581E-06
   7.93319988         5.89320007E-06
   7.94519997         5.79963535E-06
   7.95720005         5.81148788E-06
   7.96920013         5.93039840E-06
   7.98120022         6.15564159E-06
   7.99319983         6.48399555E-06
   8.00520039         6.90966681E-06
   8.01720047         7.42430029E-06
   8.02919960         8.01706847E-06
   8.04119968         8.67485687E-06
   8.05319977         9.38255198E-06
   8.06519985         1.01234145E-05
   8.07719994         1.08795402E-05
   8.08920002         1.16323936E-05
   8.10120010         1.23633918E-05
   8.11320019         1.30545131E-05
   8.12520027         1.36889139E-05
   8.13720036         1.42515037E-05
   8.14920044         1.47294841E-05
   8.16119957         1.51127961E-05
   8.17319965         1.53944729E-05
   8.18519974         1.55708840E-05
   8.19719982         1.56418537E-05
   8.20919991         1.56106544E-05
   8.22119999         1.54838799E-05
   8.23320007         1.52712037E-05
   8.24520016         1.49850412E-05
   8.25720024         1.46401144E-05
   8.26920033         1.42529616E-05
   8.28120041         1.38413961E-05
   8.29319954         1.34239344E-05
   8.30519962         1.30192202E-05
   8.31719971         1.26454615E-05
   8.32919979         1.23198888E-05
   8.34119987         1.20582599E-05
   8.35319996         1.18743983E-05
   8.36520004         1.17798027E-05
   8.37720013         1.17832878E-05
   8.38920021         1.18907064E-05
   8.40120029         1.21047069E-05
   8.41320038         1.24245580E-05
   8.42520046         1.28460442E-05
   8.43719959         1.33614312E-05
   8.44919968         1.39595104E-05
   8.46119976         1.46257489E-05
   8.47319984         1.53425426E-05
   8.48519993         1.60895979E-05
   8.49720001         1.68444149E-05
   8.50920010         1.75829155E-05
   8.52120018         1.82801596E-05
   8.53320026         1.89111724E-05
   8.54520035         1.94518325E-05
   8.55720043         1.98797970E-05
   8.56919956         2.01754265E-05
   8.58119965         2.03226773E-05
   8.59319973         2.03098898E-05
   8.60519981         2.01304683E-05
   8.61719990         1.97833688E-05
   8.62919998         1.92733896E-05
   8.64120007         1.86112375E-05
   8.65320015         1.78133305E-05
   8.66520023         1.69013529E-05
   8.67720032         1.59015817E-05
   8.68920040         1.48439876E-05
   8.70119953         1.37611614E-05
   8.71319962         1.26871237E-05
   8.72519970         1.16560532E-05
   8.73719978         1.07010001E-05
   8.74919987         9.85266070E-06
   8.76119995         9.13823806E-06
   8.77320004         8.58047224E-06
   8.78520012         8.19684828E-06
   8.79720020         7.99904046E-06
   8.80920029         7.99259124E-06
   8.82120037         8.17683122E-06
   8.83320045         8.54503924E-06
   8.84519958         9.08482434E-06
   8.85719967         9.77869331E-06
   8.86919975         1.06047764E-05
   8.88119984         1.15376770E-05
   8.89319992         1.25493898E-05
   8.90520000         1.36102681E-05
   8.91720009         1.46899865E-05
   8.92920017         1.57584655E-05
   8.94120026         1.67867456E-05
   8.95320034         1.77477796E-05
   8.96520042         1.86171092E-05
   8.97719955         1.93734486E-05
   8.98919964         1.99991373E-05
   9.00119972         2.04804965E-05
   9.01319981         2.08080455E-05
   9.02519989         2.09766258E-05
   9.03719997         2.09854061E-05
   9.04920006         2.08377860E-05
   9.06120014         2.05411998E-05
   9.07320023         2.01068360E-05
   9.08520031         1.95492357E-05