 -0.622799993         1.00000012E-24
 -0.610800028         1.00000012E-24
 -0.598800004         1.00000012E-24
 -0.586799979         7.24297542E-17
 -0.574800014         4.03763268E-16
 -0.562799990         1.16221010E-15
 -0.550800025         2.17173742E-15
 -0.538800001         2.60209771E-15
 -0.526799977         1.04748319E-15
 -0.514800012        -3.71911034E-15
 -0.502799988        -1.14168767E-14
 -0.490799993        -1.89891421E-14
 -0.478799999        -2.03867092E-14
 -0.466800004        -8.23676776E-15
 -0.454800010         2.25570125E-14
 -0.442799985         7.04257548E-14
 -0.430799991         1.24128423E-13
 -0.418799996         1.63511281E-13
 -0.406800002         1.65410125E-13
 -0.394800007         1.13976198E-13
 -0.382800013         1.22683744E-14
 -0.370799989        -1.09706020E-13
 -0.358799994        -1.95193593E-13
 -0.346799999        -1.71532629E-13
 -0.334800005         2.98826786E-14
 -0.322800010         4.50145888E-13
 -0.310799986         1.08411598E-12
 -0.298799992         1.87442943E-12
 -0.286799997         2.72292735E-12
 -0.274800003         3.51872351E-12
 -0.262800008         4.17653022E-12
 -0.250800014         4.67510839E-12
 -0.238800004         5.08520136E-12
 -0.226799995         5.57915780E-12
 -0.214800000         6.41939106E-12
 -0.202800006         7.92812777E-12
 -0.190799996         1.04447388E-11
 -0.178800002         1.42787145E-11
 -0.166800007         1.96660813E-11
 -0.154799998         2.67360370E-11
 -0.142800003         3.54934068E-11
 -0.130799994         4.58216243E-11
 -0.118799999         5.75096012E-11
 -0.106799997         7.03026595E-11
  -9.48000029E-02     8.39729744E-11
  -8.28000009E-02     9.83984144E-11
  -7.07999989E-02     1.13632673E-10
  -5.88000007E-02     1.29947358E-10
  -4.67999987E-02     1.47828694E-10
  -3.48000005E-02     1.67920289E-10
  -2.28000004E-02     1.90914992E-10
  -1.08000003E-02     2.17409535E-10
   1.20000006E-03     2.47745241E-10
   1.31999999E-02     2.81859314E-10
   2.52000000E-02     3.19169274E-10
   3.72000001E-02     3.58509444E-10
   4.91999984E-02     3.98133193E-10
   6.12000003E-02     4.35796094E-10
   7.32000023E-02     4.68933170E-10
   8.51999968E-02     4.94938535E-10
   9.71999988E-02     5.11544085E-10
  0.109200001         5.17266507E-10
  0.121200003         5.11862830E-10
  0.133200005         4.96701402E-10
  0.145199999         4.74941309E-10
  0.157199994         4.51421428E-10
  0.169200003         4.32203856E-10
  0.181199998         4.23778762E-10
  0.193200007         4.32018976E-10
  0.205200002         4.61034516E-10
  0.217199996         5.12117460E-10
  0.229200006         5.82962900E-10
  0.241200000         6.67311817E-10
  0.253199995         7.55094876E-10
  0.265199989         8.33082325E-10
  0.277200013         8.85991058E-10
  0.289200008         8.97956487E-10
  0.301200002         8.54271875E-10
  0.313199997         7.43296591E-10
  0.325199991         5.58440572E-10
  0.337199986         3.00118652E-10
  0.349200010        -2.24637496E-11
  0.361200005        -3.89889981E-10
  0.373199999        -7.71740338E-10
  0.385199994        -1.12676357E-09
  0.397199988        -1.40438661E-09
  0.409200013        -1.54793056E-09
  0.421200007        -1.49981372E-09
  0.433200002        -1.20884747E-09
  0.445199996        -6.39424791E-10
  0.457199991         2.17975818E-10
  0.469199985         1.33600830E-09
  0.481200010         2.64087041E-09
  0.493200004         4.00570555E-09
  0.505200028         5.24895549E-09
  0.517199993         6.13943563E-09
  0.529200017         6.40948850E-09
  0.541199982         5.77671333E-09
  0.553200006         3.97378086E-09
  0.565199971         7.84644905E-10
  0.577199996        -3.91575483E-09
  0.589200020        -1.01221751E-08
  0.601199985        -1.76648349E-08
  0.613200009        -2.61853330E-08
  0.625199974        -3.51275098E-08
  0.637199998        -4.37476153E-08
  0.649200022        -5.11466851E-08
  0.661199987        -5.63264457E-08
  0.673200011        -5.82676698E-08
  0.685199976        -5.60273463E-08
  0.697200000        -4.88487188E-08
  0.709200025        -3.62754271E-08
  0.721199989        -1.82591826E-08
  0.733200014         4.75079842E-09
  0.745199978         3.17487405E-08
  0.757200003         6.11552977E-08
  0.769200027         9.08521613E-08
  0.781199992         1.18275054E-07
  0.793200016         1.40568304E-07
  0.805199981         1.54798954E-07
  0.817200005         1.58224282E-07
  0.829200029         1.48600478E-07
  0.841199994         1.24515097E-07
  0.853200018         8.57220215E-08
  0.865199983         3.34526149E-08
  0.877200007        -2.93222051E-08
  0.889199972        -9.77081882E-08
  0.901199996        -1.64805002E-07
  0.913200021        -2.21746674E-07
  0.925199986        -2.57879407E-07
  0.937200010        -2.61082135E-07
  0.949199975        -2.18227939E-07
  0.961199999        -1.15773304E-07
  0.973200023         5.95441882E-08
  0.985199988         3.19934202E-07
  0.997200012         6.75745639E-07
   1.00919998         1.13466467E-06
   1.02119994         1.70097405E-06
   1.03320003         2.37491531E-06
   1.04519999         3.15220973E-06
   1.05719995         4.02377873E-06
   1.06920004         4.97570227E-06
   1.08120000         5.98944189E-06
   1.09319997         7.04233753E-06
   1.10520005         8.10838810E-06
   1.11720002         9.15928649E-06
   1.12919998         1.01656915E-05
   1.14119995         1.10986757E-05
   1.15320003         1.19312890E-05
   1.16520000         1.26401728E-05
   1.17719996         1.32071127E-05
   1.18920004         1.36204644E-05
   1.20120001         1.38763526E-05
   1.21319997         1.39795438E-05
   1.22520006         1.39439289E-05
   1.23720002         1.37925699E-05
   1.24919999         1.35572282E-05
   1.26119995         1.32774157E-05
   1.27320004         1.29989276E-05
   1.28520000         1.27719386E-05
   1.29719996         1.26487002E-05
   1.30920005         1.26809437E-05
   1.32120001         1.29170921E-05
   1.33319998         1.33994381E-05
   1.34519994         1.41613700E-05
   1.35720003         1.52248576E-05
   1.36919999         1.65982765E-05
   1.38119996         1.82747390E-05
   1.39320004         2.02310039E-05
   1.40520000         2.24270734E-05
   1.41719997         2.48064916E-05
   1.42920005         2.72973903E-05
   1.44120002         2.98142331E-05
   1.45319998         3.22602136E-05
   1.46519995         3.45302506E-05
   1.47720003         3.65143824E-05
   1.48920000         3.81015489E-05
   1.50119996         3.91834765E-05
   1.51320004         3.96586111E-05
   1.52520001         3.94358976E-05
   1.53719997         3.84382511E-05
   1.54920006         3.66056047E-05
   1.56120002         3.38974023E-05
   1.57319999         3.02944536E-05
   1.58519995         2.58000728E-05
   1.59720004         2.04404841E-05
   1.60920000         1.42644549E-05
   1.62119997         7.34222886E-06
   1.63320005        -2.36264668E-07
   1.64520001        -8.36379695E-06
   1.65719998        -1.69187715E-05
   1.66919994        -2.57685952E-05
   1.68120003        -3.47733330E-05
   1.69319999        -4.37895724E-05
   1.70519996        -5.26743570E-05
   1.71720004        -6.12889926E-05
   1.72920001        -6.95026829E-05
   1.74119997        -7.71958730E-05
   1.75320005        -8.42630834E-05
   1.76520002        -9.06153000E-05
   1.77719998        -9.61817277E-05
   1.78919995        -1.00910947E-04
   1.80120003        -1.04771359E-04
   1.81320000        -1.07751039E-04
   1.82519996        -1.09856919E-04
   1.83720005        -1.11113397E-04
   1.84920001        -1.11560446E-04
   1.86119998        -1.11251291E-04
   1.87320006        -1.10249777E-04
   1.88520002        -1.08627522E-04
   1.89719999        -1.06460990E-04
   1.90919995        -1.03828621E-04
   1.92120004        -1.00808051E-04
   1.93320000        -9.74735813E-05
   1.94519997        -9.38940066E-05
   1.95720005        -9.01307358E-05
   1.96920002        -8.62364031E-05
   1.98119998        -8.22538641E-05
   1.99319994        -7.82155767E-05
   2.00519991        -7.41435142E-05
   2.01719999        -7.00493256E-05
   2.02920008        -6.59349098E-05
   2.04119992        -6.17933329E-05
   2.05320001        -5.76099264E-05
   2.06520009        -5.33637067E-05
   2.07719994        -4.90289312E-05
   2.08920002        -4.45768237E-05
   2.10120010        -3.99774508E-05
   2.11319995        -3.52016395E-05
   2.12520003        -3.02229419E-05
   2.13720012        -2.50196808E-05
   2.14919996        -1.95768935E-05
   2.16120005        -1.38882442E-05
   2.17319989        -7.95777760E-06
   2.18519998        -1.80148606E-06
   2.19720006         4.55142208E-06
   2.20919991         1.10576020E-05
   2.22119999         1.76591220E-05
   2.23320007         2.42835358E-05
   2.24519992         3.08445597E-05
   2.25720000         3.72434042E-05
   2.26920009         4.33707501E-05
   2.28119993         4.91093997E-05
   2.29320002         5.43375027E-05
   2.30520010         5.89322808E-05
   2.31719995         6.27741465E-05
   2.32920003         6.57510245E-05
   2.34120011         6.77627613E-05
   2.35319996         6.87252978E-05
   2.36520004         6.85746127E-05
   2.37719989         6.72700917E-05
   2.38919997         6.47971756E-05
   2.40120006         6.11692449E-05
   2.41319990         5.64284819E-05
   2.42519999         5.06457582E-05
   2.43720007         4.39194773E-05
   2.44919991         3.63733670E-05
   2.46120000         2.81533485E-05
   2.47320008         1.94235636E-05
   2.48519993         1.03617131E-05
   2.49720001         1.15388502E-06
   2.50920010        -8.01089209E-06
   2.52119994        -1.69462201E-05
   2.53320003        -2.54737733E-05
   2.54520011        -3.34284341E-05
   2.55719995        -4.06629442E-05
   2.56920004        -4.70519080E-05
   2.58119988        -5.24950410E-05
   2.59319997        -5.69195472E-05
   2.60520005        -6.02815489E-05
   2.61719990        -6.25665707E-05
   2.62919998        -6.37890698E-05
   2.64120007        -6.39909777E-05
   2.65319991        -6.32394804E-05
   2.66520000        -6.16239413E-05
   2.67720008        -5.92522592E-05
   2.68919992        -5.62466812E-05
   2.70120001        -5.27393095E-05
   2.71320009        -4.88674341E-05
   2.72519994        -4.47688690E-05
   2.73720002        -4.05774481E-05
   2.74920011        -3.64188490E-05
   2.76119995        -3.24068897E-05
   2.77320004        -2.86403993E-05
   2.78520012        -2.52007703E-05
   2.79719996        -2.21502814E-05
   2.80920005        -1.95312332E-05
   2.82119989        -1.73658591E-05
   2.83319998        -1.56570459E-05
   2.84520006        -1.43897660E-05
   2.85719991        -1.35331520E-05
   2.86919999        -1.30430881E-05
   2.88120008        -1.28651800E-05
   2.89319992        -1.29379650E-05
   2.90520000        -1.31961897E-05
   2.91720009        -1.35740238E-05
   2.92919993        -1.40080492E-05
   2.94120002        -1.44398864E-05
   2.95320010        -1.48183854E-05
   2.96519995        -1.51012609E-05
   2.97720003        -1.52561524E-05
   2.98920012        -1.52610683E-05
   3.00119996        -1.51042432E-05
   3.01320004        -1.47834517E-05
   3.02519989        -1.43048401E-05
   3.03719997        -1.36813997E-05
   3.04920006        -1.29311802E-05
   3.06119990        -1.20753884E-05
   3.07319999        -1.11364943E-05
   3.08520007        -1.01364776E-05
   3.09719992        -9.09532628E-06
   3.10920000        -8.02988689E-06
   3.12120008        -6.95311974E-06
   3.13319993        -5.87379691E-06
   3.14520001        -4.79665050E-06
   3.15720010        -3.72292243E-06
   3.16919994        -2.65127301E-06
   3.18120003        -1.57894749E-06
   3.19320011        -5.03111664E-07
   3.20519996         5.77768219E-07
   3.21720004         1.66259838E-06
   3.22919989         2.74651256E-06
   3.24119997         3.81997324E-06
   3.25320005         4.86822182E-06
   3.26519990         5.87110844E-06
   3.27719998         6.80333233E-06
   3.28920007         7.63508706E-06
   3.30119991         8.33308422E-06
   3.31320000         8.86189446E-06
   3.32520008         9.18554269E-06
   3.33719993         9.26925532E-06
   3.34920001         9.08127640E-06
   3.36120009         8.59464126E-06
   3.37319994         7.78881804E-06
   3.38520002         6.65112884E-06
   3.39720011         5.17786702E-06
   3.40919995         3.37507936E-06
   3.42120004         1.25895156E-06
   3.43319988        -1.14420368E-06
   3.44519997        -3.79835365E-06
   3.45720005        -6.65852895E-06
   3.46919990        -9.67195137E-06
   3.48119998        -1.27794483E-05
   3.49320006        -1.59171068E-05
   3.50519991        -1.90181181E-05
   3.51719999        -2.20147231E-05
   3.52920008        -2.48401975E-05
   3.54119992        -2.74308459E-05
   3.55320001        -2.97278657E-05
   3.56520009        -3.16790902E-05
   3.57719994        -3.32405034E-05
   3.58920002        -3.43774955E-05
   3.60120010        -3.50658047E-05
   3.61319995        -3.52921597E-05
   3.62520003        -3.50545051E-05
   3.63720012        -3.43619395E-05
   3.64919996        -3.32342352E-05
   3.66120005        -3.17010927E-05
   3.67319989        -2.98010145E-05
   3.68519998        -2.75799957E-05
   3.69720006        -2.50899539E-05
   3.70919991        -2.23870447E-05
   3.72119999        -1.95298890E-05
   3.73320007        -1.65778274E-05
   3.74519992        -1.35892315E-05
   3.75720000        -1.06200096E-05
   3.76920009        -7.72231306E-06
   3.78119993        -4.94354708E-06
   3.79320002        -2.32568664E-06
   3.80520010         9.50720178E-08
   3.81719995         2.28834051E-06
   3.82920003         4.22927815E-06
   3.84120011         5.89810497E-06
   3.85319996         7.27945508E-06
   3.86520004         8.36166146E-06
   3.87719989         9.13605254E-06
   3.88919997         9.59635599E-06
   3.90120006         9.73829356E-06
   3.91319990         9.55941960E-06
   3.92519999         9.05925299E-06
   3.93720007         8.23970913E-06
   3.94919991         7.10582890E-06
   3.96120000         5.66673089E-06
   3.97320008         3.93672735E-06
   3.98519993         1.93647793E-06
   3.99720001        -3.05939210E-07
   4.00920010        -2.75418597E-06
   4.02120018        -5.36318794E-06
   4.03319979        -8.07914239E-06
   4.04519987        -1.08401091E-05
   4.05719995        -1.35772325E-05
   4.06920004        -1.62166107E-05
   4.08120012        -1.86817470E-05
   4.09320021        -2.08965103E-05
   4.10519981        -2.27884411E-05
   4.11719990        -2.42922288E-05
   4.12919998        -2.53531507E-05
   4.14120007        -2.59302560E-05
   4.15320015        -2.59990593E-05
   4.16520023        -2.55535797E-05
   4.17719984        -2.46075360E-05
   4.18919992        -2.31945796E-05
   4.20120001        -2.13675539E-05
   4.21320009        -1.91967301E-05
   4.22520018        -1.67671442E-05
   4.23719978        -1.41751416E-05
   4.24919987        -1.15243283E-05
   4.26119995        -8.92115622E-06
   4.27320004        -6.47037405E-06
   4.28520012        -4.27062150E-06
   4.29720020        -2.41037242E-06
   4.30919981        -9.64459105E-07
   4.32119989         8.67007621E-09
   4.33319998         4.68856484E-07
   4.34520006         3.95223310E-07
   4.35720015        -2.13718835E-07
   4.36920023        -1.34081927E-06
   4.38119984        -2.95177756E-06
   4.39319992        -4.99724047E-06
   4.40520000        -7.41535723E-06
   4.41720009        -1.01346286E-05
   4.42920017        -1.30768822E-05
   4.44119978        -1.61602184E-05
   4.45319986        -1.93018132E-05
   4.46519995        -2.24204559E-05
   4.47720003        -2.54387651E-05
   4.48920012        -2.82850306E-05
   4.50120020        -3.08946655E-05
   4.51319981        -3.32113050E-05
   4.52519989        -3.51875206E-05
   4.53719997        -3.67852845E-05
   4.54920006        -3.79761514E-05
   4.56120014        -3.87412183E-05
   4.57320023        -3.90709647E-05
   4.58519983        -3.89649285E-05
   4.59719992        -3.84313025E-05
   4.60920000        -3.74864285E-05
   4.62120008        -3.61542188E-05
   4.63320017        -3.44655455E-05
   4.64519978        -3.24575194E-05
   4.65719986        -3.01727578E-05
   4.66919994        -2.76585906E-05
   4.68120003        -2.49662280E-05
   4.69320011        -2.21498958E-05
   4.70520020        -1.92659518E-05
   4.71719980        -1.63719851E-05
   4.72919989        -1.35258770E-05
   4.74119997        -1.07848700E-05
   4.75320005        -8.20461446E-06
   4.76520014        -5.83820611E-06
   4.77720022        -3.73521902E-06
   4.78919983        -1.94074278E-06
   4.80119991        -4.94446567E-07
   4.81320000         5.70333100E-07
   4.82520008         1.22744427E-06
   4.83720016         1.45868762E-06
   4.84919977         1.25447275E-06
   4.86119986         6.14326154E-07
   4.87319994        -4.52787191E-07
   4.88520002        -1.92836637E-06
   4.89720011        -3.78454729E-06
   4.90920019        -5.98456745E-06
   4.92119980        -8.48356103E-06
   4.93319988        -1.12296693E-05
   4.94519997        -1.41654773E-05
   4.95720005        -1.72297259E-05
   4.96920013        -2.03592354E-05
   4.98120022        -2.34909730E-05
   4.99319983        -2.65641447E-05
   5.00519991        -2.95222235E-05
   5.01719999        -3.23147724E-05
   5.02920008        -3.48990179E-05
   5.04120016        -3.72410032E-05
   5.05319977        -3.93163682E-05
   5.06519985        -4.11106375E-05
   5.07719994        -4.26190527E-05
   5.08920002        -4.38459683E-05
   5.10120010        -4.48038772E-05
   5.11320019        -4.55120971E-05
   5.12519979        -4.59952571E-05
   5.13719988        -4.62816206E-05
   5.14919996        -4.64014302E-05
   5.16120005        -4.63852957E-05
   5.17320013        -4.62627431E-05
   5.18520021        -4.60610318E-05
   5.19719982        -4.58042305E-05
   5.20919991        -4.55126028E-05
   5.22119999        -4.52023014E-05
   5.23320007        -4.48853098E-05
   5.24520016        -4.45696387E-05
   5.25719976        -4.42596138E-05
   5.26919985        -4.39562718E-05
   5.28119993        -4.36578302E-05
   5.29320002        -4.33600326E-05
   5.30520010        -4.30565560E-05
   5.31720018        -4.27393170E-05
   5.32919979        -4.23987403E-05
   5.34119987        -4.20240722E-05
   5.35319996        -4.16036746E-05
   5.36520004        -4.11254259E-05
   5.37720013        -4.05772116E-05
   5.38920021        -3.99475357E-05
   5.40119982        -3.92262846E-05
   5.41319990        -3.84055820E-05
   5.42519999        -3.74807933E-05
   5.43720007        -3.64515145E-05
   5.44920015        -3.53226169E-05
   5.46120024        -3.41051491E-05
   5.47319984        -3.28170972E-05
   5.48519993        -3.14838617E-05
   5.49720001        -3.01383716E-05
   5.50920010        -2.88207702E-05
   5.52120018        -2.75776074E-05
   5.53319979        -2.64605060E-05
   5.54519987        -2.55243303E-05
   5.55719995        -2.48249198E-05
   5.56920004        -2.44164457E-05
   5.58120012        -2.43485338E-05
   5.59320021        -2.46633372E-05
   5.60519981        -2.53926701E-05
   5.61719990        -2.65554136E-05
   5.62919998        -2.81553457E-05
   5.64120007        -3.01795280E-05
   5.65320015        -3.25973815E-05
   5.66520023        -3.53605283E-05
   5.67719984        -3.84034574E-05
   5.68919992        -4.16450021E-05
   5.70120001        -4.49906001E-05
   5.71320009        -4.83352924E-05
   5.72520018        -5.15673019E-05
   5.73719978        -5.45720541E-05
   5.74919987        -5.72365061E-05
   5.76119995        -5.94535159E-05
   5.77320004        -6.11260984E-05
   5.78520012        -6.21714280E-05
   5.79720020        -6.25242537E-05
   5.80919981        -6.21397194E-05
   5.82119989        -6.09954332E-05
   5.83319998        -5.90926611E-05
   5.84520006        -5.64566071E-05
   5.85720015        -5.31358601E-05
   5.86920023        -4.92009203E-05
   5.88119984        -4.47419443E-05
   5.89319992        -3.98657685E-05
   5.90520000        -3.46923771E-05
   5.91720009        -2.93508710E-05
   5.92920017        -2.39751571E-05
   5.94119978        -1.86994766E-05
   5.95319986        -1.36539684E-05
   5.96519995        -8.96038546E-06
   5.97720003        -4.72815555E-06
   5.98920012        -1.05091169E-06
   6.00120020         1.99639339E-06
   6.01319981         4.35967149E-06
   6.02519989         6.00712610E-06
   6.03719997         6.92986669E-06
   6.04920006         7.14171347E-06
   6.06120014         6.67818358E-06
   6.07320023         5.59472755E-06
   6.08519983         3.96426640E-06
   6.09719992         1.87413980E-06
   6.10920000        -5.77425908E-07
   6.12120008        -3.28520468E-06
   6.13320017        -6.14106239E-06
   6.14519978        -9.03808541E-06
   6.15719986        -1.18746075E-05
   6.16919994        -1.45579643E-05
   6.18120003        -1.70078274E-05
   6.19320011        -1.91589952E-05
   6.20520020        -2.09635054E-05
   6.21719980        -2.23920269E-05
   6.22919989        -2.34344334E-05
   6.24119997        -2.40995960E-05
   6.25320005        -2.44143412E-05
   6.26520014        -2.44217372E-05
   6.27720022        -2.41786765E-05
   6.28919983        -2.37529457E-05
   6.30119991        -2.32198890E-05
   6.31320000        -2.26587927E-05
   6.32520008        -2.21491737E-05
   6.33720016        -2.17671150E-05
   6.34919977        -2.15817909E-05
   6.36119986        -2.16523713E-05
   6.37319994        -2.20253642E-05
   6.38520002        -2.27325781E-05
   6.39720011        -2.37897348E-05
   6.40920019        -2.51958118E-05
   6.42119980        -2.69331213E-05
   6.43319988        -2.89680938E-05
   6.44519997        -3.12527118E-05
   6.45720005        -3.37265410E-05
   6.46920013        -3.63191830E-05
   6.48120022        -3.89530833E-05
   6.49319983        -4.15465329E-05
   6.50519991        -4.40167241E-05
   6.51719999        -4.62827120E-05
   6.52920008        -4.82682408E-05
   6.54120016        -4.99041998E-05
   6.55319977        -5.11307699E-05
   6.56519985        -5.18990782E-05
   6.57719994        -5.21723960E-05
   6.58920002        -5.19268360E-05
   6.60120010        -5.11515536E-05
   6.61320019        -4.98485679E-05
   6.62519979        -4.80321505E-05
   6.63719988        -4.57279784E-05
   6.64919996        -4.29720058E-05
   6.66120005        -3.98092961E-05
   6.67320013        -3.62927494E-05
   6.68520021        -3.24818539E-05
   6.69719982        -2.84415019E-05
   6.70919991        -2.42408423E-05
   6.72119999        -1.99522165E-05
   6.73320007        -1.56501319E-05
   6.74520016        -1.14102513E-05
   6.75719976        -7.30835382E-06
   6.76919985        -3.41926579E-06
   6.78119993         1.84296567E-07
   6.79320002         3.43295915E-06
   6.80520010         6.26200153E-06
   6.81720018         8.61274111E-06
   6.82919979         1.04339379E-05
   6.84119987         1.16831861E-05
   6.85319996         1.23282261E-05
   6.86520004         1.23481022E-05
   6.87720013         1.17341015E-05
   6.88920021         1.04903911E-05
   6.90119982         8.63429977E-06
   6.91319990         6.19619141E-06
   6.92519999         3.21890298E-06
   6.93720007        -2.43255215E-07
   6.94920015        -4.12589270E-06
   6.96120024        -8.35628180E-06
   6.97319984        -1.28553611E-05
   6.98519993        -1.75398909E-05
   6.99720001        -2.23246570E-05
   7.00920010        -2.71246081E-05
   7.02120018        -3.18568273E-05
   7.03319979        -3.64422667E-05
   7.04519987        -4.08071865E-05
   7.05719995        -4.48842802E-05
   7.06920004        -4.86134995E-05
   7.08120012        -5.19425703E-05
   7.09320021        -5.48272947E-05
   7.10519981        -5.72316858E-05
   7.11719990        -5.91279713E-05
   7.12919998        -6.04965644E-05
   7.14120007        -6.13260563E-05
   7.15320015        -6.16132602E-05
   7.16520023        -6.13633383E-05
   7.17719984        -6.05899986E-05
   7.18919992        -5.93157711E-05
   7.20120001        -5.75722916E-05
   7.21320009        -5.54004982E-05
   7.22520018        -5.28506935E-05
   7.23719978        -4.99823400E-05
   7.24919987        -4.68635444E-05
   7.26119995        -4.35701113E-05
   7.27320004        -4.01841535E-05
   7.28520012        -3.67922366E-05
   7.29720020        -3.34830693E-05
   7.30919981        -3.03448687E-05
   7.32119989        -2.74624290E-05
   7.33319998        -2.49140667E-05
   7.34520006        -2.27686378E-05
   7.35720015        -2.10827238E-05
   7.36920023        -1.98982252E-05
   7.38119984        -1.92404605E-05
   7.39319992        -1.91169402E-05
   7.40520000        -1.95168923E-05
   7.41720009        -2.04115640E-05
   7.42920017        -2.17553315E-05
   7.44119978        -2.34875479E-05
   7.45319986        -2.55350315E-05
   7.46519995        -2.78150674E-05
   7.47720003        -3.02387543E-05
   7.48920012        -3.27145208E-05
   7.50120020        -3.51516283E-05
   7.51319981        -3.74634546E-05
   7.52519989        -3.95704737E-05
   7.53719997        -4.14027236E-05
   7.54920006        -4.29016909E-05
   7.56120014        -4.40216354E-05
   7.57320023        -4.47302373E-05
   7.58519983        -4.50086955E-05
   7.59719992        -4.48512874E-05
   7.60920000        -4.42645432E-05
   7.62120008        -4.32661000E-05
   7.63320017        -4.18833588E-05
   7.64519978        -4.01520992E-05
   7.65719986        -3.81150858E-05
   7.66919994        -3.58207653E-05
   7.68120003        -3.33220705E-05
   7.69320011        -3.06753973E-05
   7.70520020        -2.79396936E-05
   7.71719980        -2.51756392E-05
   7.72919989        -2.24449195E-05
   7.74119997        -1.98094949E-05
   7.75320005        -1.73308672E-05
   7.76520014        -1.50692604E-05
   7.77720022        -1.30827211E-05
   7.78919983        -1.14261093E-05
   7.80119991        -1.01499782E-05
   7.81320000        -9.29935959E-06
   7.82520008        -8.91250238E-06
   7.83720016        -9.01961266E-06
   7.84919977        -9.64165247E-06
   7.86119986        -1.07892783E-05
   7.87319994        -1.24619919E-05
   7.88520002        -1.46475613E-05
   7.89720011        -1.73217632E-05
   7.90920019        -2.04484750E-05
   7.92119980        -2.39801302E-05
   7.93319988        -2.78585267E-05
   7.94519997        -3.20159415E-05
   7.95720005        -3.63765357E-05
   7.96920013        -4.08579945E-05
   7.98120022        -4.53733228E-05
   7.99319983        -4.98327536E-05
   8.00520039        -5.41457812E-05
   8.01720047        -5.82231332E-05
   8.02919960        -6.19787752E-05
   8.04119968        -6.53317911E-05
   8.05319977        -6.82082100E-05
   8.06519985        -7.05425773E-05
   8.07719994        -7.22794866E-05
   8.08920002        -7.33747584E-05
   8.10120010        -7.37965238E-05
   8.11320019        -7.35259819E-05
   8.12520027        -7.25579957E-05
   8.13720036        -7.09013912E-05
   8.14920044        -6.85790073E-05
   8.16119957        -6.56275370E-05
   8.17319965        -6.20970313E-05
   8.18519974        -5.80501473E-05
   8.19719982        -5.35611180E-05
   8.20919991        -4.87144134E-05
   8.22119999        -4.36031369E-05
   8.23320007        -3.83271363E-05
   8.24520016        -3.29909199E-05
   8.25720024        -2.77013805E-05
   8.26920033        -2.25654203E-05
   8.28120041        -1.76874819E-05
   8.29319954        -1.31671395E-05
   8.30519962        -9.09673508E-06
   8.31719971        -5.55917768E-06
   8.32919979        -2.62594676E-06
   8.34119987        -3.55367490E-07
   8.35319996         1.20878724E-06
   8.36520004         2.03833383E-06
   8.37720013         2.12130158E-06
   8.38920021         1.46213858E-06
   8.40120029         8.14827530E-08
   8.41320038        -1.98448060E-06
   8.42520046        -4.68505186E-06
   8.43719959        -7.95639153E-06
   8.44919968        -1.17231884E-05
   8.46119976        -1.59005576E-05
   8.47319984        -2.03960881E-05
   8.48519993        -2.51120200E-05
   8.49720001        -2.99474559E-05
   8.50920010        -3.48005742E-05
   8.52120018        -3.95707866E-05
   8.53320026        -4.41608172E-05
   8.54520035        -4.84786469E-05
   8.55720043        -5.24392963E-05
   8.56919956        -5.59664222E-05
   8.58119965        -5.89937190E-05
   8.59319973        -6.14660676E-05
   8.60519981        -6.33404561E-05
   8.61719990        -6.45866967E-05
   8.62919998        -6.51878436E-05
   8.64120007        -6.51404553E-05
   8.65320015        -6.44545144E-05
   8.66520023        -6.31532530E-05
   8.67720032        -6.12725635E-05
   8.68920040        -5.88603252E-05
   8.70119953        -5.59753717E-05
   8.71319962        -5.26862495E-05
   8.72519970        -4.90697312E-05
   8.73719978        -4.52091153E-05
   8.74919987        -4.11923356E-05
   8.76119995        -3.71098977E-05
   8.77320004        -3.30527400E-05
   8.78520012        -2.91100550E-05
   8.79720020        -2.53671042E-05
   8.80920029        -2.19031335E-05
   8.82120037        -1.87894257E-05
   8.83320045        -1.60875716E-05
   8.84519958        -1.38479836E-05
   8.85719967        -1.21087560E-05
   8.86919975        -1.08948634E-05
   8.88119984        -1.02177864E-05
   8.89319992        -1.00755251E-05
   8.90520000        -1.04530500E-05
   8.91720009        -1.13231499E-05
   8.92920017        -1.26476261E-05
   8.94120026        -1.43788047E-05
   8.95320034        -1.64612720E-05
   8.96520042        -1.88337617E-05
   8.97719955        -2.14311040E-05
   8.98919964        -2.41861635E-05
   9.00119972        -2.70316705E-05
   9.01319981        -2.99019139E-05
   9.02519989        -3.27341877E-05
   9.03719997        -3.54700351E-05
   9.04920006        -3.80562014E-05
   9.06120014        -4.04453349E-05
   9.07320023        -4.25964136E-05
   9.08520031        -4.44750040E-05