 -0.622799993       0.00000000    
 -0.610800028       0.00000000    
 -0.598800004       0.00000000    
 -0.586799979      -1.05989352E-16
 -0.574800014      -7.72606174E-16
 -0.562799990      -3.11753420E-15
 -0.550800025      -9.05757403E-15
 -0.538800001      -2.08832890E-14
 -0.526799977      -4.00211006E-14
 -0.514800012      -6.52407815E-14
 -0.502799988      -9.12995604E-14
 -0.490799993      -1.09533171E-13
 -0.478799999      -1.11673420E-13
 -0.466800004      -9.69000406E-14
 -0.454800010      -8.00855760E-14
 -0.442799985      -9.72576986E-14
 -0.430799991      -2.03706342E-13
 -0.418799996      -4.61860151E-13
 -0.406800002      -9.20094621E-13
 -0.394800007      -1.58880873E-12
 -0.382800013      -2.42420146E-12
 -0.370799989      -3.33079744E-12
 -0.358799994      -4.18948253E-12
 -0.346799999      -4.90910611E-12
 -0.334800005      -5.48925011E-12
 -0.322800010      -6.07361167E-12
 -0.310799986      -6.97162510E-12
 -0.298799992      -8.63253566E-12
 -0.286799997      -1.15701277E-11
 -0.274800003      -1.62535697E-11
 -0.262800008      -2.29942662E-11
 -0.250800014      -3.18644347E-11
 -0.238800004      -4.26772923E-11
 -0.226799995      -5.50422728E-11
 -0.214800000      -6.84861473E-11
 -0.202800006      -8.26103838E-11
 -0.190799996      -9.72420686E-11
 -0.178800002      -1.12535987E-10
 -0.166800007      -1.28997188E-10
 -0.154799998      -1.47413734E-10
 -0.142800003      -1.68711420E-10
 -0.130799994      -1.93759647E-10
 -0.118799999      -2.23167443E-10
 -0.106799997      -2.57108251E-10
  -9.48000029E-02  -2.95206831E-10
  -8.28000009E-02  -3.36509293E-10
  -7.07999989E-02  -3.79547005E-10
  -5.88000007E-02  -4.22493235E-10
  -4.67999987E-02  -4.63399458E-10
  -3.48000005E-02  -5.00489095E-10
  -2.28000004E-02  -5.32473121E-10
  -1.08000003E-02  -5.58844526E-10
   1.20000006E-03  -5.80105464E-10
   1.31999999E-02  -5.97880856E-10
   2.52000000E-02  -6.14883144E-10
   3.72000001E-02  -6.34712838E-10
   4.91999984E-02  -6.61492972E-10
   6.12000003E-02  -6.99360958E-10
   7.32000023E-02  -7.51851859E-10
   8.51999968E-02  -8.21221924E-10
   9.71999988E-02  -9.07770970E-10
  0.109200001      -1.00922726E-09
  0.121200003      -1.12027343E-09
  0.133200005      -1.23229915E-09
  0.145199999      -1.33346834E-09
  0.157199994      -1.40918788E-09
  0.169200003      -1.44303347E-09
  0.181199998      -1.41816359E-09
  0.193200007      -1.31918898E-09
  0.205200002      -1.13441645E-09
  0.217199996      -8.58326465E-10
  0.229200006      -4.94089880E-10
  0.241200000      -5.58861013E-11
  0.253199995       4.29267594E-10
  0.265199989       9.20503007E-10
  0.277200013       1.36328060E-09
  0.289200008       1.69115899E-09
  0.301200002       1.82953630E-09
  0.313199997       1.70165548E-09
  0.325199991       1.23697197E-09
  0.337199986       3.81681353E-10
  0.349200010      -8.89212148E-10
  0.361200005      -2.55937382E-09
  0.373199999      -4.55969307E-09
  0.385199994      -6.75981759E-09
  0.397199988      -8.96463614E-09
  0.409200013      -1.09175708E-08
  0.421200007      -1.23119861E-08
  0.433200002      -1.28112365E-08
  0.445199996      -1.20768000E-08
  0.457199991      -9.80279147E-09
  0.469199985      -5.75397419E-09
  0.481200010       1.96523048E-10
  0.493200004       8.03425504E-09
  0.505200028       1.75801045E-08
  0.517199993       2.84812103E-08
  0.529200017       4.02204492E-08
  0.541199982       5.21479535E-08
  0.553200006       6.35371364E-08
  0.565199971       7.36661150E-08
  0.577199996       8.19237869E-08
  0.589200020       8.79376856E-08
  0.601199985       9.17186682E-08
  0.613200009       9.38150464E-08
  0.625199974       9.54666177E-08
  0.637199998       9.87478472E-08
  0.649200022       1.06687843E-07
  0.661199987       1.23356287E-07
  0.673200011       1.53904281E-07
  0.685199976       2.04553189E-07
  0.697200000       2.82526713E-07
  0.709200025       3.95926207E-07
  0.721199989       5.53553264E-07
  0.733200014       7.64686774E-07
  0.745199978       1.03882815E-06
  0.757200003       1.38542680E-06
  0.769200027       1.81360372E-06
  0.781199992       2.33189121E-06
  0.793200016       2.94800429E-06
  0.805199981       3.66866175E-06
  0.817200005       4.49946492E-06
  0.829200029       5.44485010E-06
  0.841199994       6.50810944E-06
  0.853200018       7.69148028E-06
  0.865199983       8.99629777E-06
  0.877200007       1.04231813E-05
  0.889199972       1.19722545E-05
  0.901199996       1.36433609E-05
  0.913200021       1.54362515E-05
  0.925199986       1.73507360E-05
  0.937200010       1.93867472E-05
  0.949199975       2.15443451E-05
  0.961199999       2.38235916E-05
  0.973200023       2.62243411E-05
  0.985199988       2.87459225E-05
  0.997200012       3.13867131E-05
   1.00919998       3.41436535E-05
   1.02119994       3.70117014E-05
   1.03320003       3.99832934E-05
   1.04519999       4.30478249E-05
   1.05719995       4.61912023E-05
   1.06920004       4.93955667E-05
   1.08120000       5.26391523E-05
   1.09319997       5.58964020E-05
   1.10520005       5.91383032E-05
   1.11720002       6.23329979E-05
   1.12919998       6.54466567E-05
   1.14119995       6.84445695E-05
   1.15320003       7.12924884E-05
   1.16520000       7.39580937E-05
   1.17719996       7.64125725E-05
   1.18920004       7.86322562E-05
   1.20120001       8.06001044E-05
   1.21319997       8.23071678E-05
   1.22520006       8.37536936E-05
   1.23720002       8.49499629E-05
   1.24919999       8.59167558E-05
   1.26119995       8.66852424E-05
   1.27320004       8.72964665E-05
   1.28520000       8.78002174E-05
   1.29719996       8.82533641E-05
   1.30920005       8.87177885E-05
   1.32120001       8.92577882E-05
   1.33319998       8.99371444E-05
   1.34519994       9.08160655E-05
   1.35720003       9.19479062E-05
   1.36919999       9.33760457E-05
   1.38119996       9.51309121E-05
   1.39320004       9.72274065E-05
   1.40520000       9.96627932E-05
   1.41719997       1.02415237E-04
   1.42920005       1.05443098E-04
   1.44120002       1.08684952E-04
   1.45319998       1.12060545E-04
   1.46519995       1.15472511E-04
   1.47720003       1.18808923E-04
   1.48920000       1.21946578E-04
   1.50119996       1.24754777E-04
   1.51320004       1.27099702E-04
   1.52520001       1.28848929E-04
   1.53719997       1.29876091E-04
   1.54920006       1.30065440E-04
   1.56120002       1.29316031E-04
   1.57319999       1.27545500E-04
   1.58519995       1.24693208E-04
   1.59720004       1.20722514E-04
   1.60920000       1.15622279E-04
   1.62119997       1.09407498E-04
   1.63320005       1.02118967E-04
   1.64520001       9.38220910E-05
   1.65719998       8.46048788E-05
   1.66919994       7.45752841E-05
   1.68120003       6.38579222E-05
   1.69319999       5.25904252E-05
   1.70519996       4.09195127E-05
   1.71720004       2.89969375E-05
   1.72920001       1.69755676E-05
   1.74119997       5.00561964E-06
   1.75320005      -6.76875743E-06
   1.76520002      -1.82124386E-05
   1.77719998      -2.92017921E-05
   1.78919995      -3.96265896E-05
   1.80120003      -4.93913394E-05
   1.81320000      -5.84160880E-05
   1.82519996      -6.66367050E-05
   1.83720005      -7.40047035E-05
   1.84920001      -8.04866941E-05
   1.86119998      -8.60635482E-05
   1.87320006      -9.07292997E-05
   1.88520002      -9.44899075E-05
   1.89719999      -9.73619753E-05
   1.90919995      -9.93713911E-05
   1.92120004      -1.00552075E-04
   1.93320000      -1.00944730E-04
   1.94519997      -1.00595775E-04
   1.95720005      -9.95563096E-05
   1.96920002      -9.78812604E-05
   1.98119998      -9.56285439E-05
   1.99319994      -9.28584050E-05
   2.00519991      -8.96326601E-05
   2.01719999      -8.60140499E-05
   2.02920008      -8.20655405E-05
   2.04119992      -7.78495596E-05
   2.05320001      -7.34272107E-05
   2.06520009      -6.88574146E-05
   2.07719994      -6.41961014E-05
   2.08920002      -5.94953344E-05
   2.10120010      -5.48025309E-05
   2.11319995      -5.01597751E-05
   2.12520003      -4.56032722E-05
   2.13720012      -4.11629590E-05
   2.14919996      -3.68623478E-05
   2.16120005      -3.27185880E-05
   2.17319989      -2.87427629E-05
   2.18519998      -2.49404329E-05
   2.19720006      -2.13123658E-05
   2.20919991      -1.78554801E-05
   2.22119999      -1.45638951E-05
   2.23320007      -1.14300819E-05
   2.24519992      -8.44601618E-06
   2.25720000      -5.60427316E-06
   2.26920009      -2.89900277E-06
   2.28119993      -3.26713405E-07
   2.29320002       2.11318229E-06
   2.30520010       4.41810471E-06
   2.31719995       6.58232921E-06
   2.32920003       8.59730062E-06
   2.34120011       1.04522096E-05
   2.35319996       1.21347894E-05
   2.36520004       1.36322724E-05
   2.37719989       1.49324260E-05
   2.38919997       1.60246091E-05
   2.40120006       1.69007672E-05
   2.41319990       1.75562891E-05
   2.42519999       1.79906856E-05
   2.43720007       1.82080366E-05
   2.44919991       1.82171989E-05
   2.46120000       1.80317293E-05
   2.47320008       1.76695848E-05
   2.48519993       1.71525899E-05
   2.49720001       1.65057099E-05
   2.50920010       1.57561899E-05
   2.52119994       1.49326170E-05
   2.53320003       1.40639386E-05
   2.54520011       1.31785237E-05
   2.55719995       1.23033033E-05
   2.56920004       1.14630329E-05
   2.58119988       1.06797297E-05
   2.59319997       9.97227835E-06
   2.60520005       9.35623302E-06
   2.61719990       8.84380461E-06
   2.62919998       8.44399256E-06
   2.64120007       8.16284592E-06
   2.65319991       8.00382441E-06
   2.66520000       7.96818858E-06
   2.67720008       8.05540276E-06
   2.68919992       8.26350333E-06
   2.70120001       8.58940984E-06
   2.71320009       9.02914599E-06
   2.72519994       9.57795419E-06
   2.73720002       1.02303147E-05
   2.74920011       1.09798402E-05
   2.76119995       1.18190947E-05
   2.77320004       1.27393305E-05
   2.78520012       1.37301859E-05
   2.79719996       1.47793698E-05
   2.80920005       1.58723979E-05
   2.82119989       1.69923915E-05
   2.83319998       1.81200139E-05
   2.84520006       1.92335538E-05
   2.85719991       2.03091986E-05
   2.86919999       2.13214989E-05
   2.88120008       2.22440394E-05
   2.89319992       2.30502628E-05
   2.90520000       2.37144668E-05
   2.91720009       2.42128772E-05
   2.92919993       2.45247720E-05
   2.94120002       2.46336022E-05
   2.95320010       2.45280135E-05
   2.96519995       2.42027545E-05
   2.97720003       2.36593769E-05
   2.98920012       2.29067009E-05
   3.00119996       2.19610047E-05
   3.01320004       2.08458951E-05
   3.02519989       1.95918728E-05
   3.03719997       1.82355561E-05
   3.04920006       1.68186107E-05
   3.06119990       1.53863857E-05
   3.07319999       1.39863268E-05
   3.08520007       1.26662135E-05
   3.09719992       1.14722970E-05
   3.10920000       1.04474193E-05
   3.12120008       9.62920240E-06
   3.13319993       9.04838998E-06
   3.14520001       8.72741930E-06
   3.15720010       8.67930703E-06
   3.16919994       8.90689989E-06
   3.18120003       9.40253904E-06
   3.19320011       1.01481583E-05
   3.20519996       1.11158452E-05
   3.21720004       1.22688307E-05
   3.22919989       1.35628907E-05
   3.24119997       1.49481011E-05
   3.25320005       1.63708773E-05
   3.26519990       1.77762122E-05
   3.27719998       1.91099862E-05
   3.28920007       2.03212821E-05
   3.30119991       2.13645326E-05
   3.31320000       2.22014332E-05
   3.32520008       2.28025146E-05
   3.33719993       2.31482627E-05
   3.34920001       2.32297789E-05
   3.36120009       2.30489040E-05
   3.37319994       2.26178381E-05
   3.38520002       2.19582980E-05
   3.39720011       2.11002225E-05
   3.40919995       2.00801514E-05
   3.42120004       1.89393686E-05
   3.43319988       1.77218953E-05
   3.44519997       1.64724643E-05
   3.45720005       1.52345756E-05
   3.46919990       1.40487282E-05
   3.48119998       1.29509108E-05
   3.49320006       1.19714077E-05
   3.50519991       1.11339614E-05
   3.51719999       1.04553164E-05
   3.52920008       9.94511447E-06
   3.54119992       9.60613852E-06
   3.55320001       9.43484247E-06
   3.56520009       9.42211955E-06
   3.57719994       9.55423548E-06
   3.58920002       9.81387166E-06
   3.60120010       1.01812020E-05
   3.61319995       1.06349498E-05
   3.62520003       1.11533764E-05
   3.63720012       1.17151694E-05
   3.64919996       1.23001937E-05
   3.66120005       1.28901092E-05
   3.67319989       1.34688380E-05
   3.68519998       1.40229076E-05
   3.69720006       1.45416625E-05
   3.70919991       1.50173701E-05
   3.72119999       1.54452300E-05
   3.73320007       1.58233142E-05
   3.74519992       1.61524276E-05
   3.75720000       1.64358989E-05
   3.76920009       1.66793398E-05
   3.78119993       1.68903152E-05
   3.79320002       1.70779858E-05
   3.80520010       1.72526979E-05
   3.81719995       1.74255383E-05
   3.82920003       1.76078593E-05
   3.84120011       1.78108039E-05
   3.85319996       1.80448205E-05
   3.86520004       1.83192060E-05
   3.87719989       1.86416819E-05
   3.88919997       1.90180253E-05
   3.90120006       1.94517706E-05
   3.91319990       1.99439928E-05
   3.92519999       2.04931930E-05
   3.93720007       2.10952967E-05
   3.94919991       2.17437628E-05
   3.96120000       2.24298110E-05
   3.97320008       2.31427584E-05
   3.98519993       2.38704506E-05
   3.99720001       2.45997562E-05
   4.00920010       2.53171020E-05
   4.02120018       2.60090183E-05
   4.03319979       2.66626485E-05
   4.04519987       2.72662091E-05
   4.05719995       2.78093721E-05
   4.06920004       2.82835390E-05
   4.08120012       2.86820159E-05
   4.09320021       2.90000844E-05
   4.10519981       2.92349614E-05
   4.11719990       2.93856847E-05
   4.12919998       2.94529036E-05
   4.14120007       2.94386336E-05
   4.15320015       2.93459598E-05
   4.16520023       2.91787564E-05
   4.17719984       2.89414274E-05
   4.18919992       2.86386876E-05
   4.20120001       2.82754372E-05
   4.21320009       2.78567422E-05
   4.22520018       2.73878813E-05
   4.23719978       2.68745516E-05
   4.24919987       2.63231013E-05
   4.26119995       2.57408592E-05
   4.27320004       2.51364436E-05
   4.28520012       2.45200572E-05
   4.29720020       2.39036963E-05
   4.30919981       2.33012433E-05
   4.32119989       2.27284017E-05
   4.33319998       2.22024628E-05
   4.34520006       2.17419056E-05
   4.35720015       2.13658259E-05
   4.36920023       2.10932049E-05
   4.38119984       2.09421014E-05
   4.39319992       2.09287409E-05
   4.40520000       2.10666185E-05
   4.41720009       2.13656022E-05
   4.42920017       2.18311579E-05
   4.44119978       2.24636970E-05
   4.45319986       2.32581060E-05
   4.46519995       2.42035330E-05
   4.47720003       2.52833943E-05
   4.48920012       2.64756745E-05
   4.50120020       2.77534855E-05
   4.51319981       2.90858588E-05
   4.52519989       3.04387777E-05
   4.53719997       3.17763588E-05
   4.54920006       3.30621515E-05
   4.56120014       3.42604762E-05
   4.57320023       3.53377800E-05
   4.58519983       3.62638748E-05
   4.59719992       3.70131056E-05
   4.60920000       3.75652962E-05
   4.62120008       3.79065241E-05
   4.63320017       3.80296260E-05
   4.64519978       3.79344710E-05
   4.65719986       3.76279677E-05
   4.66919994       3.71238020E-05
   4.68120003       3.64419357E-05
   4.69320011       3.56078926E-05
   4.70520020       3.46518282E-05
   4.71719980       3.36074590E-05
   4.72919989       3.25108449E-05
   4.74119997       3.13991331E-05
   4.75320005       3.03092474E-05
   4.76520014       2.92765908E-05
   4.77720022       2.83338304E-05
   4.78919983       2.75097755E-05
   4.80119991       2.68284057E-05
   4.81320000       2.63080783E-05
   4.82520008       2.59609260E-05
   4.83720016       2.57925039E-05
   4.84919977       2.58016498E-05
   4.86119986       2.59806056E-05
   4.87319994       2.63153706E-05
   4.88520002       2.67862652E-05
   4.89720011       2.73687019E-05
   4.90920019       2.80341428E-05
   4.92119980       2.87511757E-05
   4.93319988       2.94866968E-05
   4.94519997       3.02071330E-05
   4.95720005       3.08796953E-05
   4.96920013       3.14735662E-05
   4.98120022       3.19610517E-05
   4.99319983       3.23185777E-05
   5.00519991       3.25275578E-05
   5.01719999       3.25750952E-05
   5.02920008       3.24544562E-05
   5.04120016       3.21653642E-05
   5.05319977       3.17140257E-05
   5.06519985       3.11129625E-05
   5.07719994       3.03805919E-05
   5.08920002       2.95406062E-05
   5.10120010       2.86211580E-05
   5.11320019       2.76538649E-05
   5.12519979       2.66726929E-05
   5.13719988       2.57127467E-05
   5.14919996       2.48089727E-05
   5.16120005       2.39948877E-05
   5.17320013       2.33013052E-05
   5.18520021       2.27551664E-05
   5.19719982       2.23784518E-05
   5.20919991       2.21872797E-05
   5.22119999       2.21911578E-05
   5.23320007       2.23924835E-05
   5.24520016       2.27862456E-05
   5.25719976       2.33599967E-05
   5.26919985       2.40940572E-05
   5.28119993       2.49620043E-05
   5.29320002       2.59313856E-05
   5.30520010       2.69646534E-05
   5.31720018       2.80203276E-05
   5.32919979       2.90543194E-05
   5.34119987       3.00214051E-05
   5.35319996       3.08767740E-05
   5.36520004       3.15776451E-05
   5.37720013       3.20848812E-05
   5.38920021       3.23644963E-05
   5.40119982       3.23890599E-05
   5.41319990       3.21389125E-05
   5.42519999       3.16031583E-05
   5.43720007       3.07803457E-05
   5.44920015       2.96788439E-05
   5.46120024       2.83168574E-05
   5.47319984       2.67220930E-05
   5.48519993       2.49310579E-05
   5.49720001       2.29880061E-05
   5.50920010       2.09435657E-05
   5.52120018       1.88530812E-05
   5.53319979       1.67747567E-05
   5.54519987       1.47676201E-05
   5.55719995       1.28894453E-05
   5.56920004       1.11946592E-05
   5.58120012       9.73237820E-06
   5.59320021       8.54460541E-06
   5.60519981       7.66470657E-06
   5.61719990       7.11619487E-06
   5.62919998       6.91190098E-06
   5.64120007       7.05354114E-06
   5.65320015       7.53171298E-06
   5.66520023       8.32630576E-06
   5.67719984       9.40731115E-06
   5.68919992       1.07360001E-05
   5.70120001       1.22664014E-05
   5.71320009       1.39470385E-05
   5.72520018       1.57228333E-05
   5.73719978       1.75370969E-05
   5.74919987       1.93335363E-05
   5.76119995       2.10581875E-05
   5.77320004       2.26611846E-05
   5.78520012       2.40983336E-05
   5.79720020       2.53324142E-05
   5.80919981       2.63341844E-05
   5.82119989       2.70830551E-05
   5.83319998       2.75674556E-05
   5.84520006       2.77848703E-05
   5.85720015       2.77415966E-05
   5.86920023       2.74521990E-05
   5.88119984       2.69387601E-05
   5.89319992       2.62299091E-05
   5.90520000       2.53596918E-05
   5.91720009       2.43663435E-05
   5.92920017       2.32909388E-05
   5.94119978       2.21760565E-05
   5.95319986       2.10644084E-05
   5.96519995       1.99975275E-05
   5.97720003       1.90145092E-05
   5.98920012       1.81508804E-05
   6.00120020       1.74375746E-05
   6.01319981       1.69000541E-05
   6.02519989       1.65576166E-05
   6.03719997       1.64228695E-05
   6.04920006       1.65013862E-05
   6.06120014       1.67915932E-05
   6.07320023       1.72848395E-05
   6.08519983       1.79656854E-05
   6.09719992       1.88124086E-05
   6.10920000       1.97976988E-05
   6.12120008       2.08895490E-05
   6.13320017       2.20523070E-05
   6.14519978       2.32478687E-05
   6.15719986       2.44369767E-05
   6.16919994       2.55805626E-05
   6.18120003       2.66411334E-05
   6.19320011       2.75840848E-05
   6.20520020       2.83789577E-05
   6.21719980       2.90005228E-05
   6.22919989       2.94296933E-05
   6.24119997       2.96541875E-05
   6.25320005       2.96689159E-05
   6.26520014       2.94760921E-05
   6.27720022       2.90850003E-05
   6.28919983       2.85114966E-05
   6.30119991       2.77772124E-05
   6.31320000       2.69085012E-05
   6.32520008       2.59352055E-05
   6.33720016       2.48892666E-05
   6.34919977       2.38032644E-05
   6.36119986       2.27089586E-05
   6.37319994       2.16358931E-05
   6.38520002       2.06101213E-05
   6.39720011       1.96531728E-05
   6.40920019       1.87812402E-05
   6.42119980       1.80046845E-05
   6.43319988       1.73278568E-05
   6.44519997       1.67492581E-05
   6.45720005       1.62620254E-05
   6.46920013       1.58546991E-05
   6.48120022       1.55122470E-05
   6.49319983       1.52172643E-05
   6.50519991       1.49512898E-05
   6.51719999       1.46961329E-05
   6.52920008       1.44351598E-05
   6.54120016       1.41544242E-05
   6.55319977       1.38435889E-05
   6.56519985       1.34965776E-05
   6.57719994       1.31119195E-05
   6.58920002       1.26927607E-05
   6.60120010       1.22465699E-05
   6.61320019       1.17845448E-05
   6.62519979       1.13207852E-05
   6.63719988       1.08712793E-05
   6.64919996       1.04527899E-05
   6.66120005       1.00816915E-05
   6.67320013       9.77285526E-06
   6.68520021       9.53862309E-06
   6.69719982       9.38794892E-06
   6.70919991       9.32574949E-06
   6.72119999       9.35249318E-06
   6.73320007       9.46405453E-06
   6.74520016       9.65183517E-06
   6.75719976       9.90314948E-06
   6.76919985       1.02018348E-05
   6.78119993       1.05290437E-05
   6.79320002       1.08641834E-05
   6.80520010       1.11859190E-05
   6.81720018       1.14731974E-05
   6.82919979       1.17062300E-05
   6.84119987       1.18673915E-05
   6.85319996       1.19420001E-05
   6.86520004       1.19189554E-05
   6.87720013       1.17912132E-05
   6.88920021       1.15561133E-05
   6.90119982       1.12155431E-05
   6.91319990       1.07759479E-05
   6.92519999       1.02481963E-05
   6.93720007       9.64731225E-06
   6.94920015       8.99205497E-06
   6.96120024       8.30439058E-06
   6.97319984       7.60884586E-06
   6.98519993       6.93177253E-06
   6.99720001       6.30052818E-06
   7.00920010       5.74262140E-06
   7.02120018       5.28482769E-06
   7.03319979       4.95231325E-06
   7.04519987       4.76779996E-06
   7.05719995       4.75078832E-06
   7.06920004       4.91687069E-06
   7.08120012       5.27715702E-06
   7.09320021       5.83783640E-06
   7.10519981       6.59988609E-06
   7.11719990       7.55894871E-06
   7.12919998       8.70538588E-06
   7.14120007       1.00245061E-05
   7.15320015       1.14969571E-05
   7.16520023       1.30992712E-05
   7.17719984       1.48045392E-05
   7.18919992       1.65831680E-05
   7.20120001       1.84037017E-05
   7.21320009       2.02336469E-05
   7.22520018       2.20402999E-05
   7.23719978       2.37915065E-05
   7.24919987       2.54563674E-05
   7.26119995       2.70058608E-05
   7.27320004       2.84133730E-05
   7.28520012       2.96551461E-05
   7.29720020       3.07106566E-05
   7.30919981       3.15629222E-05
   7.32119989       3.21987427E-05
   7.33319998       3.26088993E-05
   7.34520006       3.27883208E-05
   7.35720015       3.27362068E-05
   7.36920023       3.24561006E-05
   7.38119984       3.19559476E-05
   7.39319992       3.12480734E-05
   7.40520000       3.03491270E-05
   7.41720009       2.92798904E-05
   7.42920017       2.80650384E-05
   7.44119978       2.67327541E-05
   7.45319986       2.53141989E-05
   7.46519995       2.38428747E-05
   7.47720003       2.23538245E-05
   7.48920012       2.08827150E-05
   7.50120020       1.94648528E-05
   7.51319981       1.81341056E-05
   7.52519989       1.69218438E-05
   7.53719997       1.58559160E-05
   7.54920006       1.49597245E-05
   7.56120014       1.42514527E-05
   7.57320023       1.37434836E-05
   7.58519983       1.34420634E-05
   7.59719992       1.33472022E-05
   7.60920000       1.34528418E-05
   7.62120008       1.37472834E-05
   7.63320017       1.42138251E-05
   7.64519978       1.48316003E-05
   7.65719986       1.55765483E-05
   7.66919994       1.64224857E-05
   7.68120003       1.73421759E-05
   7.69320011       1.83084030E-05
   7.70520020       1.92949283E-05
   7.71719980       2.02773244E-05
   7.72919989       2.12336599E-05
   7.74119997       2.21449682E-05
   7.75320005       2.29955458E-05
   7.76520014       2.37730510E-05
   7.77720022       2.44684543E-05
   7.78919983       2.50758367E-05
   7.80119991       2.55921186E-05
   7.81320000       2.60167199E-05
   7.82520008       2.63512047E-05
   7.83720016       2.65989602E-05
   7.84919977       2.67648829E-05
   7.86119986       2.68551485E-05
   7.87319994       2.68770145E-05
   7.88520002       2.68386902E-05
   7.89720011       2.67492323E-05
   7.90920019       2.66184670E-05
   7.92119980       2.64569135E-05
   7.93319988       2.62756857E-05
   7.94519997       2.60863690E-05
   7.95720005       2.59008302E-05
   7.96920013       2.57309694E-05
   7.98120022       2.55884042E-05
   7.99319983       2.54840907E-05
   8.00520039       2.54278730E-05
   8.01720047       2.54280421E-05
   8.02919960       2.54908464E-05
   8.04119968       2.56200801E-05
   8.05319977       2.58167329E-05
   8.06519985       2.60787419E-05
   8.07719994       2.64009141E-05
   8.08920002       2.67749765E-05
   8.10120010       2.71898371E-05
   8.11320019       2.76319770E-05
   8.12520027       2.80860113E-05
   8.13720036       2.85353453E-05
   8.14920044       2.89629224E-05
   8.16119957       2.93520079E-05
   8.17319965       2.96869366E-05
   8.18519974       2.99538424E-05
   8.19719982       3.01412783E-05
   8.20919991       3.02407170E-05
   8.22119999       3.02469089E-05
   8.23320007       3.01580876E-05
   8.24520016       2.99759740E-05
   8.25720024       2.97056486E-05
   8.26920033       2.93552275E-05
   8.28120041       2.89354284E-05
   8.29319954       2.84590114E-05
   8.30519962       2.79401556E-05
   8.31719971       2.73937912E-05
   8.32919979       2.68349577E-05
   8.34119987       2.62781923E-05
   8.35319996       2.57369775E-05
   8.36520004       2.52233149E-05
   8.37720013       2.47473617E-05
   8.38920021       2.43171980E-05
   8.40120029       2.39386809E-05
   8.41320038       2.36153919E-05
   8.42520046       2.33486790E-05
   8.43719959       2.31377689E-05
   8.44919968       2.29799589E-05
   8.46119976       2.28708577E-05
   8.47319984       2.28047065E-05
   8.48519993       2.27747078E-05
   8.49720001       2.27734145E-05
   8.50920010       2.27931123E-05
   8.52120018       2.28262124E-05
   8.53320026       2.28656136E-05
   8.54520035       2.29050256E-05
   8.55720043       2.29392626E-05
   8.56919956       2.29644520E-05
   8.58119965       2.29782127E-05
   8.59319973       2.29797297E-05
   8.60519981       2.29697962E-05
   8.61719990       2.29507732E-05
   8.62919998       2.29264788E-05
   8.64120007       2.29020297E-05
   8.65320015       2.28836216E-05
   8.66520023       2.28782483E-05
   8.67720032       2.28933932E-05
   8.68920040       2.29366688E-05
   8.70119953       2.30154565E-05
   8.71319962       2.31365157E-05
   8.72519970       2.33056253E-05
   8.73719978       2.35272182E-05
   8.74919987       2.38040793E-05
   8.76119995       2.41370726E-05
   8.77320004       2.45249266E-05
   8.78520012       2.49640889E-05
   8.79720020       2.54486495E-05
   8.80920029       2.59703484E-05
   8.82120037       2.65186554E-05
   8.83320045       2.70809542E-05
   8.84519958       2.76427909E-05
   8.85719967       2.81882330E-05
   8.86919975       2.87003259E-05
   8.88119984       2.91615943E-05
   8.89319992       2.95546270E-05
   8.90520000       2.98627292E-05
   8.91720009       3.00705524E-05
   8.92920017       3.01647779E-05
   8.94120026       3.01347300E-05
   8.95320034       2.99729472E-05
   8.96520042       2.96756680E-05
   8.97719955       2.92431905E-05
   8.98919964       2.86801205E-05
   9.00119972       2.79954311E-05
   9.01319981       2.72023935E-05
   9.02519989       2.63183065E-05
   9.03719997       2.53640683E-05
   9.04920006       2.43635805E-05
   9.06120014       2.33430037E-05
   9.07320023       2.23299030E-05
   9.08520031       2.13522908E-05
   9.09720039       2.04376247E-05
   9.10919952       1.96117999E-05
   9.12119961       1.88981576E-05
   9.13319969       1.83165939E-05
   9.14519978       1.78827650E-05
   9.15719986       1.76074573E-05
   9.16919994       1.74961460E-05
   9.18120003       1.75487421E-05
   9.19320011       1.77595721E-05
   9.20520020       1.81175765E-05
   9.21720028       1.86067100E-05
   9.22920036       1.92065436E-05
   9.24120045       1.98930320E-05
   9.25319958       2.06394034E-05
   9.26519966       2.14171632E-05
   9.27719975       2.21971259E-05
   9.28919983       2.29504567E-05
   9.30119991       2.36496962E-05
   9.31320000       2.42696842E-05
   9.32520008       2.47883836E-05
   9.33720016       2.51875663E-05
   9.34920025       2.54533297E-05
   9.36120033       2.55764280E-05
   9.37320042       2.55524337E-05
   9.38519955       2.53817052E-05
   9.39719963       2.50691737E-05
   9.40919971       2.46239924E-05
   9.42119980       2.40590416E-05
   9.43319988       2.33903484E-05
   9.44519997       2.26364264E-05
