 -0.622799993         1.00000012E-24
 -0.610800028         1.00000012E-24
 -0.598800004         1.00000012E-24
 -0.586799979        -1.06008873E-16
 -0.574800014        -7.72740693E-16
 -0.562799990        -3.11804178E-15
 -0.550800025        -9.05893690E-15
 -0.538800001        -2.08861384E-14
 -0.526799977        -4.00259354E-14
 -0.514800012        -6.52474697E-14
 -0.502799988        -9.13069127E-14
 -0.490799993        -1.09538972E-13
 -0.478799999        -1.11675378E-13
 -0.466800004        -9.68977638E-14
 -0.454800010        -8.00830146E-14
 -0.442799985        -9.72650508E-14
 -0.430799991        -2.03739708E-13
 -0.418799996        -4.61938268E-13
 -0.406800002        -9.20232857E-13
 -0.394800007        -1.58901245E-12
 -0.382800013        -2.42446124E-12
 -0.370799989        -3.33109105E-12
 -0.358799994        -4.18978350E-12
 -0.346799999        -4.90940144E-12
 -0.334800005        -5.48955673E-12
 -0.322800010        -6.07399374E-12
 -0.310799986        -6.97220103E-12
 -0.298799992        -8.63346807E-12
 -0.286799997        -1.15716013E-11
 -0.274800003        -1.62557624E-11
 -0.262800008        -2.29973211E-11
 -0.250800014        -3.18684419E-11
 -0.238800004        -4.26823195E-11
 -0.226799995        -5.50483409E-11
 -0.214800000        -6.84933291E-11
 -0.202800006        -8.26188215E-11
 -0.190799996        -9.72520675E-11
 -0.178800002        -1.12548054E-10
 -0.166800007        -1.29012023E-10
 -0.154799998        -1.47432219E-10
 -0.142800003        -1.68734568E-10
 -0.130799994        -1.93788485E-10
 -0.118799999        -2.23202928E-10
 -0.106799997        -2.57151328E-10
  -9.48000029E-02    -2.95258401E-10
  -8.28000009E-02    -3.36570133E-10
  -7.07999989E-02    -3.79618031E-10
  -5.88000007E-02    -4.22575280E-10
  -4.67999987E-02    -4.63493716E-10
  -3.48000005E-02    -5.00596786E-10
  -2.28000004E-02    -5.32595579E-10
  -1.08000003E-02    -5.58983360E-10
   1.20000006E-03    -5.80262505E-10
   1.31999999E-02    -5.98057326E-10
   2.52000000E-02    -6.15080098E-10
   3.72000001E-02    -6.34930775E-10
   4.91999984E-02    -6.61731947E-10
   6.12000003E-02    -6.99621028E-10
   7.32000023E-02    -7.52133189E-10
   8.51999968E-02    -8.21525015E-10
   9.71999988E-02    -9.08097042E-10
  0.109200001        -1.00957698E-09
  0.121200003        -1.12064702E-09
  0.133200005        -1.23269417E-09
  0.145199999        -1.33387934E-09
  0.157199994        -1.40960443E-09
  0.169200003        -1.44344203E-09
  0.181199998        -1.41854817E-09
  0.193200007        -1.31953370E-09
  0.205200002        -1.13470933E-09
  0.217199996        -8.58562166E-10
  0.229200006        -4.94273289E-10
  0.241200000        -5.60342224E-11
  0.253199995         4.29123265E-10
  0.265199989         9.20317378E-10
  0.277200013         1.36299971E-09
  0.289200008         1.69072900E-09
  0.301200002         1.82891868E-09
  0.313199997         1.70084324E-09
  0.325199991         1.23600319E-09
  0.337199986         3.80645154E-10
  0.349200010        -8.90185259E-10
  0.361200005        -2.56013721E-09
  0.373199999        -4.56012428E-09
  0.385199994        -6.75985490E-09
  0.397199988        -8.96430752E-09
  0.409200013        -1.09169926E-08
  0.421200007        -1.23113475E-08
  0.433200002        -1.28107436E-08
  0.445199996        -1.20766117E-08
  0.457199991        -9.80295312E-09
  0.469199985        -5.75439474E-09
  0.481200010         1.96073768E-10
  0.493200004         8.03406586E-09
  0.505200028         1.75804420E-08
  0.517199993         2.84822033E-08
  0.529200017         4.02220266E-08
  0.541199982         5.21498329E-08
  0.553200006         6.35388702E-08
  0.565199971         7.36671382E-08
  0.577199996         8.19235524E-08
  0.589200020         8.79358097E-08
  0.601199985         9.17149734E-08
  0.613200009         9.38096463E-08
  0.625199974         9.54599244E-08
  0.637199998         9.87404292E-08
  0.649200022         1.06680432E-07
  0.661199987         1.23349480E-07
  0.673200011         1.53898526E-07
  0.685199976         2.04548883E-07
  0.697200000         2.82524098E-07
  0.709200025         3.95925667E-07
  0.721199989         5.53555196E-07
  0.733200014         7.64691833E-07
  0.745199978         1.03883713E-06
  0.757200003         1.38544010E-06
  0.769200027         1.81362179E-06
  0.781199992         2.33191304E-06
  0.793200016         2.94802771E-06
  0.805199981         3.66868221E-06
  0.817200005         4.49947765E-06
  0.829200029         5.44484874E-06
  0.841199994         6.50808852E-06
  0.853200018         7.69143571E-06
  0.865199983         8.99622410E-06
  0.877200007         1.04230767E-05
  0.889199972         1.19721199E-05
  0.901199996         1.36431945E-05
  0.913200021         1.54360532E-05
  0.925199986         1.73505050E-05
  0.937200010         1.93864798E-05
  0.949199975         2.15440377E-05
  0.961199999         2.38232369E-05
  0.973200023         2.62239337E-05
  0.985199988         2.87454568E-05
  0.997200012         3.13861856E-05
   1.00919998         3.41430605E-05
   1.02119994         3.70110502E-05
   1.03320003         3.99825803E-05
   1.04519999         4.30470427E-05
   1.05719995         4.61903437E-05
   1.06920004         4.93946136E-05
   1.08120000         5.26380936E-05
   1.09319997         5.58952197E-05
   1.10520005         5.91369899E-05
   1.11720002         6.23315427E-05
   1.12919998         6.54450560E-05
   1.14119995         6.84428232E-05
   1.15320003         7.12905967E-05
   1.16520000         7.39560783E-05
   1.17719996         7.64104552E-05
   1.18920004         7.86300297E-05
   1.20120001         8.05977979E-05
   1.21319997         8.23047740E-05
   1.22520006         8.37512198E-05
   1.23720002         8.49474236E-05
   1.24919999         8.59141510E-05
   1.26119995         8.66825794E-05
   1.27320004         8.72937599E-05
   1.28520000         8.77974671E-05
   1.29719996         8.82506065E-05
   1.30920005         8.87150309E-05
   1.32120001         8.92550452E-05
   1.33319998         8.99344377E-05
   1.34519994         9.08133952E-05
   1.35720003         9.19452796E-05
   1.36919999         9.33734627E-05
   1.38119996         9.51283437E-05
   1.39320004         9.72248308E-05
   1.40520000         9.96601884E-05
   1.41719997         1.02412574E-04
   1.42920005         1.05440347E-04
   1.44120002         1.08682099E-04
   1.45319998         1.12057569E-04
   1.46519995         1.15469389E-04
   1.47720003         1.18805641E-04
   1.48920000         1.21943114E-04
   1.50119996         1.24751125E-04
   1.51320004         1.27095846E-04
   1.52520001         1.28844869E-04
   1.53719997         1.29871842E-04
   1.54920006         1.30061031E-04
   1.56120002         1.29311520E-04
   1.57319999         1.27540960E-04
   1.58519995         1.24688697E-04
   1.59720004         1.20718054E-04
   1.60920000         1.15617957E-04
   1.62119997         1.09403365E-04
   1.63320005         1.02115082E-04
   1.64520001         9.38184967E-05
   1.65719998         8.46016410E-05
   1.66919994         7.45724537E-05
   1.68120003         6.38555648E-05
   1.69319999         5.25886062E-05
   1.70519996         4.09182794E-05
   1.71720004         2.89963318E-05
   1.72920001         1.69756258E-05
   1.74119997         5.00635088E-06
   1.75320005        -6.76735590E-06
   1.76520002        -1.82103831E-05
   1.77719998        -2.91991091E-05
   1.78919995        -3.96233117E-05
   1.80120003        -4.93874977E-05
   1.81320000        -5.84117115E-05
   1.82519996        -6.66318083E-05
   1.83720005        -7.39993266E-05
   1.84920001        -8.04808733E-05
   1.86119998        -8.60573346E-05
   1.87320006        -9.07227368E-05
   1.88520002        -9.44830608E-05
   1.89719999        -9.73549104E-05
   1.90919995        -9.93641806E-05
   1.92120004        -1.00544770E-04
   1.93320000        -1.00937381E-04
   1.94519997        -1.00588411E-04
   1.95720005        -9.95489609E-05
   1.96920002        -9.78739336E-05
   1.98119998        -9.56212607E-05
   1.99319994        -9.28511799E-05
   2.00519991        -8.96255369E-05
   2.01719999        -8.60070941E-05
   2.02920008        -8.20588102E-05
   2.04119992        -7.78431349E-05
   2.05320001        -7.34211426E-05
   2.06520009        -6.88517612E-05
   2.07719994        -6.41908700E-05
   2.08920002        -5.94905105E-05
   2.10120010        -5.47980635E-05
   2.11319995        -5.01556133E-05
   2.12520003        -4.55993541E-05
   2.13720012        -4.11592337E-05
   2.14919996        -3.68587753E-05
   2.16120005        -3.27151502E-05
   2.17319989        -2.87394614E-05
   2.18519998        -2.49372752E-05
   2.19720006        -2.13093645E-05
   2.20919991        -1.78526407E-05
   2.22119999        -1.45612157E-05
   2.23320007        -1.14275517E-05
   2.24519992        -8.44361239E-06
   2.25720000        -5.60197486E-06
   2.26920009        -2.89679201E-06
   2.28119993        -3.24582601E-07
   2.29320002         2.11522865E-06
   2.30520010         4.42004921E-06
   2.31719995         6.58414638E-06
   2.32920003         8.59896136E-06
   2.34120011         1.04536894E-05
   2.35319996         1.21360699E-05
   2.36520004         1.36333420E-05
   2.37719989         1.49332827E-05
   2.38919997         1.60252548E-05
   2.40120006         1.69012055E-05
   2.41319990         1.75565256E-05
   2.42519999         1.79907256E-05
   2.43720007         1.82078911E-05
   2.44919991         1.82168806E-05
   2.46120000         1.80312672E-05
   2.47320008         1.76690155E-05
   2.48519993         1.71519641E-05
   2.49720001         1.65050842E-05
   2.50920010         1.57556278E-05
   2.52119994         1.49321686E-05
   2.53320003         1.40636439E-05
   2.54520011         1.31784027E-05
   2.55719995         1.23033515E-05
   2.56920004         1.14632285E-05
   2.58119988         1.06800353E-05
   2.59319997         9.97265033E-06
   2.60520005         9.35663502E-06
   2.61719990         8.84421024E-06
   2.62919998         8.44439091E-06
   2.64120007         8.16324518E-06
   2.65319991         8.00424550E-06
   2.66520000         7.96865424E-06
   2.67720008         8.05593027E-06
   2.68919992         8.26409814E-06
   2.70120001         8.59005559E-06
   2.71320009         9.02980082E-06
   2.72519994         9.57856173E-06
   2.73720002         1.02308086E-05
   2.74920011         1.09801595E-05
   2.76119995         1.18192002E-05
   2.77320004         1.27392086E-05
   2.78520012         1.37298530E-05
   2.79719996         1.47788687E-05
   2.80920005         1.58717830E-05
   2.82119989         1.69917203E-05
   2.83319998         1.81193282E-05
   2.84520006         1.92328753E-05
   2.85719991         2.03085292E-05
   2.86919999         2.13208241E-05
   2.88120008         2.22433373E-05
   2.89319992         2.30495225E-05
   2.90520000         2.37136937E-05
   2.91720009         2.42120950E-05
   2.92919993         2.45240262E-05
   2.94120002         2.46329419E-05
   2.95320010         2.45274896E-05
   2.96519995         2.42024053E-05
   2.97720003         2.36592205E-05
   2.98920012         2.29067427E-05
   3.00119996         2.19612321E-05
   3.01320004         2.08462934E-05
   3.02519989         1.95924276E-05
   3.03719997         1.82362583E-05
   3.04920006         1.68194547E-05
   3.06119990         1.53873589E-05
   3.07319999         1.39874101E-05
   3.08520007         1.26673740E-05
   3.09719992         1.14734885E-05
   3.10920000         1.04485880E-05
   3.12120008         9.63029379E-06
   3.13319993         9.04936041E-06
   3.14520001         8.72824148E-06
   3.15720010         8.67997642E-06
   3.16919994         8.90742558E-06
   3.18120003         9.40293558E-06
   3.19320011         1.01484393E-05
   3.20519996         1.11160070E-05
   3.21720004         1.22688562E-05
   3.22919989         1.35627470E-05
   3.24119997         1.49477546E-05
   3.25320005         1.63703098E-05
   3.26519990         1.77754300E-05
   3.27719998         1.91090312E-05
   3.28920007         2.03202289E-05
   3.30119991         2.13634794E-05
   3.31320000         2.22004892E-05
   3.32520008         2.28017743E-05
   3.33719993         2.31477934E-05
   3.34920001         2.32296024E-05
   3.36120009         2.30490041E-05
   3.37319994         2.26181710E-05
   3.38520002         2.19587946E-05
   3.39720011         2.11008137E-05
   3.40919995         2.00807845E-05
   3.42120004         1.89400089E-05
   3.43319988         1.77225356E-05
   3.44519997         1.64731136E-05
   3.45720005         1.52352513E-05
   3.46919990         1.40494531E-05
   3.48119998         1.29516920E-05
   3.49320006         1.19722381E-05
   3.50519991         1.11348218E-05
   3.51719999         1.04561759E-05
   3.52920008         9.94593665E-06
   3.54119992         9.60688885E-06
   3.55320001         9.43549094E-06
   3.56520009         9.42264614E-06
   3.57719994         9.55463292E-06
   3.58920002         9.81414087E-06
   3.60120010         1.01813539E-05
   3.61319995         1.06350008E-05
   3.62520003         1.11533482E-05
   3.63720012         1.17150830E-05
   3.64919996         1.23000682E-05
   3.66120005         1.28899565E-05
   3.67319989         1.34686670E-05
   3.68519998         1.40227203E-05
   3.69720006         1.45414551E-05
   3.70919991         1.50171354E-05
   3.72119999         1.54449681E-05
   3.73320007         1.58230287E-05
   3.74519992         1.61521275E-05
   3.75720000         1.64356043E-05
   3.76920009         1.66790687E-05
   3.78119993         1.68900824E-05
   3.79320002         1.70778021E-05
   3.80520010         1.72525579E-05
   3.81719995         1.74254255E-05
   3.82920003         1.76077519E-05
   3.84120011         1.78106675E-05
   3.85319996         1.80446241E-05
   3.86520004         1.83189259E-05
   3.87719989         1.86412963E-05
   3.88919997         1.90175288E-05
   3.90120006         1.94511613E-05
   3.91319990         1.99432761E-05
   3.92519999         2.04923745E-05
   3.93720007         2.10943854E-05
   3.94919991         2.17427641E-05
   3.96120000         2.24287342E-05
   3.97320008         2.31416161E-05
   3.98519993         2.38692610E-05
   3.99720001         2.45985430E-05
   4.00920010         2.53158960E-05
   4.02120018         2.60078505E-05
   4.03319979         2.66615480E-05
   4.04519987         2.72652014E-05
   4.05719995         2.78084699E-05
   4.06920004         2.82827459E-05
   4.08120012         2.86813320E-05
   4.09320021         2.89995023E-05
   4.10519981         2.92344757E-05
   4.11719990         2.93852936E-05
   4.12919998         2.94526071E-05
   4.14120007         2.94384317E-05
   4.15320015         2.93458543E-05
   4.16520023         2.91787474E-05
   4.17719984         2.89415057E-05
   4.18919992         2.86388367E-05
   4.20120001         2.82756355E-05
   4.21320009         2.78569532E-05
   4.22520018         2.73880778E-05
   4.23719978         2.68746953E-05
   4.24919987         2.63231705E-05
   4.26119995         2.57408356E-05
   4.27320004         2.51363199E-05
   4.28520012         2.45198444E-05
   4.29720020         2.39034107E-05
   4.30919981         2.33009068E-05
   4.32119989         2.27280379E-05
   4.33319998         2.22020990E-05
   4.34520006         2.17415600E-05
   4.35720015         2.13655003E-05
   4.36920023         2.10928920E-05
   4.38119984         2.09417831E-05
   4.39319992         2.09284008E-05
   4.40520000         2.10662347E-05
   4.41720009         2.13651601E-05
   4.42920017         2.18306486E-05
   4.44119978         2.24631185E-05
   4.45319986         2.32574675E-05
   4.46519995         2.42028436E-05
   4.47720003         2.52826649E-05
   4.48920012         2.64749051E-05
   4.50120020         2.77526615E-05
   4.51319981         2.90849639E-05
   4.52519989         3.04377882E-05
   4.53719997         3.17752492E-05
   4.54920006         3.30609000E-05
   4.56120014         3.42590720E-05
   4.57320023         3.53362339E-05
   4.58519983         3.62622159E-05
   4.59719992         3.70113848E-05
   4.60920000         3.75635827E-05
   4.62120008         3.79048797E-05
   4.63320017         3.80281163E-05
   4.64519978         3.79331468E-05
   4.65719986         3.76268545E-05
   4.66919994         3.71229180E-05
   4.68120003         3.64412772E-05
   4.69320011         3.56074488E-05
   4.70520020         3.46515844E-05
   4.71719980         3.36073899E-05
   4.72919989         3.25109468E-05
   4.74119997         3.13993951E-05
   4.75320005         3.03096494E-05
   4.76520014         2.92771128E-05
   4.77720022         2.83344434E-05
   4.78919983         2.75104376E-05
   4.80119991         2.68290605E-05
   4.81320000         2.63086640E-05
   4.82520008         2.59613844E-05
   4.83720016         2.57927823E-05
   4.84919977         2.58017189E-05
   4.86119986         2.59804492E-05
   4.87319994         2.63149923E-05
   4.88520002         2.67856813E-05
   4.89720011         2.73679416E-05
   4.90920019         2.80332442E-05
   4.92119980         2.87501753E-05
   4.93319988         2.94856327E-05
   4.94519997         3.02060471E-05
   4.95720005         3.08786366E-05
   4.96920013         3.14725912E-05
   4.98120022         3.19602186E-05
   4.99319983         3.23179556E-05
   5.00519991         3.25272013E-05
   5.01719999         3.25750443E-05
   5.02920008         3.24547364E-05
   5.04120016         3.21659645E-05
   5.05319977         3.17149061E-05
   5.06519985         3.11140575E-05
   5.07719994         3.03818124E-05
   5.08920002         2.95418686E-05
   5.10120010         2.86223840E-05
   5.11320019         2.76549945E-05
   5.12519979         2.66736915E-05
   5.13719988         2.57135944E-05
   5.14919996         2.48096694E-05
   5.16120005         2.39954352E-05
   5.17320013         2.33017035E-05
   5.18520021         2.27553992E-05
   5.19719982         2.23784955E-05
   5.20919991         2.21870960E-05
   5.22119999         2.21907085E-05
   5.23320007         2.23917414E-05
   5.24520016         2.27851997E-05
   5.25719976         2.33586597E-05
   5.26919985         2.40924765E-05
   5.28119993         2.49602544E-05
   5.29320002         2.59295630E-05
   5.30520010         2.69628690E-05
   5.31720018         2.80186960E-05
   5.32919979         2.90529442E-05
   5.34119987         3.00203701E-05
   5.35319996         3.08761519E-05
   5.36520004         3.15774851E-05
   5.37720013         3.20852087E-05
   5.38920021         3.23653039E-05
   5.40119982         3.23903332E-05
   5.41319990         3.21406224E-05
   5.42519999         3.16052719E-05
   5.43720007         3.07828304E-05
   5.44920015         2.96816652E-05
   5.46120024         2.83199897E-05
   5.47319984         2.67255182E-05
   5.48519993         2.49347522E-05
   5.49720001         2.29919351E-05
   5.50920010         2.09476730E-05
   5.52120018         1.88572885E-05
   5.53319979         1.67789512E-05
   5.54519987         1.47716719E-05
   5.55719995         1.28932079E-05
   5.56920004         1.11979925E-05
   5.58120012         9.73516035E-06
   5.59320021         8.54675000E-06
   5.60519981         7.66616722E-06
   5.61719990         7.11696930E-06
   5.62919998         6.91201967E-06
   5.64120007         7.05305774E-06
   5.65320015         7.53069253E-06
   5.66520023         8.32481146E-06
   5.67719984         9.40540212E-06
   5.68919992         1.07337301E-05
   5.70120001         1.22638285E-05
   5.71320009         1.39442318E-05
   5.72520018         1.57198792E-05
   5.73719978         1.75341047E-05
   5.74919987         1.93306350E-05
   5.76119995         2.10555099E-05
   5.77320004         2.26588581E-05
   5.78520012         2.40964582E-05
   5.79720020         2.53310591E-05
   5.80919981         2.63333677E-05
   5.82119989         2.70827495E-05
   5.83319998         2.75675939E-05
   5.84520006         2.77853651E-05
   5.85720015         2.77423387E-05
   5.86920023         2.74530848E-05
   5.88119984         2.69396969E-05
   5.89319992         2.62308258E-05
   5.90520000         2.53605449E-05
   5.91720009         2.43670984E-05
   5.92920017         2.32915881E-05
   5.94119978         2.21765968E-05
   5.95319986         2.10648377E-05
   5.96519995         1.99978385E-05
   5.97720003         1.90146875E-05
   5.98920012         1.81509004E-05
   6.00120020         1.74374018E-05
   6.01319981         1.68996521E-05
   6.02519989         1.65569509E-05
   6.03719997         1.64219109E-05
   6.04920006         1.65001293E-05
   6.06120014         1.67900544E-05
   6.07320023         1.72830623E-05
   6.08519983         1.79637445E-05
   6.09719992         1.88103968E-05
   6.10920000         1.97957143E-05
   6.12120008         2.08876863E-05
   6.13320017         2.20506354E-05
   6.14519978         2.32464336E-05
   6.15719986         2.44357852E-05
   6.16919994         2.55796058E-05
   6.18120003         2.66403858E-05
   6.19320011         2.75835300E-05
   6.20520020         2.83785957E-05
   6.21719980         2.90003827E-05
   6.22919989         2.94298243E-05
   6.24119997         2.96546477E-05
   6.25320005         2.96697599E-05
   6.26520014         2.94773381E-05
   6.27720022         2.90866265E-05
   6.28919983         2.85134320E-05
   6.30119991         2.77793424E-05
   6.31320000         2.69106931E-05
   6.32520008         2.59373319E-05
   6.33720016         2.48912274E-05
   6.34919977         2.38050216E-05
   6.36119986         2.27105302E-05
   6.37319994         2.16373501E-05
   6.38520002         2.06115710E-05
   6.39720011         1.96547262E-05
   6.40920019         1.87829846E-05
   6.42119980         1.80066581E-05
   6.43319988         1.73300432E-05
   6.44519997         1.67515882E-05
   6.45720005         1.62643937E-05
   6.46920013         1.58569910E-05
   6.48120022         1.55143698E-05
   6.49319983         1.52191715E-05
   6.50519991         1.49529897E-05
   6.51719999         1.46976899E-05
   6.52920008         1.44366750E-05
   6.54120016         1.41560067E-05
   6.55319977         1.38453252E-05
   6.56519985         1.34985039E-05
   6.57719994         1.31140050E-05
   6.58920002         1.26949135E-05
   6.60120010         1.22486490E-05
   6.61320019         1.17863974E-05
   6.62519979         1.13222804E-05
   6.63719988         1.08723434E-05
   6.64919996         1.04534229E-05
   6.66120005         1.00819698E-05
   6.67320013         9.77291347E-06
   6.68520021         9.53862127E-06
   6.69719982         9.38803441E-06
   6.70919991         9.32602416E-06
   6.72119999         9.35298613E-06
   6.73320007         9.46472665E-06
   6.74520016         9.65259642E-06
   6.75719976         9.90389071E-06
   6.76919985         1.02024633E-05
   6.78119993         1.05295203E-05
   6.79320002         1.08645354E-05
   6.80520010         1.11862410E-05
   6.81720018         1.14736249E-05
   6.82919979         1.17069067E-05
   6.84119987         1.18684256E-05
   6.85319996         1.19434353E-05
   6.86520004         1.19207489E-05
   6.87720013         1.17932468E-05
   6.88920021         1.15582143E-05
   6.90119982         1.12175239E-05
   6.91319990         1.07776459E-05
   6.92519999         1.02495105E-05
   6.93720007         9.64821174E-06
   6.94920015         8.99258157E-06
   6.96120024         8.30463159E-06
   6.97319984         7.60890271E-06
   6.98519993         6.93171796E-06
   6.99720001         6.30038676E-06
   7.00920010         5.74235582E-06
   7.02120018         5.28434839E-06
   7.03319979         4.95150425E-06
   7.04519987         4.76655214E-06
   7.05719995         4.74902890E-06
   7.06920004         4.91458331E-06
   7.08120012         5.27438760E-06
   7.09320021         5.83467636E-06
   7.10519981         6.59645184E-06
   7.11719990         7.55535530E-06
   7.12919998         8.70172153E-06
   7.14120007         1.00208235E-05
   7.15320015         1.14932727E-05
   7.16520023         1.30955814E-05
   7.17719984         1.48008357E-05
   7.18919992         1.65794518E-05
   7.20120001         1.83999946E-05
   7.21320009         2.02299998E-05
   7.22520018         2.20367674E-05
   7.23719978         2.37881468E-05
   7.24919987         2.54532224E-05
   7.26119995         2.70029486E-05
   7.27320004         2.84106845E-05
   7.28520012         2.96526523E-05
   7.29720020         3.07083246E-05
   7.30919981         3.15607176E-05
   7.32119989         3.21966545E-05
   7.33319998         3.26069458E-05
   7.34520006         3.27865491E-05
   7.35720015         3.27346715E-05
   7.36920023         3.24548710E-05
   7.38119984         3.19550745E-05
   7.39319992         3.12475931E-05
   7.40520000         3.03490233E-05
   7.41720009         2.92801360E-05
   7.42920017         2.80655750E-05
   7.44119978         2.67335145E-05
   7.45319986         2.53151211E-05
   7.46519995         2.38439134E-05
   7.47720003         2.23549578E-05
   7.48920012         2.08839501E-05
   7.50120020         1.94662061E-05
   7.51319981         1.81355936E-05
   7.52519989         1.69234681E-05
   7.53719997         1.58576531E-05
   7.54920006         1.49615171E-05
   7.56120014         1.42532190E-05
   7.57320023         1.37451334E-05
   7.58519983         1.34435104E-05
   7.59719992         1.33483836E-05
   7.60920000         1.34537358E-05
   7.62120008         1.37478992E-05
   7.63320017         1.42142035E-05
   7.64519978         1.48317931E-05
   7.65719986         1.55766120E-05
   7.66919994         1.64224566E-05
   7.68120003         1.73420813E-05
   7.69320011         1.83082429E-05
   7.70520020         1.92946973E-05
   7.71719980         2.02770225E-05
   7.72919989         2.12332870E-05
   7.74119997         2.21445407E-05
   7.75320005         2.29950874E-05
   7.76520014         2.37725963E-05
   7.77720022         2.44680305E-05
   7.78919983         2.50754747E-05
   7.80119991         2.55918440E-05
   7.81320000         2.60165561E-05
   7.82520008         2.63511774E-05
   7.83720016         2.65990930E-05
   7.84919977         2.67651922E-05
   7.86119986         2.68556414E-05
   7.87319994         2.68776766E-05
   7.88520002         2.68394797E-05
   7.89720011         2.67500818E-05
   7.90920019         2.66192874E-05
   7.92119980         2.64576192E-05
   7.93319988         2.62762042E-05
   7.94519997         2.60866727E-05
   7.95720005         2.59009303E-05
   7.96920013         2.57309275E-05
   7.98120022         2.55883006E-05
   7.99319983         2.54840124E-05
   8.00520039         2.54278857E-05
   8.01720047         2.54281549E-05
   8.02919960         2.54910192E-05
   8.04119968         2.56202220E-05
   8.05319977         2.58167202E-05
   8.06519985         2.60784582E-05
   8.07719994         2.64002720E-05
   8.08920002         2.67739633E-05
   8.10120010         2.71884983E-05
   8.11320019         2.76304308E-05
   8.12520027         2.80844160E-05
   8.13720036         2.85338665E-05
   8.14920044         2.89616946E-05
   8.16119957         2.93511039E-05
   8.17319965         2.96863582E-05
   8.18519974         2.99535259E-05
   8.19719982         3.01411164E-05
   8.20919991         3.02405952E-05
   8.22119999         3.02467361E-05
   8.23320007         3.01578184E-05
   8.24520016         2.99756193E-05
   8.25720024         2.97052702E-05
   8.26920033         2.93549201E-05
   8.28120041         2.89352847E-05
   8.29319954         2.84590969E-05
   8.30519962         2.79404867E-05
   8.31719971         2.73943388E-05
   8.32919979         2.68356525E-05
   8.34119987         2.62789399E-05
   8.35319996         2.57377014E-05
   8.36520004         2.52239661E-05
   8.37720013         2.47479402E-05
   8.38920021         2.43177492E-05
   8.40120029         2.39392793E-05
   8.41320038         2.36161250E-05
   8.42520046         2.33496175E-05
   8.43719959         2.31389531E-05
   8.44919968         2.29813704E-05
   8.46119976         2.28724421E-05
   8.47319984         2.28063673E-05
   8.48519993         2.27763394E-05
   8.49720001         2.27749224E-05
   8.50920010         2.27944365E-05
   8.52120018         2.28273402E-05
   8.53320026         2.28665722E-05
   8.54520035         2.29058824E-05
   8.55720043         2.29400994E-05
   8.56919956         2.29653433E-05
   8.58119965         2.29792004E-05
   8.59319973         2.29808156E-05
   8.60519981         2.29709331E-05
   8.61719990         2.29518737E-05
   8.62919998         2.29274301E-05
   8.64120007         2.29027191E-05
   8.65320015         2.28839544E-05
   8.66520023         2.28781610E-05
   8.67720032         2.28928657E-05
   8.68920040         2.29357229E-05
   8.70119953         2.30141359E-05
   8.71319962         2.31348786E-05
   8.72519970         2.33037190E-05
   8.73719978         2.35250773E-05
   8.74919987         2.38017110E-05
   8.76119995         2.41344624E-05
   8.77320004         2.45220544E-05
   8.78520012         2.49609475E-05
   8.79720020         2.54452534E-05
   8.80920029         2.59667449E-05
   8.82120037         2.65149320E-05
   8.83320045         2.70772161E-05
   8.84519958         2.76391620E-05
   8.85719967         2.81848388E-05
   8.86919975         2.86972572E-05
   8.88119984         2.91589186E-05
   8.89319992         2.95523805E-05
   8.90520000         2.98609193E-05
   8.91720009         3.00691845E-05
   8.92920017         3.01638520E-05
   8.94120026         3.01342625E-05
   8.95320034         2.99729618E-05
   8.96520042         2.96762028E-05
   8.97719955         2.92442801E-05
   8.98919964         2.86817831E-05
   9.00119972         2.79976630E-05
   9.01319981         2.72051639E-05
   9.02519989         2.63215534E-05
   9.03719997         2.53677063E-05
   9.04920006         2.43675113E-05
   9.06120014         2.33471310E-05
   9.07320023         2.23341303E-05
   9.08520031         2.13565327E-05