 -0.622799993         1.00000002E-24
 -0.610800028         1.00000002E-24
 -0.598800004         1.00000002E-24
 -0.586799979         1.00000002E-24
 -0.574800014        -1.66968810E-22
 -0.562799990        -9.25653981E-22
 -0.550800025        -2.74852569E-21
 -0.538800001        -7.84024484E-21
 -0.526799977        -2.95973657E-20
 -0.514800012        -1.14627096E-19
 -0.502799988        -3.69051128E-19
 -0.490799993        -9.58015667E-19
 -0.478799999        -2.03373086E-18
 -0.466800004        -3.57212033E-18
 -0.454800010        -5.17645450E-18
 -0.442799985        -6.01047424E-18
 -0.430799991        -5.07480062E-18
 -0.418799996        -1.94354626E-18
 -0.406800002         2.20596993E-18
 -0.394800007         3.81859534E-18
 -0.382800013        -2.76334097E-18
 -0.370799989        -2.33494922E-17
 -0.358799994        -6.03878045E-17
 -0.346799999        -1.09142803E-16
 -0.334800005        -1.55837082E-16
 -0.322800010        -1.80179234E-16
 -0.310799986        -1.63428615E-16
 -0.298799992        -1.00501253E-16
 -0.286799997        -1.15087161E-17
 -0.274800003         5.38718811E-17
 -0.262800008         2.50596418E-17
 -0.250800014        -1.66083017E-16
 -0.238800004        -5.52374378E-16
 -0.226799995        -1.10090545E-15
 -0.214800000        -1.70049689E-15
 -0.202800006        -2.17952695E-15
 -0.190799996        -2.35685287E-15
 -0.178800002        -2.11447143E-15
 -0.166800007        -1.46755287E-15
 -0.154799998        -6.01784404E-16
 -0.142800003         1.46048015E-16
 -0.130799994         3.70615269E-16
 -0.118799999        -2.74049278E-16
 -0.106799997        -1.94055778E-15
  -9.48000029E-02    -4.49644518E-15
  -8.28000009E-02    -7.51392848E-15
  -7.07999989E-02    -1.03540655E-14
  -5.88000007E-02    -1.23236958E-14
  -4.67999987E-02    -1.28544416E-14
  -3.48000005E-02    -1.16428016E-14
  -2.28000004E-02    -8.70555137E-15
  -1.08000003E-02    -4.34138140E-15
   1.20000006E-03     9.67025117E-16
   1.31999999E-02     6.64685050E-15
   2.52000000E-02     1.20638422E-14
   3.72000001E-02     1.64647789E-14
   4.91999984E-02     1.88784772E-14
   6.12000003E-02     1.80827389E-14
   7.32000023E-02     1.27677427E-14
   8.51999968E-02     1.98113764E-15
   9.71999988E-02    -1.41782431E-14
  0.109200001        -3.38128776E-14
  0.121200003        -5.27627224E-14
  0.133200005        -6.48091945E-14
  0.145199999        -6.28196903E-14
  0.157199994        -4.08227224E-14
  0.169200003         3.39221004E-15
  0.181199998         6.59366157E-14
  0.193200007         1.35733818E-13
  0.205200002         1.95540402E-13
  0.217199996         2.25435352E-13
  0.229200006         2.08331724E-13
  0.241200000         1.36195837E-13
  0.253199995         1.50369829E-14
  0.265199989        -1.33340008E-13
  0.277200013        -2.74184348E-13
  0.289200008        -3.67339270E-13
  0.301200002        -3.77984644E-13
  0.313199997        -2.87738637E-13
  0.325199991        -1.02674501E-13
  0.337199986         1.44697785E-13
  0.349200010         4.00856431E-13
  0.361200005         6.03228405E-13
  0.373199999         6.95625686E-13
  0.385199994         6.42753754E-13
  0.397199988         4.39445436E-13
  0.409200013         1.11825703E-13
  0.421200007        -2.89795938E-13
  0.433200002        -7.03762135E-13
  0.445199996        -1.07118231E-12
  0.457199991        -1.34655438E-12
  0.469199985        -1.50157317E-12
  0.481200010        -1.52154081E-12
  0.493200004        -1.39682406E-12
  0.505200028        -1.11397718E-12
  0.517199993        -6.51589243E-13
  0.529200017         1.56150066E-14
  0.541199982         9.03899026E-13
  0.553200006         2.00177657E-12
  0.565199971         3.25095831E-12
  0.577199996         4.53341921E-12
  0.589200020         5.66987906E-12
  0.601199985         6.43222541E-12
  0.613200009         6.56902137E-12
  0.625199974         5.84036942E-12
  0.637199998         4.05686856E-12
  0.649200022         1.11752925E-12
  0.661199987        -2.95716381E-12
  0.673200011        -7.99917597E-12
  0.685199976        -1.36748833E-11
  0.697200000        -1.94763459E-11
  0.709200025        -2.47247622E-11
  0.721199989        -2.85912734E-11
  0.733200014        -3.01423157E-11
  0.745199978        -2.84169840E-11
  0.757200003        -2.25413421E-11
  0.769200027        -1.18788902E-11
  0.781199992         3.79247805E-12
  0.793200016         2.40971531E-11
  0.805199981         4.79023210E-11
  0.817200005         7.32195068E-11
  0.829200029         9.72058961E-11
  0.841199994         1.16297791E-10
  0.853200018         1.26494606E-10
  0.865199983         1.23790228E-10
  0.877200007         1.04723112E-10
  0.889199972         6.69913222E-11
  0.901199996         1.00576674E-11
  0.913200021        -6.43406994E-11
  0.925199986        -1.51864160E-10
  0.937200010        -2.45496845E-10
  0.949199975        -3.35777350E-10
  0.961199999        -4.11353007E-10
  0.973200023        -4.59844107E-10
  0.985199988        -4.68968753E-10
  0.997200012        -4.27849894E-10
   1.00919998        -3.28398114E-10
   1.02119994        -1.66641145E-10
   1.03320003         5.61426426E-11
   1.04519999         3.32639138E-10
   1.05719995         6.49209464E-10
   1.06920004         9.86228210E-10
   1.08120000         1.31914613E-09
   1.09319997         1.62032310E-09
   1.10520005         1.86161286E-09
   1.11720002         2.01759676E-09
   1.12919998         2.06928874E-09
   1.14119995         2.00804684E-09
   1.15320003         1.83937376E-09
   1.16520000         1.58623725E-09
   1.17719996         1.29155497E-09
   1.18920004         1.01952013E-09
   1.20120001         8.55556515E-10
   1.21319997         9.04831488E-10
   1.22520006         1.28947253E-09
   1.23720002         2.14488782E-09
   1.24919999         3.61583985E-09
   1.26119995         5.85319215E-09
   1.27320004         9.01248676E-09
   1.28520000         1.32556401E-08
   1.29719996         1.87571096E-08
   1.30920005         2.57158206E-08
   1.32120001         3.43739082E-08
   1.33319998         4.50430662E-08
   1.34519994         5.81386459E-08
   1.35720003         7.42214183E-08
   1.36919999         9.40458094E-08
   1.38119996         1.18613229E-07
   1.39320004         1.49227986E-07
   1.40520000         1.87553113E-07
   1.41719997         2.35662455E-07
   1.42920005         2.96085602E-07
   1.44120002         3.71841907E-07
   1.45319998         4.66459596E-07
   1.46519995         5.83977908E-07
   1.47720003         7.28928342E-07
   1.48920000         9.06295497E-07
   1.50119996         1.12145585E-06
   1.51320004         1.38009545E-06
   1.52520001         1.68811016E-06
   1.53719997         2.05149036E-06
   1.54920006         2.47619369E-06
   1.56120002         2.96801340E-06
   1.57319999         3.53244468E-06
   1.58519995         4.17455203E-06
   1.59720004         4.89884906E-06
   1.60920000         5.70918792E-06
   1.62119997         6.60866181E-06
   1.63320005         7.59952809E-06
   1.64520001         8.68314601E-06
   1.65719998         9.85993211E-06
   1.66919994         1.11293339E-05
   1.68120003         1.24898188E-05
   1.69319999         1.39388776E-05
   1.70519996         1.54730424E-05
   1.71720004         1.70879121E-05
   1.72920001         1.87781989E-05
   1.74119997         2.05377673E-05
   1.75320005         2.23597090E-05
   1.76520002         2.42364094E-05
   1.77719998         2.61596506E-05
   1.78919995         2.81207012E-05
   1.80120003         3.01104446E-05
   1.81320000         3.21195294E-05
   1.82519996         3.41384984E-05
   1.83720005         3.61579841E-05
   1.84920001         3.81688769E-05
   1.86119998         4.01624930E-05
   1.87320006         4.21307886E-05
   1.88520002         4.40665062E-05
   1.89719999         4.59633302E-05
   1.90919995         4.78160182E-05
   1.92120004         4.96204993E-05
   1.93320000         5.13739178E-05
   1.94519997         5.30746547E-05
   1.95720005         5.47222880E-05
   1.96920002         5.63175199E-05
   1.98119998         5.78620566E-05
   1.99319994         5.93584446E-05
   2.00519991         6.08099108E-05
   2.01719999         6.22201260E-05
   2.02920008         6.35930483E-05
   2.04119992         6.49326685E-05
   2.05320001         6.62428574E-05
   2.06520009         6.75271658E-05
   2.07719994         6.87887077E-05
   2.08920002         7.00300734E-05
   2.10120010         7.12532274E-05
   2.11319995         7.24595448E-05
   2.12520003         7.36497677E-05
   2.13720012         7.48240709E-05
   2.14919996         7.59821851E-05
   2.16120005         7.71234263E-05
   2.17319989         7.82468414E-05
   2.18519998         7.93513318E-05
   2.19720006         8.04357260E-05
   2.20919991         8.14989689E-05
   2.22119999         8.25401439E-05
   2.23320007         8.35586688E-05
   2.24519992         8.45543473E-05
   2.25720000         8.55274702E-05
   2.26920009         8.64789254E-05
   2.28119993         8.74102843E-05
   2.29320002         8.83239336E-05
   2.30520010         8.92231183E-05
   2.31719995         9.01120948E-05
   2.32920003         9.09961818E-05
   2.34120011         9.18818405E-05
   2.35319996         9.27767469E-05
   2.36520004         9.36897704E-05
   2.37719989         9.46309447E-05
   2.38919997         9.56113436E-05
   2.40120006         9.66429070E-05
   2.41319990         9.77381133E-05
   2.42519999         9.89096006E-05
   2.43720007         1.00169615E-04
   2.44919991         1.01529396E-04
   2.46120000         1.02998412E-04
   2.47320008         1.04583472E-04
   2.48519993         1.06287836E-04
   2.49720001         1.08110136E-04
   2.50920010         1.10043395E-04
   2.52119994         1.12073889E-04
   2.53320003         1.14180191E-04
   2.54520011         1.16332252E-04
   2.55719995         1.18490534E-04
   2.56920004         1.20605444E-04
   2.58119988         1.22616926E-04
   2.59319997         1.24454309E-04
   2.60520005         1.26036466E-04
   2.61719990         1.27272288E-04
   2.62919998         1.28061598E-04
   2.64120007         1.28296277E-04
   2.65319991         1.27861815E-04
   2.66520000         1.26639308E-04
   2.67720008         1.24507613E-04
   2.68919992         1.21345896E-04
   2.70120001         1.17036405E-04
   2.71320009         1.11467365E-04
   2.72519994         1.04536062E-04
   2.73720002         9.61518817E-05
   2.74920011         8.62393063E-05
   2.76119995         7.47408121E-05
   2.77320004         6.16194884E-05
   2.78520012         4.68613907E-05
   2.79719996         3.04774530E-05
   2.80920005         1.25050265E-05
   2.82119989        -6.99115208E-06
   2.83319998        -2.79185006E-05
   2.84520006        -5.01567156E-05
   2.85719991        -7.35584763E-05
   2.86919999        -9.79507531E-05
   2.88120008        -1.23136590E-04
   2.89319992        -1.48897583E-04
   2.90520000        -1.74996560E-04
   2.91720009        -2.01181028E-04
   2.92919993        -2.27186596E-04
   2.94120002        -2.52741040E-04
   2.95320010        -2.77568353E-04
   2.96519995        -3.01392924E-04
   2.97720003        -3.23943852E-04
   2.98920012        -3.44959262E-04
   3.00119996        -3.64190637E-04
   3.01320004        -3.81406659E-04
   3.02519989        -3.96397198E-04
   3.03719997        -4.08976863E-04
   3.04920006        -4.18988377E-04
   3.06119990        -4.26305312E-04
   3.07319999        -4.30834800E-04
   3.08520007        -4.32519504E-04
   3.09719992        -4.31339111E-04
   3.10920000        -4.27311432E-04
   3.12120008        -4.20492783E-04
   3.13319993        -4.10977809E-04
   3.14520001        -3.98898614E-04
   3.15720010        -3.84423329E-04
   3.16919994        -3.67753848E-04
   3.18120003        -3.49122827E-04
   3.19320011        -3.28790542E-04
   3.20519996        -3.07040260E-04
   3.21720004        -2.84173904E-04
   3.22919989        -2.60506640E-04
   3.24119997        -2.36361346E-04
   3.25320005        -2.12062732E-04
   3.26519990        -1.87931320E-04
   3.27719998        -1.64277473E-04
   3.28920007        -1.41395489E-04
   3.30119991        -1.19558121E-04
   3.31320000        -9.90114713E-05
   3.32520008        -7.99704940E-05
   3.33719993        -6.26152614E-05
   3.34920001        -4.70880514E-05
   3.36120009        -3.34912729E-05
   3.37319994        -2.18864006E-05
   3.38520002        -1.22938372E-05
   3.39720011        -4.69374891E-06
   3.40919995         9.72218686E-07
   3.42120004         4.79832579E-06
   3.43319988         6.91140849E-06
   3.44519997         7.46687920E-06
   3.45720005         6.64415893E-06
   3.46919990         4.64171580E-06
   3.48119998         1.67179553E-06
   3.49320006        -2.04500157E-06
   3.50519991        -6.28518137E-06
   3.51719999        -1.08277309E-05
   3.52920008        -1.54592799E-05
   3.54119992        -1.99789683E-05
   3.55320001        -2.42028600E-05
   3.56520009        -2.79678716E-05
   3.57719994        -3.11350705E-05
   3.58920002        -3.35923105E-05
   3.60120010        -3.52561292E-05
   3.61319995        -3.60728227E-05
   3.62520003        -3.60187369E-05
   3.63720012        -3.50996852E-05
   3.64919996        -3.33496064E-05
   3.66120005        -3.08283670E-05
   3.67319989        -2.76189203E-05
   3.68519998        -2.38238081E-05
   3.69720006        -1.95611647E-05
   3.70919991        -1.49603839E-05
   3.72119999        -1.01575342E-05
   3.73320007        -5.29077079E-06
   3.74519992        -4.95859354E-07
   3.75720000         4.09800668E-06
   3.76920009         8.37195603E-06
   3.78119993         1.22206311E-05
   3.79320002         1.55547241E-05
   3.80520010         1.83028133E-05
   3.81719995         2.04124444E-05
   3.82920003         2.18505265E-05
   3.84120011         2.26030224E-05
   3.85319996         2.26740794E-05
   3.86520004         2.20846359E-05
   3.87719989         2.08706806E-05
   3.88919997         1.90812316E-05
   3.90120006         1.67761755E-05
   3.91319990         1.40240863E-05
   3.92519999         1.09000766E-05
   3.93720007         7.48377533E-06
   3.94919991         3.85746353E-06
   3.96120000         1.04379126E-07
   3.97320008        -3.69281088E-06
   3.98519993        -7.45339912E-06
   3.99720001        -1.10999135E-05
   4.00920010        -1.45593222E-05
   4.02120018        -1.77641959E-05
   4.03319979        -2.06538534E-05
   4.04519987        -2.31754766E-05
   4.05719995        -2.52852114E-05
   4.06920004        -2.69491902E-05
   4.08120012        -2.81444372E-05
   4.09320021        -2.88596002E-05
   4.10519981        -2.90954249E-05
   4.11719990        -2.88649044E-05
   4.12919998        -2.81930643E-05
   4.14120007        -2.71163044E-05
   4.15320015        -2.56813073E-05
   4.16520023        -2.39435140E-05
   4.17719984        -2.19651902E-05
   4.18919992        -1.98131711E-05
   4.20120001        -1.75563764E-05
   4.21320009        -1.52631965E-05
   4.22520018        -1.29989212E-05
   4.23719978        -1.08232953E-05
   4.24919987        -8.78839273E-06
   4.26119995        -6.93688116E-06
   4.27320004        -5.30080342E-06
   4.28520012        -3.90092146E-06
   4.29720020        -2.74666081E-06
   4.30919981        -1.83664235E-06
   4.32119989        -1.15976172E-06
   4.33319998        -6.96717450E-07
   4.34520006        -4.21904559E-07
   4.35720015        -3.05523542E-07
   4.36920023        -3.15781165E-07
   4.38119984        -4.21035111E-07
   4.39319992        -5.91758521E-07
   4.40520000        -8.02201612E-07
   4.41720009        -1.03167463E-06
   4.42920017        -1.26538066E-06
   4.44119978        -1.49478285E-06
   4.45319986        -1.71750548E-06
   4.46519995        -1.93681490E-06
   4.47720003        -2.16073795E-06
   4.48920012        -2.40091845E-06
   4.50120020        -2.67129258E-06
   4.51319981        -2.98671284E-06
   4.52519989        -3.36160224E-06
   4.53719997        -3.80874826E-06
   4.54920006        -4.33829837E-06
   4.56120014        -4.95702125E-06
   4.57320023        -5.66786002E-06
   4.58519983        -6.46978651E-06
   4.59719992        -7.35793083E-06
   4.60920000        -8.32395745E-06
   4.62120008        -9.35661865E-06
   4.63320017        -1.04424316E-05
   4.64519978        -1.15664125E-05
   4.65719986        -1.27127814E-05
   4.66919994        -1.38656033E-05
   4.68120003        -1.50093101E-05
   4.69320011        -1.61290718E-05
   4.70520020        -1.72110176E-05
   4.71719980        -1.82423064E-05
   4.72919989        -1.92110747E-05
   4.74119997        -2.01063085E-05
   4.75320005        -2.09176451E-05
   4.76520014        -2.16352128E-05
   4.77720022        -2.22495182E-05
   4.78919983        -2.27514138E-05
   4.80119991        -2.31321901E-05
   4.81320000        -2.33838146E-05
   4.82520008        -2.34992731E-05
   4.83720016        -2.34730433E-05
   4.84919977        -2.33016308E-05
   4.86119986        -2.29841171E-05
   4.87319994        -2.25227122E-05
   4.88520002        -2.19231679E-05
   4.89720011        -2.11950955E-05
   4.90920019        -2.03520940E-05
   4.92119980        -1.94116565E-05
   4.93319988        -1.83948596E-05
   4.94519997        -1.73258577E-05
   4.95720005        -1.62311553E-05
   4.96920013        -1.51387721E-05
   4.98120022        -1.40772754E-05
   4.99319983        -1.30748103E-05
   5.00519991        -1.21581461E-05
   5.01719999        -1.13518117E-05
   5.02920008        -1.06773859E-05
   5.04120016        -1.01529549E-05
   5.05319977        -9.79277138E-06
   5.06519985        -9.60713169E-06
   5.07719994        -9.60241596E-06
   5.08920002        -9.78130538E-06
   5.10120010        -1.01430896E-05
   5.11320019        -1.06840398E-05
   5.12519979        -1.13977640E-05
   5.13719988        -1.22755173E-05
   5.14919996        -1.33063904E-05
   5.16120005        -1.44773921E-05
   5.17320013        -1.57733775E-05
   5.18520021        -1.71768716E-05
   5.19719982        -1.86678026E-05
   5.20919991        -2.02232295E-05
   5.22119999        -2.18170917E-05
   5.23320007        -2.34201016E-05
   5.24520016        -2.49998448E-05
   5.25719976        -2.65211402E-05
   5.26919985        -2.79467095E-05
   5.28119993        -2.92382265E-05
   5.29320002        -3.03576635E-05
   5.30520010        -3.12689590E-05
   5.31720018        -3.19399114E-05
   5.32919979        -3.23441891E-05
   5.34119987        -3.24633256E-05
   5.35319996        -3.22885971E-05
   5.36520004        -3.18225320E-05
   5.37720013        -3.10799878E-05
   5.38920021        -3.00886713E-05
   5.40119982        -2.88888841E-05
   5.41319990        -2.75326038E-05
   5.42519999        -2.60817433E-05
   5.43720007        -2.46057389E-05
   5.44920015        -2.31784888E-05
   5.46120024        -2.18748428E-05
   5.47319984        -2.07668054E-05
   5.48519993        -1.99196784E-05
   5.49720001        -1.93883679E-05
   5.50920010        -1.92141088E-05
   5.52120018        -1.94217882E-05
   5.53319979        -2.00180930E-05
   5.54519987        -2.09905647E-05
   5.55719995        -2.23076986E-05
   5.56920004        -2.39200526E-05
   5.58120012        -2.57623669E-05
   5.59320021        -2.77565414E-05
   5.60519981        -2.98153318E-05
   5.61719990        -3.18465572E-05
   5.62919998        -3.37575839E-05
   5.64120007        -3.54597869E-05
   5.65320015        -3.68728179E-05
   5.66520023        -3.79283847E-05
   5.67719984        -3.85733765E-05
   5.68919992        -3.87721411E-05
   5.70120001        -3.85079147E-05
   5.71320009        -3.77832439E-05
   5.72520018        -3.66194799E-05
   5.73719978        -3.50554546E-05
   5.74919987        -3.31453739E-05
   5.76119995        -3.09561910E-05
   5.77320004        -2.85645092E-05
   5.78520012        -2.60533598E-05
   5.79720020        -2.35088792E-05
   5.80919981        -2.10171984E-05
   5.82119989        -1.86615889E-05
   5.83319998        -1.65200127E-05
   5.84520006        -1.46631637E-05
   5.85720015        -1.31529678E-05
   5.86920023        -1.20415980E-05
   5.88119984        -1.13709084E-05
   5.89319992        -1.11722347E-05
   5.90520000        -1.14664717E-05
   5.91720009        -1.22643341E-05
   5.92920017        -1.35666896E-05
   5.94119978        -1.53649198E-05
   5.95319986        -1.76412304E-05
   5.96519995        -2.03688869E-05
   5.97720003        -2.35123753E-05
   5.98920012        -2.70275123E-05
   6.00120020        -3.08615672E-05
   6.01319981        -3.49534421E-05
   6.02519989        -3.92340189E-05
   6.03719997        -4.36267292E-05
   6.04920006        -4.80484596E-05
   6.06120014        -5.24108073E-05
   6.07320023        -5.66217641E-05
   6.08519983        -6.05878085E-05
   6.09719992        -6.42163577E-05
   6.10920000        -6.74185649E-05
   6.12120008        -7.01122772E-05
   6.13320017        -7.22251207E-05
   6.14519978        -7.36974398E-05
   6.15719986        -7.44850258E-05
   6.16919994        -7.45613870E-05
   6.18120003        -7.39194438E-05
   6.19320011        -7.25725622E-05
   6.20520020        -7.05547063E-05
   6.21719980        -6.79198056E-05
   6.22919989        -6.47401685E-05
   6.24119997        -6.11041833E-05
   6.25320005        -5.71131932E-05
   6.26520014        -5.28778437E-05
   6.27720022        -4.85139753E-05
   6.28919983        -4.41383454E-05
   6.30119991        -3.98643097E-05
   6.31320000        -3.57977478E-05
   6.32520008        -3.20333966E-05
   6.33720016        -2.86517861E-05
   6.34919977        -2.57169031E-05
   6.36119986        -2.32746806E-05
   6.37319994        -2.13523654E-05
   6.38520002        -1.99587248E-05
   6.39720011        -1.90850697E-05
   6.40920019        -1.87069545E-05
   6.42119980        -1.87864480E-05
   6.43319988        -1.92747812E-05
   6.44519997        -2.01152379E-05
   6.45720005        -2.12460727E-05
   6.46920013        -2.26033408E-05
   6.48120022        -2.41234684E-05
   6.49319983        -2.57454885E-05
   6.50519991        -2.74128415E-05
   6.51719999        -2.90747412E-05
   6.52920008        -3.06870716E-05
   6.54120016        -3.22128908E-05
   6.55319977        -3.36225494E-05
   6.56519985        -3.48935573E-05
   6.57719994        -3.60102458E-05
   6.58920002        -3.69632980E-05
   6.60120010        -3.77492688E-05
   6.61320019        -3.83701008E-05
   6.62519979        -3.88327026E-05
   6.63719988        -3.91485846E-05
   6.64919996        -3.93335831E-05
   6.66120005        -3.94075832E-05
   6.67320013        -3.93942573E-05
   6.68520021        -3.93207265E-05
   6.69719982        -3.92171169E-05
   6.70919991        -3.91159665E-05
   6.72119999        -3.90514033E-05
   6.73320007        -3.90581481E-05
   6.74520016        -3.91702670E-05
   6.75719976        -3.94197705E-05
   6.76919985        -3.98350494E-05
   6.78119993        -4.04392777E-05
   6.79320002        -4.12487898E-05
   6.80520010        -4.22716403E-05
   6.81720018        -4.35062975E-05
   6.82919979        -4.49407453E-05
   6.84119987        -4.65519261E-05
   6.85319996        -4.83056720E-05
   6.86520004        -5.01572031E-05
   6.87720013        -5.20521135E-05
   6.88920021        -5.39279536E-05
   6.90119982        -5.57162566E-05
   6.91319990        -5.73450488E-05
   6.92519999        -5.87416289E-05
   6.93720007        -5.98355909E-05
   6.94920015        -6.05618879E-05
   6.96120024        -6.08637929E-05
   6.97319984        -6.06956528E-05
   6.98519993        -6.00252351E-05
   6.99720001        -5.88355651E-05
   7.00920010        -5.71261662E-05
   7.02120018        -5.49136494E-05
   7.03319979        -5.22315204E-05
   7.04519987        -4.91293649E-05
   7.05719995        -4.56712987E-05
   7.06920004        -4.19338758E-05
   7.08120012        -3.80034689E-05
   7.09320021        -3.39733306E-05
   7.10519981        -2.99403982E-05
   7.11719990        -2.60020752E-05
   7.12919998        -2.22530653E-05
   7.14120007        -1.87824480E-05
   7.15320015        -1.56710794E-05
   7.16520023        -1.29894315E-05
   7.17719984        -1.07959195E-05
   7.18919992        -9.13576969E-06
   7.20120001        -8.04040610E-06
   7.21320009        -7.52734286E-06
   7.22520018        -7.60052990E-06
   7.23719978        -8.25108145E-06
   7.24919987        -9.45831107E-06
   7.26119995        -1.11909712E-05
   7.27320004        -1.34086376E-05
   7.28520012        -1.60631589E-05
   7.29720020        -1.91000872E-05
   7.30919981        -2.24600990E-05
   7.32119989        -2.60802935E-05
   7.33319998        -2.98954565E-05
   7.34520006        -3.38391947E-05
   7.35720015        -3.78449949E-05
   7.36920023        -4.18472337E-05
   7.38119984        -4.57820897E-05
   7.39319992        -4.95884779E-05
   7.40520000        -5.32089107E-05
   7.41720009        -5.65903611E-05
   7.42920017        -5.96850987E-05
   7.44119978        -6.24514869E-05
   7.45319986        -6.48547357E-05
   7.46519995        -6.68675348E-05
   7.47720003        -6.84706174E-05
   7.48920012        -6.96531133E-05
   7.50120020        -7.04127888E-05
   7.51319981        -7.07559739E-05
   7.52519989        -7.06973151E-05
   7.53719997        -7.02593024E-05
   7.54920006        -6.94714690E-05
   7.56120014        -6.83695034E-05
   7.57320023        -6.69940273E-05
   7.58519983        -6.53893585E-05
   7.59719992        -6.36020850E-05
   7.60920000        -6.16796751E-05
   7.62120008        -5.96690188E-05
   7.63320017        -5.76151760E-05
   7.64519978        -5.55601364E-05
   7.65719986        -5.35418112E-05
   7.66919994        -5.15932443E-05
   7.68120003        -4.97420515E-05
   7.69320011        -4.80100898E-05
   7.70520020        -4.64134137E-05
   7.71719980        -4.49624240E-05
   7.72919989        -4.36622759E-05
   7.74119997        -4.25134094E-05
   7.75320005        -4.15122340E-05
   7.76520014        -4.06519102E-05
   7.77720022        -3.99231685E-05
   7.78919983        -3.93150840E-05
   7.80119991        -3.88158805E-05
   7.81320000        -3.84135928E-05
   7.82520008        -3.80967140E-05
   7.83720016        -3.78546611E-05
   7.84919977        -3.76782118E-05
   7.86119986        -3.75597738E-05
   7.87319994        -3.74935844E-05
   7.88520002        -3.74757874E-05
   7.89720011        -3.75044328E-05
   7.90920019        -3.75793716E-05
   7.92119980        -3.77020915E-05
   7.93319988        -3.78754521E-05
   7.94519997        -3.81033678E-05
   7.95720005        -3.83904116E-05
   7.96920013        -3.87413966E-05
   7.98120022        -3.91608810E-05
   7.99319983        -3.96526593E-05
   8.00520039        -4.02192563E-05
   8.01720047        -4.08614105E-05
   8.02919960        -4.15776085E-05
   8.04119968        -4.23636739E-05
   8.05319977        -4.32124725E-05
   8.06519985        -4.41137199E-05
   8.07719994        -4.50540028E-05
   8.08920002        -4.60169176E-05
   8.10120010        -4.69834340E-05
   8.11320019        -4.79324772E-05
   8.12520027        -4.88416590E-05
   8.13720036        -4.96881657E-05
   8.14920044        -5.04497693E-05
   8.16119957        -5.11059079E-05
   8.17319965        -5.16387117E-05
   8.18519974        -5.20340509E-05
   8.19719982        -5.22823502E-05
   8.20919991        -5.23793169E-05
   8.22119999        -5.23263661E-05
   8.23320007        -5.21308139E-05
   8.24520016        -5.18057641E-05
   8.25720024        -5.13697014E-05
   8.26920033        -5.08457815E-05
   8.28120041        -5.02608746E-05
   8.29319954        -4.96444009E-05
   8.30519962        -4.90269376E-05
   8.31719971        -4.84388038E-05
   8.32919979        -4.79085575E-05
   8.34119987        -4.74615736E-05
   8.35319996        -4.71186941E-05
   8.36520004        -4.68951403E-05
   8.37720013        -4.67995960E-05
   8.38920021        -4.68336220E-05
   8.40120029        -4.69913975E-05
   8.41320038        -4.72597603E-05
   8.42520046        -4.76186651E-05
   8.43719959        -4.80418857E-05
   8.44919968        -4.84980919E-05
   8.46119976        -4.89521481E-05
   8.47319984        -4.93666266E-05
   8.48519993        -4.97034780E-05
   8.49720001        -4.99257585E-05
   8.50920010        -4.99993548E-05
   8.52120018        -4.98946210E-05
   8.53320026        -4.95878267E-05
   8.54520035        -4.90623897E-05
   8.55720043        -4.83097538E-05
   8.56919956        -4.73299406E-05
   8.58119965        -4.61317140E-05
   8.59319973        -4.47323400E-05
   8.60519981        -4.31569679E-05
   8.61719990        -4.14376773E-05
   8.62919998        -3.96122159E-05
   8.64120007        -3.77225442E-05
   8.65320015        -3.58132093E-05
   8.66520023        -3.39296639E-05
   8.67720032        -3.21166335E-05
   8.68920040        -3.04165715E-05
   8.70119953        -2.88682986E-05
   8.71319962        -2.75058992E-05
   8.72519970        -2.63578968E-05
   8.73719978        -2.54467323E-05
   8.74919987        -2.47885710E-05
   8.76119995        -2.43933646E-05
   8.77320004        -2.42652040E-05
   8.78520012        -2.44028342E-05
   8.79720020        -2.48003053E-05
   8.80920029        -2.54476927E-05
   8.82120037        -2.63318216E-05
   8.83320045        -2.74369213E-05
   8.84519958        -2.87451858E-05
   8.85719967        -3.02372246E-05
   8.86919975        -3.18923849E-05
   8.88119984        -3.36889207E-05
   8.89319992        -3.56040873E-05
   8.90520000        -3.76141033E-05
   8.91720009        -3.96941141E-05
   8.92920017        -4.18180862E-05
   8.94120026        -4.39587930E-05
   8.95320034        -4.60877709E-05
   8.96520042        -4.81754432E-05
   8.97719955        -5.01913164E-05
   8.98919964        -5.21043257E-05
   9.00119972        -5.38832828E-05
   9.01319981        -5.54974831E-05
   9.02519989        -5.69173935E-05
   9.03719997        -5.81153945E-05
   9.04920006        -5.90666168E-05
   9.06120014        -5.97497237E-05
   9.07320023        -6.01476677E-05
   9.08520031        -6.02483815E-05