 -0.622799993       0.00000000    
 -0.610800028       0.00000000    
 -0.598800004       0.00000000    
 -0.586799979       1.13299776E-16
 -0.574800014       7.57677801E-16
 -0.562799990       2.75930512E-15
 -0.550800025       7.06369108E-15
 -0.538800001       1.37374412E-14
 -0.526799977       2.02222967E-14
 -0.514800012       1.93919096E-14
 -0.502799988      -1.37015647E-15
 -0.490799993      -5.85669683E-14
 -0.478799999      -1.67526054E-13
 -0.466800004      -3.34533725E-13
 -0.454800010      -5.49013200E-13
 -0.442799985      -7.80402490E-13
 -0.430799991      -9.84596844E-13
 -0.418799996      -1.12258575E-12
 -0.406800002      -1.18935818E-12
 -0.394800007      -1.24561657E-12
 -0.382800013      -1.44061607E-12
 -0.370799989      -2.01389318E-12
 -0.358799994      -3.26817805E-12
 -0.346799999      -5.51491361E-12
 -0.334800005      -9.00500594E-12
 -0.322800010      -1.38667177E-11
 -0.310799986      -2.00759739E-11
 -0.298799992      -2.74793001E-11
 -0.286799997      -3.58763158E-11
 -0.274800003      -4.51506228E-11
 -0.262800008      -5.54202448E-11
 -0.250800014      -6.71676742E-11
 -0.238800004      -8.13092441E-11
 -0.226799995      -9.91750640E-11
 -0.214800000      -1.22392180E-10
 -0.202800006      -1.52688279E-10
 -0.190799996      -1.91655622E-10
 -0.178800002      -2.40527209E-10
 -0.166800007      -3.00017122E-10
 -0.154799998      -3.70263209E-10
 -0.142800003      -4.50887994E-10
 -0.130799994      -5.41166945E-10
 -0.118799999      -6.40269116E-10
 -0.106799997      -7.47520990E-10
  -9.48000029E-02  -8.62636740E-10
  -8.28000009E-02  -9.85865944E-10
  -7.07999989E-02  -1.11801934E-09
  -5.88000007E-02  -1.26035071E-09
  -4.67999987E-02  -1.41429179E-09
  -3.48000005E-02  -1.58105573E-09
  -2.28000004E-02  -1.76114290E-09
  -1.08000003E-02  -1.95380911E-09
   1.20000006E-03  -2.15657758E-09
   1.31999999E-02  -2.36489806E-09
   2.52000000E-02  -2.57206345E-09
   3.72000001E-02  -2.76948642E-09
   4.91999984E-02  -2.94738700E-09
   6.12000003E-02  -3.09588644E-09
   7.32000023E-02  -3.20640225E-09
   8.51999968E-02  -3.27316152E-09
   9.71999988E-02  -3.29459482E-09
  0.109200001      -3.27436944E-09
  0.121200003      -3.22187166E-09
  0.133200005      -3.15205995E-09
  0.145199999      -3.08472026E-09
  0.157199994      -3.04325165E-09
  0.169200003      -3.05313330E-09
  0.181199998      -3.14016724E-09
  0.193200007      -3.32847949E-09
  0.205200002      -3.63813024E-09
  0.217199996      -4.08213463E-09
  0.229200006      -4.66274930E-09
  0.241200000      -5.36712497E-09
  0.253199995      -6.16277207E-09
  0.265199989      -6.99371494E-09
  0.277200013      -7.77853337E-09
  0.289200008      -8.41163139E-09
  0.301200002      -8.76889761E-09
  0.313199997      -8.71844019E-09
  0.325199991      -8.13629164E-09
  0.337199986      -6.92613655E-09
  0.349200010      -5.04118702E-09
  0.361200005      -2.50571075E-09
  0.373199999       5.66721448E-10
  0.385199994       3.96123978E-09
  0.397199988       7.35868788E-09
  0.409200013       1.03439097E-08
  0.421200007       1.24268906E-08
  0.433200002       1.30774582E-08
  0.445199996       1.17732020E-08
  0.457199991       8.05890199E-09
  0.469199985       1.61431424E-09
  0.481200010      -7.67465913E-09
  0.493200004      -1.96479579E-08
  0.505200028      -3.38145085E-08
  0.517199993      -4.93153074E-08
  0.529200017      -6.49150991E-08
  0.541199982      -7.90300803E-08
  0.553200006      -8.97965577E-08
  0.565199971      -9.51820667E-08
  0.577199996      -9.31359878E-08
  0.589200020      -8.17720220E-08
  0.601199985      -5.95700094E-08
  0.613200009      -2.55807642E-08
  0.625199974       2.03862456E-08
  0.637199998       7.76136631E-08
  0.649200022       1.44387201E-07
  0.661199987       2.17986468E-07
  0.673200011       2.94771240E-07
  0.685199976       3.70372447E-07
  0.697200000       4.39989236E-07
  0.709200025       4.98783891E-07
  0.721199989       5.42355053E-07
  0.733200014       5.67260201E-07
  0.745199978       5.71548810E-07
  0.757200003       5.55259078E-07
  0.769200027       5.20827200E-07
  0.781199992       4.73358199E-07
  0.793200016       4.20711018E-07
  0.805199981       3.73357608E-07
  0.817200005       3.43991019E-07
  0.829200029       3.46872895E-07
  0.841199994       3.96931028E-07
  0.853200018       5.08639118E-07
  0.865199983       6.94732535E-07
  0.877200007       9.64833589E-07
  0.889199972       1.32407695E-06
  0.901199996       1.77183927E-06
  0.913200021       2.30067872E-06
  0.925199986       2.89559330E-06
  0.937200010       3.53369114E-06
  0.949199975       4.18435229E-06
  0.961199999       4.80992912E-06
  0.973200023       5.36700190E-06
  0.985199988       5.80817095E-06
  0.997200012       6.08431174E-06
   1.00919998       6.14720602E-06
   1.02119994       5.95239271E-06
   1.03320003       5.46208003E-06
   1.04519999       4.64793675E-06
   1.05719995       3.49355628E-06
   1.06920004       1.99642295E-06
   1.08120000       1.69200021E-07
   1.09319997      -1.95978510E-06
   1.10520005      -4.34695266E-06
   1.11720002      -6.93481934E-06
   1.12919998      -9.65426443E-06
   1.14119995      -1.24276430E-05
   1.15320003      -1.51725862E-05
   1.16520000      -1.78063474E-05
   1.17719996      -2.02504161E-05
   1.18920004      -2.24352007E-05
   1.20120001      -2.43044269E-05
   1.21319997      -2.58190794E-05
   1.22520006      -2.69605425E-05
   1.23720002      -2.77327872E-05
   1.24919999      -2.81634057E-05
   1.26119995      -2.83033751E-05
   1.27320004      -2.82255460E-05
   1.28520000      -2.80218464E-05
   1.29719996      -2.77993367E-05
   1.30920005      -2.76752362E-05
   1.32120001      -2.77711824E-05
   1.33319998      -2.82069577E-05
   1.34519994      -2.90940134E-05
   1.35720003      -3.05289941E-05
   1.36919999      -3.25877518E-05
   1.38119996      -3.53199466E-05
   1.39320004      -3.87446416E-05
   1.40520000      -4.28470485E-05
   1.41719997      -4.75765846E-05
   1.42920005      -5.28464370E-05
   1.44120002      -5.85346097E-05
   1.45319998      -6.44864849E-05
   1.46519995      -7.05188140E-05
   1.47720003      -7.64250435E-05
   1.48920000      -8.19816778E-05
   1.50119996      -8.69555952E-05
   1.51320004      -9.11119569E-05
   1.52520001      -9.42223778E-05
   1.53719997      -9.60731195E-05
   1.54920006      -9.64729334E-05
   1.56120002      -9.52602422E-05
   1.57319999      -9.23094194E-05
   1.58519995      -8.75358528E-05
   1.59720004      -8.08996047E-05
   1.60920000      -7.24075289E-05
   1.62119997      -6.21137588E-05
   1.63320005      -5.01184877E-05
   1.64520001      -3.65652377E-05
   1.65719998      -2.16365461E-05
   1.66919994      -5.54841336E-06
   1.68120003       1.14562799E-05
   1.69319999       2.91151428E-05
   1.70519996       4.71540188E-05
   1.71720004       6.52948802E-05
   1.72920001       8.32634323E-05
   1.74119997       1.00796198E-04
   1.75320005       1.17646719E-04
   1.76520002       1.33590860E-04
   1.77719998       1.48430699E-04
   1.78919995       1.61997421E-04
   1.80120003       1.74152752E-04
   1.81320000       1.84789285E-04
   1.82519996       1.93829779E-04
   1.83720005       2.01225528E-04
   1.84920001       2.06954181E-04
   1.86119998       2.11017032E-04
   1.87320006       2.13436244E-04
   1.88520002       2.14252170E-04
   1.89719999       2.13520660E-04
   1.90919995       2.11310951E-04
   1.92120004       2.07703866E-04
   1.93320000       2.02790427E-04
   1.94519997       1.96670924E-04
   1.95720005       1.89454193E-04
   1.96920002       1.81257245E-04
   1.98119998       1.72204789E-04
   1.99319994       1.62428769E-04
   2.00519991       1.52067616E-04
   2.01719999       1.41265249E-04
   2.02920008       1.30169617E-04
   2.04119992       1.18930773E-04
   2.05320001       1.07698717E-04
   2.06520009       9.66206717E-05
   2.07719994       8.58382336E-05
   2.08920002       7.54844077E-05
   2.10120010       6.56806733E-05
   2.11319995       5.65342525E-05
   2.12520003       4.81357674E-05
   2.13720012       4.05573846E-05
   2.14919996       3.38515893E-05
   2.16120005       2.80506010E-05
   2.17319989       2.31665163E-05
   2.18519998       1.91921172E-05
   2.19720006       1.61022999E-05
   2.20919991       1.38560117E-05
   2.22119999       1.23986083E-05
   2.23320007       1.16644742E-05
   2.24519992       1.15797629E-05
   2.25720000       1.20651230E-05
   2.26920009       1.30383060E-05
   2.28119993       1.44165142E-05
   2.29320002       1.61184271E-05
   2.30520010       1.80658753E-05
   2.31719995       2.01850817E-05
   2.32920003       2.24075375E-05
   2.34120011       2.46704967E-05
   2.35319996       2.69171596E-05
   2.36520004       2.90966127E-05
   2.37719989       3.11635667E-05
   2.38919997       3.30780094E-05
   2.40120006       3.48048015E-05
   2.41319990       3.63132931E-05
   2.42519999       3.75770251E-05
   2.43720007       3.85734966E-05
   2.44919991       3.92840848E-05
   2.46120000       3.96940741E-05
   2.47320008       3.97927797E-05
   2.48519993       3.95737916E-05
   2.49720001       3.90352616E-05
   2.50920010       3.81802092E-05
   2.52119994       3.70168091E-05
   2.53320003       3.55585908E-05
   2.54520011       3.38245736E-05
   2.55719995       3.18392158E-05
   2.56920004       2.96322050E-05
   2.58119988       2.72380639E-05
   2.59319997       2.46955296E-05
   2.60520005       2.20467609E-05
   2.61719990       1.93363576E-05
   2.62919998       1.66102345E-05
   2.64120007       1.39143940E-05
   2.65319991       1.12936423E-05
   2.66520000       8.79032723E-06
   2.67720008       6.44315105E-06
   2.68919992       4.28611247E-06
   2.70120001       2.34765776E-06
   2.71320009       6.50067818E-07
   2.72519994      -7.90885224E-07
   2.73720002      -1.96598171E-06
   2.74920011      -2.87232615E-06
   2.76119995      -3.51285621E-06
   2.77320004      -3.89563229E-06
   2.78520012      -4.03296917E-06
   2.79719996      -3.94046583E-06
   2.80920005      -3.63601703E-06
   2.82119989      -3.13886403E-06
   2.83319998      -2.46875697E-06
   2.84520006      -1.64528205E-06
   2.85719991      -6.87385068E-07
   2.86919999       3.86881339E-07
   2.88120008       1.56039664E-06
   2.89319992       2.81681537E-06
   2.90520000       4.14025499E-06
   2.91720009       5.51487983E-06
   2.92919993       6.92444928E-06
   2.94120002       8.35188439E-06
   2.95320010       9.77892887E-06
   2.96519995       1.11859426E-05
   2.97720003       1.25518682E-05
   2.98920012       1.38544019E-05
   3.00119996       1.50703554E-05
   3.01320004       1.61762055E-05
   3.02519989       1.71487973E-05
   3.03719997       1.79661474E-05
   3.04920006       1.86083307E-05
   3.06119990       1.90583378E-05
   3.07319999       1.93029300E-05
   3.08520007       1.93333726E-05
   3.09719992       1.91460695E-05
   3.10920000       1.87430160E-05
   3.12120008       1.81321157E-05
   3.13319993       1.73272947E-05
   3.14520001       1.63484492E-05
   3.15720010       1.52212142E-05
   3.16919994       1.39765789E-05
   3.18120003       1.26503483E-05
   3.19320011       1.12824646E-05
   3.20519996       9.91621164E-06
   3.21720004       8.59730062E-06
   3.22919989       7.37286291E-06
   3.24119997       6.29034048E-06
   3.25320005       5.39629400E-06
   3.26519990       4.73515547E-06
   3.27719998       4.34792582E-06
   3.28920007       4.27085160E-06
   3.30119991       4.53412349E-06
   3.31320000       5.16062664E-06
   3.32520008       6.16479610E-06
   3.33719993       7.55163364E-06
   3.34920001       9.31593058E-06
   3.36120009       1.14417644E-05
   3.37319994       1.39022823E-05
   3.38520002       1.66598547E-05
   3.39720011       1.96665751E-05
   3.40919995       2.28651497E-05
   3.42120004       2.61901496E-05
   3.43319988       2.95696209E-05
   3.44519997       3.29269715E-05
   3.45720005       3.61831517E-05
   3.46919990       3.92589754E-05
   3.48119998       4.20775650E-05
   3.49320006       4.45668302E-05
   3.50519991       4.66618403E-05
   3.51719999       4.83070871E-05
   3.52920008       4.94584856E-05
   3.54119992       5.00850801E-05
   3.55320001       5.01703871E-05
   3.56520009       4.97132787E-05
   3.57719994       4.87284124E-05
   3.58920002       4.72461397E-05
   3.60120010       4.53118701E-05
   3.61319995       4.29849533E-05
   3.62520003       4.03369886E-05
   3.63720012       3.74496813E-05
   3.64919996       3.44122964E-05
   3.66120005       3.13187302E-05
   3.67319989       2.82643359E-05
   3.68519998       2.53426388E-05
   3.69720006       2.26419834E-05
   3.70919991       2.02422925E-05
   3.72119999       1.82120566E-05
   3.73320007       1.66056871E-05
   3.74519992       1.54613062E-05
   3.75720000       1.47991268E-05
   3.76920009       1.46204875E-05
   3.78119993       1.49075959E-05
   3.79320002       1.56240330E-05
   3.80520010       1.67160160E-05
   3.81719995       1.81143951E-05
   3.82920003       1.97373138E-05
   3.84120011       2.14934571E-05
   3.85319996       2.32857274E-05
   3.86520004       2.50152243E-05
   3.87719989       2.65853469E-05
   3.88919997       2.79058258E-05
   3.90120006       2.88965293E-05
   3.91319990       2.94908314E-05
   3.92519999       2.96384478E-05
   3.93720007       2.93075627E-05
   3.94919991       2.84861744E-05
   3.96120000       2.71826175E-05
   3.97320008       2.54252391E-05
   3.98519993       2.32612274E-05
   3.99720001       2.07547000E-05
   4.00920010       1.79841136E-05
   4.02120018       1.50391515E-05
   4.03319979       1.20171990E-05
   4.04519987       9.01958992E-06
   4.05719995       6.14780902E-06
   4.06920004       3.49974380E-06
   4.08120012       1.16622380E-06
   4.09320021      -7.72105579E-07
   4.10519981      -2.24743053E-06
   4.11719990      -3.20688059E-06
   4.12919998      -3.61405546E-06
   4.14120007      -3.44995919E-06
   4.15320015      -2.71334466E-06
   4.16520023      -1.42049851E-06
   4.17719984       3.95491639E-07
   4.18919992       2.68593203E-06
   4.20120001       5.38812810E-06
   4.21320009       8.42733516E-06
   4.22520018       1.17190002E-05
   4.23719978       1.51712375E-05
   4.24919987       1.86874786E-05
   4.26119995       2.21692389E-05
   4.27320004       2.55189498E-05
   4.28520012       2.86427839E-05
   4.29720020       3.14534118E-05
   4.30919981       3.38726168E-05
   4.32119989       3.58336911E-05
   4.33319998       3.72835239E-05
   4.34520006       3.81843056E-05
   4.35720015       3.85147978E-05
   4.36920023       3.82710241E-05
   4.38119984       3.74664342E-05
   4.39319992       3.61314414E-05
   4.40520000       3.43123393E-05
   4.41720009       3.20696599E-05
   4.42920017       2.94759484E-05
   4.44119978       2.66131374E-05
   4.45319986       2.35695497E-05
   4.46519995       2.04366679E-05
   4.47720003       1.73058615E-05
   4.48920012       1.42651579E-05
   4.50120020       1.13962324E-05
   4.51319981       8.77174807E-06
   4.52519989       6.45316186E-06
   4.53719997       4.48906849E-06
   4.54920006       2.91414972E-06
   4.56120014       1.74873776E-06
   4.57320023       9.98977157E-07
   4.58519983       6.57537498E-07
   4.59719992       7.04781883E-07
   4.60920000       1.11030442E-06
   4.62120008       1.83471514E-06
   4.63320017       2.83156055E-06
   4.64519978       4.04927141E-06
   4.65719986       5.43304850E-06
   4.66919994       6.92661024E-06
   4.68120003       8.47376396E-06
   4.69320011       1.00197740E-05
   4.70520020       1.15125249E-05
   4.71719980       1.29035243E-05
   4.72919989       1.41487535E-05
   4.74119997       1.52094290E-05
   4.75320005       1.60527179E-05
   4.76520014       1.66524296E-05
   4.77720022       1.69897176E-05
   4.78919983       1.70537733E-05
   4.80119991       1.68425158E-05
   4.81320000       1.63631958E-05
   4.82520008       1.56328661E-05
   4.83720016       1.46786533E-05
   4.84919977       1.35377040E-05
   4.86119986       1.22567535E-05
   4.87319994       1.08912391E-05
   4.88520002       9.50390040E-06
   4.89720011       8.16286865E-06
   4.90920019       6.93925267E-06
   4.92119980       5.90429227E-06
   4.93319988       5.12618772E-06
   4.94519997       4.66673873E-06
   4.95720005       4.57798296E-06
   4.96920013       4.89902095E-06
   4.98120022       5.65322625E-06
   4.99319983       6.84605993E-06
   5.00519991       8.46364765E-06
   5.01719999       1.04722612E-05
   5.02920008       1.28188167E-05
   5.04120016       1.54323861E-05
   5.05319977       1.82267213E-05
   5.06519985       2.11036986E-05
   5.07719994       2.39574765E-05
   5.08920002       2.66792485E-05
   5.10120010       2.91622673E-05
   5.11320019       3.13069213E-05
   5.12519979       3.30255789E-05
   5.13719988       3.42469211E-05
   5.14919996       3.49195361E-05
   5.16120005       3.50146038E-05
   5.17320013       3.45274457E-05
   5.18520021       3.34779324E-05
   5.19719982       3.19096762E-05
   5.20919991       2.98880495E-05
   5.22119999       2.74971917E-05
   5.23320007       2.48360757E-05
   5.24520016       2.20139336E-05
   5.25719976       1.91452382E-05
   5.26919985       1.63445202E-05
   5.28119993       1.37212837E-05
   5.29320002       1.13752903E-05
   5.30520010       9.39241090E-06
   5.31720018       7.84126405E-06
   5.32919979       6.77076832E-06
   5.34119987       6.20869832E-06
   5.35319996       6.16127136E-06
   5.36520004       6.61376362E-06
   5.37720013       7.53205268E-06
   5.38920021       8.86498401E-06
   5.40119982       1.05474037E-05
   5.41319990       1.25036586E-05
   5.42519999       1.46513867E-05
   5.43720007       1.69053637E-05
   5.44920015       1.91812287E-05
   5.46120024       2.13989224E-05
   5.47319984       2.34856361E-05
   5.48519993       2.53782418E-05
   5.49720001       2.70250457E-05
   5.50920010       2.83868922E-05
   5.52120018       2.94375950E-05
   5.53319979       3.01637683E-05
   5.54519987       3.05641006E-05
   5.55719995       3.06481998E-05
   5.56920004       3.04351252E-05
   5.58120012       2.99517014E-05
   5.59320021       2.92307486E-05
   5.60519981       2.83093468E-05
   5.61719990       2.72271918E-05
   5.62919998       2.60251527E-05
   5.64120007       2.47440348E-05
   5.65320015       2.34236122E-05
   5.66520023       2.21018654E-05
   5.67719984       2.08144684E-05
   5.68919992       1.95944431E-05
   5.70120001       1.84719393E-05
   5.71320009       1.74740944E-05
   5.72520018       1.66249265E-05
   5.73719978       1.59451993E-05
   5.74919987       1.54522604E-05
   5.76119995       1.51598060E-05
   5.77320004       1.50775841E-05
   5.78520012       1.52110651E-05
   5.79720020       1.55610815E-05
   5.80919981       1.61235021E-05
   5.82119989       1.68889528E-05
   5.83319998       1.78426508E-05
   5.84520006       1.89643688E-05
   5.85720015       2.02285846E-05
   5.86920023       2.16048102E-05
   5.88119984       2.30581245E-05
   5.89319992       2.45498941E-05
   5.90520000       2.60386696E-05
   5.91720009       2.74812210E-05
   5.92920017       2.88336851E-05
   5.94119978       3.00527790E-05
   5.95319986       3.10970245E-05
   5.96519995       3.19279716E-05
   5.97720003       3.25113360E-05
   5.98920012       3.28180686E-05
   6.00120020       3.28253227E-05
   6.01319981       3.25172477E-05
   6.02519989       3.18856692E-05
   6.03719997       3.09305942E-05
   6.04920006       2.96605413E-05
   6.06120014       2.80926688E-05
   6.07320023       2.62527228E-05
   6.08519983       2.41747148E-05
   6.09719992       2.19004123E-05
   6.10920000       1.94785425E-05
   6.12120008       1.69637569E-05
   6.13320017       1.44153555E-05
   6.14519978       1.18957660E-05
   6.15719986       9.46884848E-06
   6.16919994       7.19805530E-06
   6.18120003       5.14449448E-06
   6.19320011       3.36499465E-06
   6.20520020       1.91023310E-06
   6.21719980       8.23009771E-07
   6.22919989       1.36748469E-07
   6.24119997      -1.25707615E-07
   6.25320005       4.70614445E-08
   6.26520014       6.54605230E-07
   6.27720022       1.68458791E-06
   6.28919983       3.11320673E-06
   6.30119991       4.90602224E-06
   6.31320000       7.01917179E-06
   6.32520008       9.40090104E-06
   6.33720016       1.19933429E-05
   6.34919977       1.47344563E-05
   6.36119986       1.75600217E-05
   6.37319994       2.04056323E-05
   6.38520002       2.32085513E-05
   6.39720011       2.59094177E-05
   6.40920019       2.84536982E-05
   6.42119980       3.07928822E-05
   6.43319988       3.28853785E-05
   6.44519997       3.46971356E-05
   6.45720005       3.62019600E-05
   6.46920013       3.73816110E-05
   6.48120022       3.82256330E-05
   6.49319983       3.87309847E-05
   6.50519991       3.89015258E-05
   6.51719999       3.87473519E-05
   6.52920008       3.82840335E-05
   6.54120016       3.75317868E-05
   6.55319977       3.65146225E-05
   6.56519985       3.52595125E-05
   6.57719994       3.37955644E-05
   6.58920002       3.21532643E-05
   6.60120010       3.03637844E-05
   6.61320019       2.84583984E-05
   6.62519979       2.64679620E-05
   6.63719988       2.44224902E-05
   6.64919996       2.23508287E-05
   6.66120005       2.02803822E-05
   6.67320013       1.82369367E-05
   6.68520021       1.62445212E-05
   6.69719982       1.43253155E-05
   6.70919991       1.24996159E-05
   6.72119999       1.07858141E-05
   6.73320007       9.20040566E-06
   6.74520016       7.75800527E-06
   6.75719976       6.47138040E-06
   6.76919985       5.35147092E-06
   6.78119993       4.40741360E-06
   6.79320002       3.64655284E-06
   6.80520010       3.07443520E-06
   6.81720018       2.69478664E-06
   6.82919979       2.50946982E-06
   6.84119987       2.51841288E-06
   6.85319996       2.71951785E-06
   6.86520004       3.10854307E-06
   6.87720013       3.67896268E-06
   6.88920021       4.42181226E-06
   6.90119982       5.32552986E-06
   6.91319990       6.37580433E-06
   6.92519999       7.55546080E-06
   6.93720007       8.84440306E-06
   6.94920015       1.02196445E-05
   6.96120024       1.16554584E-05
   6.97319984       1.31236748E-05
   6.98519993       1.45941576E-05
   6.99720001       1.60354575E-05
   7.00920010       1.74156539E-05
   7.02120018       1.87033693E-05
   7.03319979       1.98689268E-05
   7.04519987       2.08855854E-05
   7.05719995       2.17308134E-05
   7.06920004       2.23875031E-05
   7.08120012       2.28450426E-05
   7.09320021       2.31001632E-05
   7.10519981       2.31574777E-05
   7.11719990       2.30296409E-05
   7.12919998       2.27371002E-05
   7.14120007       2.23073730E-05
   7.15320015       2.17739471E-05
   7.16520023       2.11747611E-05
   7.17719984       2.05503984E-05
   7.18919992       1.99420811E-05
   7.20120001       1.93895667E-05
   7.21320009       1.89290859E-05
   7.22520018       1.85914487E-05
   7.23719978       1.84004202E-05
   7.24919987       1.83714637E-05
   7.26119995       1.85109293E-05
   7.27320004       1.88157264E-05
   7.28520012       1.92734915E-05
   7.29720020       1.98632570E-05
   7.30919981       2.05565520E-05
   7.32119989       2.13188960E-05
   7.33319998       2.21115806E-05
   7.34520006       2.28936533E-05
   7.35720015       2.36239921E-05
   7.36920023       2.42633450E-05
   7.38119984       2.47762509E-05
   7.39319992       2.51327419E-05
   7.40520000       2.53097442E-05
   7.41720009       2.52921109E-05
   7.42920017       2.50732828E-05
   7.44119978       2.46555228E-05
   7.45319986       2.40497357E-05
   7.46519995       2.32749244E-05
   7.47720003       2.23572843E-05
   7.48920012       2.13289823E-05
   7.50120020       2.02267183E-05
   7.51319981       1.90900937E-05
   7.52519989       1.79598665E-05
   7.53719997       1.68761944E-05
   7.54920006       1.58769126E-05
   7.56120014       1.49959251E-05
   7.57320023       1.42617919E-05
   7.58519983       1.36965555E-05
   7.59719992       1.33148842E-05
   7.60920000       1.31235365E-05
   7.62120008       1.31211891E-05
   7.63320017       1.32986270E-05
   7.64519978       1.36392764E-05
   7.65719986       1.41200362E-05
   7.66919994       1.47123737E-05
   7.68120003       1.53836154E-05
   7.69320011       1.60983400E-05
   7.70520020       1.68198221E-05
   7.71719980       1.75114546E-05
   7.72919989       1.81380547E-05
   7.74119997       1.86670313E-05
   7.75320005       1.90693700E-05
   7.76520014       1.93204032E-05
   7.77720022       1.94003587E-05
   7.78919983       1.92947409E-05
   7.80119991       1.89944967E-05
   7.81320000       1.84960645E-05
   7.82520008       1.78013161E-05
   7.83720016       1.69174054E-05
   7.84919977       1.58565908E-05
   7.86119986       1.46360308E-05
   7.87319994       1.32775549E-05
   7.88520002       1.18074286E-05
   7.89720011       1.02560680E-05
   7.90920019       8.65770380E-06
   7.92119980       7.04995273E-06
   7.93319988       5.47325499E-06
   7.94519997       3.97017766E-06
   7.95720005       2.58453133E-06
   7.96920013       1.36031406E-06
   7.98120022       3.40490374E-07
   7.99319983      -4.34373419E-07
   8.00520039      -9.27567612E-07
   8.01720047      -1.10772839E-06
   8.02919960      -9.50285255E-07
   8.04119968      -4.38783673E-07
   8.05319977       4.34000953E-07
   8.06519985       1.66522682E-06
   8.07719994       3.24151233E-06
   8.08920002       5.13884834E-06
   8.10120010       7.32294347E-06
   8.11320019       9.74999421E-06
   8.12520027       1.23678710E-05
   8.13720036       1.51176564E-05
   8.14920044       1.79354920E-05
   8.16119957       2.07546436E-05
   8.17319965       2.35077023E-05
   8.18519974       2.61288169E-05
   8.19719982       2.85558690E-05
   8.20919991       3.07324990E-05
   8.22119999       3.26099143E-05
   8.23320007       3.41483756E-05
   8.24520016       3.53183641E-05
   8.25720024       3.61013554E-05
   8.26920033       3.64901935E-05
   8.28120041       3.64890802E-05
   8.29319954       3.61131824E-05
   8.30519962       3.53878895E-05
   8.31719971       3.43477841E-05
   8.32919979       3.30353032E-05
   8.34119987       3.14992649E-05
   8.35319996       2.97931874E-05
   8.36520004       2.79735177E-05
   8.37720013       2.60978522E-05
   8.38920021       2.42231581E-05
   8.40120029       2.24040868E-05
   8.41320038       2.06914119E-05
   8.42520046       1.91306408E-05
   8.43719959       1.77608654E-05
   8.44919968       1.66138470E-05
   8.46119976       1.57133854E-05
   8.47319984       1.50749520E-05
   8.48519993       1.47056244E-05
   8.49720001       1.46042639E-05
   8.50920010       1.47619539E-05
   8.52120018       1.51626391E-05
   8.53320026       1.57839477E-05
   8.54520035       1.65981492E-05
   8.55720043       1.75732021E-05
   8.56919956       1.86738525E-05
   8.58119965       1.98627204E-05
   8.59319973       2.11013812E-05
   8.60519981       2.23513653E-05
   8.61719990       2.35750649E-05
   8.62919998       2.47365515E-05
   8.64120007       2.58022701E-05
   8.65320015       2.67416362E-05
   8.66520023       2.75275179E-05
   8.67720032       2.81366410E-05
   8.68920040       2.85499136E-05
   8.70119953       2.87526946E-05
   8.71319962       2.87350031E-05
   8.72519970       2.84916987E-05
   8.73719978       2.80225904E-05
   8.74919987       2.73325222E-05
   8.76119995       2.64313712E-05
   8.77320004       2.53340022E-05
   8.78520012       2.40601003E-05
   8.79720020       2.26339307E-05
   8.80920029       2.10839680E-05
   8.82120037       1.94424210E-05
   8.83320045       1.77446273E-05
   8.84519958       1.60283107E-05
   8.85719967       1.43327452E-05
   8.86919975       1.26978121E-05
   8.88119984       1.11629606E-05
   8.89319992       9.76613683E-06
   8.90520000       8.54267910E-06
   8.91720009       7.52424467E-06
   8.92920017       6.73779232E-06
   8.94120026       6.20466699E-06
   8.95320034       5.93982986E-06
   8.96520042       5.95125948E-06
   8.97719955       6.23955657E-06
   8.98919964       6.79777304E-06
   9.00119972       7.61147430E-06
   9.01319981       8.65905258E-06
   9.02519989       9.91226443E-06
   9.03719997       1.13370234E-05
   9.04920006       1.28943839E-05
   9.06120014       1.45417289E-05
   9.07320023       1.62341075E-05
   9.08520031       1.79256895E-05
   9.09720039       1.95712764E-05
   9.10919952       2.11278366E-05
   9.12119961       2.25559816E-05
   9.13319969       2.38213506E-05
   9.14519978       2.48958204E-05
   9.15719986       2.57585107E-05
   9.16919994       2.63965212E-05
   9.18120003       2.68053827E-05
   9.19320011       2.69891607E-05
   9.20520020       2.69602297E-05
   9.21720028       2.67387131E-05
   9.22920036       2.63515740E-05
   9.24120045       2.58314358E-05
   9.25319958       2.52151276E-05
   9.26519966       2.45420615E-05
   9.27719975       2.38524717E-05
   9.28919983       2.31856247E-05
   9.30119991       2.25780695E-05
   9.31320000       2.20620041E-05
   9.32520008       2.16638564E-05
   9.33720016       2.14031315E-05
   9.34920025       2.12915875E-05
   9.36120033       2.13327876E-05
   9.37320042       2.15220207E-05
   9.38519955       2.18466339E-05
   9.39719963       2.22867056E-05
   9.40919971       2.28160679E-05
   9.42119980       2.34035924E-05
   9.43319988       2.40146819E-05
   9.44519997       2.46128948E-05
