 -0.622799993       0.00000000    
 -0.610800028       0.00000000    
 -0.598800004       0.00000000    
 -0.586799979      -1.61125625E-15
 -0.574800014      -9.73182665E-15
 -0.562799990      -3.15507000E-14
 -0.550800025      -7.10545379E-14
 -0.538800001      -1.20080988E-13
 -0.526799977      -1.50270543E-13
 -0.514800012      -1.11877535E-13
 -0.502799988       5.62355812E-14
 -0.490799993       4.05931663E-13
 -0.478799999       9.55170947E-13
 -0.466800004       1.67079610E-12
 -0.454800010       2.47062939E-12
 -0.442799985       3.25214682E-12
 -0.430799991       3.94637231E-12
 -0.418799996       4.58604682E-12
 -0.406800002       5.37016395E-12
 -0.394800007       6.70550854E-12
 -0.382800013       9.21084042E-12
 -0.370799989       1.36796078E-11
 -0.358799994       2.10097998E-11
 -0.346799999       3.21210003E-11
 -0.334800005       4.78857579E-11
 -0.322800010       6.91026472E-11
 -0.310799986       9.65312968E-11
 -0.298799992       1.30996186E-10
 -0.286799997       1.73548662E-10
 -0.274800003       2.25660129E-10
 -0.262800008       2.89407526E-10
 -0.250800014       3.67610109E-10
 -0.238800004       4.63886068E-10
 -0.226799995       5.82616344E-10
 -0.214800000       7.28827831E-10
 -0.202800006       9.08028264E-10
 -0.190799996       1.12603715E-09
 -0.178800002       1.38885126E-09
 -0.166800007       1.70256464E-09
 -0.154799998       2.07333395E-09
 -0.142800003       2.50735366E-09
 -0.130799994       3.01079095E-09
 -0.118799999       3.58963215E-09
 -0.106799997       4.24941327E-09
  -9.48000029E-02   4.99482988E-09
  -8.28000009E-02   5.82925708E-09
  -7.07999989E-02   6.75422829E-09
  -5.88000007E-02   7.76890641E-09
  -4.67999987E-02   8.86958507E-09
  -3.48000005E-02   1.00492219E-08
  -2.28000004E-02   1.12969429E-08
  -1.08000003E-02   1.25974777E-08
   1.20000006E-03   1.39304328E-08
   1.31999999E-02   1.52693183E-08
   2.52000000E-02   1.65803513E-08
   3.72000001E-02   1.78211241E-08
   4.91999984E-02   1.89394100E-08
   6.12000003E-02   1.98725871E-08
   7.32000023E-02   2.05483435E-08
   8.51999968E-02   2.08874074E-08
   9.71999988E-02   2.08090292E-08
  0.109200001       2.02396588E-08
  0.121200003       1.91247764E-08
  0.133200005       1.74432113E-08
  0.145199999       1.52225912E-08
  0.157199994       1.25539579E-08
  0.169200003       9.60332525E-09
  0.181199998       6.61789246E-09
  0.193200007       3.92505095E-09
  0.205200002       1.92285787E-09
  0.217199996       1.06138653E-09
  0.229200006       1.81496029E-09
  0.241200000       4.64582239E-09
  0.253199995       9.96019711E-09
  0.265199989       1.80581541E-08
  0.277200013       2.90793487E-08
  0.289200008       4.29476970E-08
  0.301200002       5.93193761E-08
  0.313199997       7.75401290E-08
  0.325199991       9.66190044E-08
  0.337199986       1.15226520E-07
  0.349200010       1.31724875E-07
  0.361200005       1.44236068E-07
  0.373199999       1.50751106E-07
  0.385199994       1.49278776E-07
  0.397199988       1.38028270E-07
  0.409200013       1.15614384E-07
  0.421200007       8.12699454E-08
  0.433200002       3.50459501E-08
  0.445199996      -2.20217409E-08
  0.457199991      -8.78012472E-08
  0.469199985      -1.59029582E-07
  0.481200010      -2.31371118E-07
  0.493200004      -2.99580904E-07
  0.505200028      -3.57777736E-07
  0.517199993      -3.99822142E-07
  0.529200017      -4.19784158E-07
  0.541199982      -4.12475998E-07
  0.553200006      -3.74014178E-07
  0.565199971      -3.02367255E-07
  0.577199996      -1.97840365E-07
  0.589200020      -6.34457251E-08
  0.601199985       9.48899839E-08
  0.613200009       2.68323049E-07
  0.625199974       4.45325014E-07
  0.637199998       6.12164854E-07
  0.649200022       7.53637721E-07
  0.661199987       8.54015070E-07
  0.673200011       8.98170356E-07
  0.685199976       8.72815633E-07
  0.697200000       7.67766267E-07
  0.709200025       5.77140725E-07
  0.721199989       3.00397431E-07
  0.733200014      -5.68856215E-08
  0.745199978      -4.82572887E-07
  0.757200003      -9.57939619E-07
  0.769200027      -1.45808610E-06
  0.781199992      -1.95280768E-06
  0.793200016      -2.40789950E-06
  0.805199981      -2.78683819E-06
  0.817200005      -3.05275739E-06
  0.829200029      -3.17060176E-06
  0.841199994      -3.10933001E-06
  0.853200018      -2.84402176E-06
  0.865199983      -2.35774110E-06
  0.877200007      -1.64302833E-06
  0.889199972      -7.02892578E-07
  0.901199996       4.48778422E-07
  0.913200021       1.78745131E-06
  0.925199986       3.27883595E-06
  0.937200010       4.88040268E-06
  0.949199975       6.54345877E-06
  0.961199999       8.21568847E-06
  0.973200023       9.84401049E-06
  0.985199988       1.13776014E-05
  0.997200012       1.27709036E-05
   1.00919998       1.39864642E-05
   1.02119994       1.49974094E-05
   1.03320003       1.57894174E-05
   1.04519999       1.63620680E-05
   1.05719995       1.67294766E-05
   1.06920004       1.69201339E-05
   1.08120000       1.69759878E-05
   1.09319997       1.69507584E-05
   1.10520005       1.69075684E-05
   1.11720002       1.69159885E-05
   1.12919998       1.70486674E-05
   1.14119995       1.73776334E-05
   1.15320003       1.79705112E-05
   1.16520000       1.88867834E-05
   1.17719996       2.01742623E-05
   1.18920004       2.18659752E-05
   1.20120001       2.39775527E-05
   1.21319997       2.65052804E-05
   1.22520006       2.94248894E-05
   1.23720002       3.26911540E-05
   1.24919999       3.62383180E-05
   1.26119995       3.99813580E-05
   1.27320004       4.38180214E-05
   1.28520000       4.76316018E-05
   1.29719996       5.12943079E-05
   1.30920005       5.46711381E-05
   1.32120001       5.76240891E-05
   1.33319998       6.00165513E-05
   1.34519994       6.17177284E-05
   1.35720003       6.26068941E-05
   1.36919999       6.25773609E-05
   1.38119996       6.15399913E-05
   1.39320004       5.94261292E-05
   1.40520000       5.61898742E-05
   1.41719997       5.18096022E-05
   1.42920005       4.62887147E-05
   1.44120002       3.96556170E-05
   1.45319998       3.19629435E-05
   1.46519995       2.32860802E-05
   1.47720003       1.37211264E-05
   1.48920000       3.38231348E-06
   1.50119996      -7.60091871E-06
   1.51320004      -1.90870942E-05
   1.52520001      -3.09260213E-05
   1.53719997      -4.29620923E-05
   1.54920006      -5.50375189E-05
   1.56120002      -6.69953879E-05
   1.57319999      -7.86824530E-05
   1.58519995      -8.99516890E-05
   1.59720004      -1.00664503E-04
   1.60920000      -1.10692643E-04
   1.62119997      -1.19919838E-04
   1.63320005      -1.28243104E-04
   1.64520001      -1.35573835E-04
   1.65719998      -1.41838638E-04
   1.66919994      -1.46979932E-04
   1.68120003      -1.50956359E-04
   1.69319999      -1.53743065E-04
   1.70519996      -1.55331712E-04
   1.71720004      -1.55730260E-04
   1.72920001      -1.54962749E-04
   1.74119997      -1.53068599E-04
   1.75320005      -1.50101871E-04
   1.76520002      -1.46130202E-04
   1.77719998      -1.41233584E-04
   1.78919995      -1.35502996E-04
   1.80120003      -1.29038584E-04
   1.81320000      -1.21948047E-04
   1.82519996      -1.14344592E-04
   1.83720005      -1.06344982E-04
   1.84920001      -9.80675686E-05
   1.86119998      -8.96302881E-05
   1.87320006      -8.11487480E-05
   1.88520002      -7.27344959E-05
   1.89719999      -6.44933752E-05
   1.90919995      -5.65240371E-05
   1.92120004      -4.89167614E-05
   1.93320000      -4.17523406E-05
   1.94519997      -3.51011913E-05
   1.95720005      -2.90226653E-05
   1.96920002      -2.35644820E-05
   1.98119998      -1.87623318E-05
   1.99319994      -1.46395923E-05
   2.00519991      -1.12072112E-05
   2.01719999      -8.46369676E-06
   2.02920008      -6.39527752E-06
   2.04119992      -4.97621613E-06
   2.05320001      -4.16931152E-06
   2.06520009      -3.92659922E-06
   2.07719994      -4.19027492E-06
   2.08920002      -4.89385047E-06
   2.10120010      -5.96355403E-06
   2.11319995      -7.31995715E-06
   2.12520003      -8.87983515E-06
   2.13720012      -1.05582039E-05
   2.14919996      -1.22705051E-05
   2.16120005      -1.39348804E-05
   2.17319989      -1.54744484E-05
   2.18519998      -1.68195111E-05
   2.19720006      -1.79095878E-05
   2.20919991      -1.86952184E-05
   2.22119999      -1.91394010E-05
   2.23320007      -1.92186471E-05
   2.24519992      -1.89235543E-05
   2.25720000      -1.82588919E-05
   2.26920009      -1.72431646E-05
   2.28119993      -1.59076935E-05
   2.29320002      -1.42952167E-05
   2.30520010      -1.24580984E-05
   2.31719995      -1.04562014E-05
   2.32920003      -8.35452738E-06
   2.34120011      -6.22071229E-06
   2.35319996      -4.12249528E-06
   2.36520004      -2.12526675E-06
   2.37719989      -2.89795565E-07
   2.38919997       1.32978562E-06
   2.40120006       2.68765302E-06
   2.41319990       3.74757769E-06
   2.42519999       4.48379160E-06
   2.43720007       4.88142450E-06
   2.44919991       4.93652351E-06
   2.46120000       4.65567746E-06
   2.47320008       4.05529636E-06
   2.48519993       3.16058663E-06
   2.49720001       2.00429076E-06
   2.50920010       6.25243217E-07
   2.52119994      -9.33188403E-07
   2.53320003      -2.62471917E-06
   2.54520011      -4.40176882E-06
   2.55719995      -6.21703066E-06
   2.56920004      -8.02496470E-06
   2.58119988      -9.78315165E-06
   2.59319997      -1.14534987E-05
   2.60520005      -1.30032668E-05
   2.61719990      -1.44058959E-05
   2.62919998      -1.56416081E-05
   2.64120007      -1.66977807E-05
   2.65319991      -1.75690675E-05
   2.66520000      -1.82572876E-05
   2.67720008      -1.87710411E-05
   2.68919992      -1.91250874E-05
   2.70120001      -1.93394990E-05
   2.71320009      -1.94386139E-05
   2.72519994      -1.94498116E-05
   2.73720002      -1.94021795E-05
   2.74920011      -1.93251035E-05
   2.76119995      -1.92468578E-05
   2.77320004      -1.91932086E-05
   2.78520012      -1.91861745E-05
   2.79719996      -1.92428906E-05
   2.80920005      -1.93747273E-05
   2.82119989      -1.95866141E-05
   2.83319998      -1.98766775E-05
   2.84520006      -2.02361589E-05
   2.85719991      -2.06496388E-05
   2.86919999      -2.10955714E-05
   2.88120008      -2.15471173E-05
   2.89319992      -2.19732192E-05
   2.90520000      -2.23399511E-05
   2.91720009      -2.26119992E-05
   2.92919993      -2.27542969E-05
   2.94120002      -2.27337187E-05
   2.95320010      -2.25207714E-05
   2.96519995      -2.20911879E-05
   2.97720003      -2.14273914E-05
   2.98920012      -2.05197230E-05
   3.00119996      -1.93673968E-05
   3.01320004      -1.79791077E-05
   3.02519989      -1.63732548E-05
   3.03719997      -1.45777722E-05
   3.04920006      -1.26295145E-05
   3.06119990      -1.05732615E-05
   3.07319999      -8.46031253E-06
   3.08520007      -6.34677053E-06
   3.09719992      -4.29155762E-06
   3.10920000      -2.35426296E-06
   3.12120008      -5.92923413E-07
   3.13319993       9.38166750E-07
   3.14520001       2.19049002E-06
   3.15720010       3.12309771E-06
   3.16919994       3.70406224E-06
   3.18120003       3.91152525E-06
   3.19320011       3.73430066E-06
   3.20519996       3.17201375E-06
   3.21720004       2.23478878E-06
   3.22919989       9.42531699E-07
   3.24119997      -6.76136779E-07
   3.25320005      -2.58520936E-06
   3.26519990      -4.74279477E-06
   3.27719998      -7.10270388E-06
   3.28920007      -9.61601654E-06
   3.30119991      -1.22325746E-05
   3.31320000      -1.49023135E-05
   3.32520008      -1.75764108E-05
   3.33719993      -2.02082228E-05
   3.34920001      -2.27539931E-05
   3.36120009      -2.51733745E-05
   3.37319994      -2.74297599E-05
   3.38520002      -2.94904712E-05
   3.39720011      -3.13268683E-05
   3.40919995      -3.29143622E-05
   3.42120004      -3.42324383E-05
   3.43319988      -3.52646784E-05
   3.44519997      -3.59987971E-05
   3.45720005      -3.64267544E-05
   3.46919990      -3.65448868E-05
   3.48119998      -3.63540676E-05
   3.49320006      -3.58598736E-05
   3.50519991      -3.50727350E-05
   3.51719999      -3.40080151E-05
   3.52920008      -3.26860099E-05
   3.54119992      -3.11318363E-05
   3.55320001      -2.93751873E-05
   3.56520009      -2.74499380E-05
   3.57719994      -2.53936214E-05
   3.58920002      -2.32467683E-05
   3.60120010      -2.10521175E-05
   3.61319995      -1.88537142E-05
   3.62520003      -1.66959308E-05
   3.63720012      -1.46224093E-05
   3.64919996      -1.26749519E-05
   3.66120005      -1.08924050E-05
   3.67319989      -9.30954593E-06
   3.68519998      -7.95602136E-06
   3.69720006      -6.85536907E-06
   3.70919991      -6.02417595E-06
   3.72119999      -5.47140235E-06
   3.73320007      -5.19792638E-06
   3.74519992      -5.19634568E-06
   3.75720000      -5.45105831E-06
   3.76920009      -5.93864524E-06
   3.78119993      -6.62856701E-06
   3.79320002      -7.48415232E-06
   3.80520010      -8.46385956E-06
   3.81719995      -9.52276787E-06
   3.82920003      -1.06142315E-05
   3.84120011      -1.16916444E-05
   3.85319996      -1.27102267E-05
   3.86520004      -1.36287381E-05
   3.87719989      -1.44110627E-05
   3.88919997      -1.50275901E-05
   3.90120006      -1.54563095E-05
   3.91319990      -1.56835977E-05
   3.92519999      -1.57046816E-05
   3.93720007      -1.55237340E-05
   3.94919991      -1.51536588E-05
   3.96120000      -1.46155671E-05
   3.97320008      -1.39379736E-05
   3.98519993      -1.31557863E-05
   3.99720001      -1.23090895E-05
   4.00920010      -1.14418053E-05
   4.02120018      -1.06002362E-05
   4.03319979      -9.83154132E-06
   4.04519987      -9.18216119E-06
   4.05719995      -8.69623545E-06
   4.06920004      -8.41402016E-06
   4.08120012      -8.37035259E-06
   4.09320021      -8.59318698E-06
   4.10519981      -9.10226481E-06
   4.11719990      -9.90793978E-06
   4.12919998      -1.10102637E-05
   4.14120007      -1.23983527E-05
   4.15320015      -1.40501534E-05
   4.16520023      -1.59326191E-05
   4.17719984      -1.80023890E-05
   4.18919992      -2.02069677E-05
   4.20120001      -2.24864343E-05
   4.21320009      -2.47756107E-05
   4.22520018      -2.70066503E-05
   4.23719978      -2.91118886E-05
   4.24919987      -3.10268806E-05
   4.26119995      -3.26933841E-05
   4.27320004      -3.40621627E-05
   4.28520012      -3.50953997E-05
   4.29720020      -3.57685894E-05
   4.30919981      -3.60717349E-05
   4.32119989      -3.60098529E-05
   4.33319998      -3.56026139E-05
   4.34520006      -3.48832691E-05
   4.35720015      -3.38968639E-05
   4.36920023      -3.26978334E-05
   4.38119984      -3.13472374E-05
   4.39319992      -2.99096700E-05
   4.40520000      -2.84501912E-05
   4.41720009      -2.70313431E-05
   4.42920017      -2.57104948E-05
   4.44119978      -2.45376341E-05
   4.45319986      -2.35537082E-05
   4.46519995      -2.27895616E-05
   4.47720003      -2.22655035E-05
   4.48920012      -2.19914346E-05
   4.50120020      -2.19674894E-05
   4.51319981      -2.21850751E-05
   4.52519989      -2.26281718E-05
   4.53719997      -2.32747952E-05
   4.54920006      -2.40984537E-05
   4.56120014      -2.50695557E-05
   4.57320023      -2.61566111E-05
   4.58519983      -2.73272271E-05
   4.59719992      -2.85488659E-05
   4.60920000      -2.97893766E-05
   4.62120008      -3.10173418E-05
   4.63320017      -3.22022934E-05
   4.64519978      -3.33148528E-05
   4.65719986      -3.43269021E-05
   4.66919994      -3.52117931E-05
   4.68120003      -3.59446822E-05
   4.69320011      -3.65030173E-05
   4.70520020      -3.68671172E-05
   4.71719980      -3.70209127E-05
   4.72919989      -3.69527479E-05
   4.74119997      -3.66562126E-05
   4.75320005      -3.61309321E-05
   4.76520014      -3.53832111E-05
   4.77720022      -3.44265354E-05
   4.78919983      -3.32817908E-05
   4.80119991      -3.19771716E-05
   4.81320000      -3.05477552E-05
   4.82520008      -2.90347125E-05
   4.83720016      -2.74841550E-05
   4.84919977      -2.59456701E-05
   4.86119986      -2.44705661E-05
   4.87319994      -2.31099166E-05
   4.88520002      -2.19124850E-05
   4.89720011      -2.09226346E-05
   4.90920019      -2.01783278E-05
   4.92119980      -1.97092995E-05
   4.93319988      -1.95355333E-05
   4.94519997      -1.96661131E-05
   4.95720005      -2.00985123E-05
   4.96920013      -2.08183865E-05
   4.98120022      -2.17998713E-05
   4.99319983      -2.30063997E-05
   5.00519991      -2.43920131E-05
   5.01719999      -2.59030785E-05
   5.02920008      -2.74803569E-05
   5.04120016      -2.90613243E-05
   5.05319977      -3.05825997E-05
   5.06519985      -3.19823921E-05
   5.07719994      -3.32027957E-05
   5.08920002      -3.41918712E-05
   5.10120010      -3.49053771E-05
   5.11320019      -3.53080686E-05
   5.12519979      -3.53745563E-05
   5.13719988      -3.50896444E-05
   5.14919996      -3.44482360E-05
   5.16120005      -3.34547767E-05
   5.17320013      -3.21223743E-05
   5.18520021      -3.04716286E-05
   5.19719982      -2.85293463E-05
   5.20919991      -2.63271722E-05
   5.22119999      -2.39003130E-05
   5.23320007      -2.12863833E-05
   5.24520016      -1.85245153E-05
   5.25719976      -1.56546994E-05
   5.26919985      -1.27174189E-05
   5.28119993      -9.75352577E-06
   5.29320002      -6.80433413E-06
   5.30520010      -3.91183539E-06
   5.31720018      -1.11895952E-06
   5.32919979       1.53022063E-06
   5.34119987       3.99042983E-06
   5.35319996       6.21535992E-06
   5.36520004       8.15812837E-06
   5.37720013       9.77205491E-06
   5.38920021       1.10117726E-05
   5.40119982       1.18346279E-05
   5.41319990       1.22023175E-05
   5.42519999       1.20826835E-05
   5.43720007       1.14515451E-05
   5.44920015       1.02944541E-05
   5.46120024       8.60826094E-06
   5.47319984       6.40234430E-06
   5.48519993       3.69942677E-06
   5.49720001       5.35882350E-07
   5.50920010      -3.03851903E-06
   5.52120018      -6.96143252E-06
   5.53319979      -1.11593372E-05
   5.54519987      -1.55494363E-05
   5.55719995      -2.00420018E-05
   5.56920004      -2.45430456E-05
   5.58120012      -2.89572181E-05
   5.59320021      -3.31907904E-05
   5.60519981      -3.71546012E-05
   5.61719990      -4.07668267E-05
   5.62919998      -4.39554933E-05
   5.64120007      -4.66606107E-05
   5.65320015      -4.88358019E-05
   5.66520023      -5.04494819E-05
   5.67719984      -5.14854291E-05
   5.68919992      -5.19428213E-05
   5.70120001      -5.18356974E-05
   5.71320009      -5.11919425E-05
   5.72520018      -5.00517708E-05
   5.73719978      -4.84658813E-05
   5.74919987      -4.64932527E-05
   5.76119995      -4.41988304E-05
   5.77320004      -4.16510229E-05
   5.78520012      -3.89192974E-05
   5.79720020      -3.60718295E-05
   5.80919981      -3.31733609E-05
   5.82119989      -3.02833541E-05
   5.83319998      -2.74544582E-05
   5.84520006      -2.47313783E-05
   5.85720015      -2.21501505E-05
   5.86920023      -1.97378395E-05
   5.88119984      -1.75126333E-05
   5.89319992      -1.54843256E-05
   5.90520000      -1.36551089E-05
   5.91720009      -1.20206623E-05
   5.92920017      -1.05714262E-05
   5.94119978      -9.29400812E-06
   5.95319986      -8.17265482E-06
   5.96519995      -7.19071386E-06
   5.97720003      -6.33201671E-06
   5.98920012      -5.58214742E-06
   6.00120020      -4.92953814E-06
   6.01319981      -4.36636219E-06
   6.02519989      -3.88920762E-06
   6.03719997      -3.49950324E-06
   6.04920006      -3.20369054E-06
   6.06120014      -3.01313844E-06
   6.07320023      -2.94380629E-06
   6.08519983      -3.01564251E-06
   6.09719992      -3.25176848E-06
   6.10920000      -3.67742518E-06
   6.12120008      -4.31875014E-06
   6.13320017      -5.20139884E-06
   6.14519978      -6.34904472E-06
   6.15719986      -7.78184130E-06
   6.16919994      -9.51487164E-06
   6.18120003      -1.15566736E-05
   6.19320011      -1.39078811E-05
   6.20520020      -1.65600959E-05
   6.21719980      -1.94950280E-05
   6.22919989      -2.26839802E-05
   6.24119997      -2.60877277E-05
   6.25320005      -2.96568596E-05
   6.26520014      -3.33325443E-05
   6.27720022      -3.70478047E-05
   6.28919983      -4.07291700E-05
   6.30119991      -4.42987548E-05
   6.31320000      -4.76766181E-05
   6.32520008      -5.07833283E-05
   6.33720016      -5.35426734E-05
   6.34919977      -5.58843385E-05
   6.36119986      -5.77464780E-05
   6.37319994      -5.90780801E-05
   6.38520002      -5.98409461E-05
   6.39720011      -6.00113308E-05
   6.40920019      -5.95810125E-05
   6.42119980      -5.85579073E-05
   6.43319988      -5.69660660E-05
   6.44519997      -5.48451244E-05
   6.45720005      -5.22492301E-05
   6.46920013      -4.92454928E-05
   6.48120022      -4.59119838E-05
   6.49319983      -4.23353922E-05
   6.50519991      -3.86084575E-05
   6.51719999      -3.48271678E-05
   6.52920008      -3.10879586E-05
   6.54120016      -2.74848535E-05
   6.55319977      -2.41067628E-05
   6.56519985      -2.10349299E-05
   6.57719994      -1.83406446E-05
   6.58920002      -1.60832969E-05
   6.60120010      -1.43088000E-05
   6.61320019      -1.30484668E-05
   6.62519979      -1.23183472E-05
   6.63719988      -1.21190587E-05
   6.64919996      -1.24361131E-05
   6.66120005      -1.32407240E-05
   6.67320013      -1.44910528E-05
   6.68520021      -1.61338630E-05
   6.69719982      -1.81064916E-05
   6.70919991      -2.03390700E-05
   6.72119999      -2.27569326E-05
   6.73320007      -2.52830687E-05
   6.74520016      -2.78405587E-05
   6.75719976      -3.03548932E-05
   6.76919985      -3.27561029E-05
   6.78119993      -3.49805850E-05
   6.79320002      -3.69726258E-05
   6.80520010      -3.86855536E-05
   6.81720018      -4.00825047E-05
   6.82919979      -4.11368237E-05
   6.84119987      -4.18321106E-05
   6.85319996      -4.21619952E-05
   6.86520004      -4.21296245E-05
   6.87720013      -4.17469819E-05
   6.88920021      -4.10340472E-05
   6.90119982      -4.00179088E-05
   6.91319990      -3.87317450E-05
   6.92519999      -3.72138529E-05
   6.93720007      -3.55066040E-05
   6.94920015      -3.36554294E-05
   6.96120024      -3.17077684E-05
   6.97319984      -2.97119986E-05
   6.98519993      -2.77163708E-05
   6.99720001      -2.57678857E-05
   7.00920010      -2.39111941E-05
   7.02120018      -2.21874725E-05
   7.03319979      -2.06333516E-05
   7.04519987      -1.92799325E-05
   7.05719995      -1.81518772E-05
   7.06920004      -1.72667042E-05
   7.08120012      -1.66342816E-05
   7.09320021      -1.62565811E-05
   7.10519981      -1.61277021E-05
   7.11719990      -1.62342058E-05
   7.12919998      -1.65557340E-05
   7.14120007      -1.70659059E-05
   7.15320015      -1.77334223E-05
   7.16520023      -1.85233675E-05
   7.17719984      -1.93986070E-05
   7.18919992      -2.03212185E-05
   7.20120001      -2.12538962E-05
   7.21320009      -2.21612536E-05
   7.22520018      -2.30109727E-05
   7.23719978      -2.37747699E-05
   7.24919987      -2.44291095E-05
   7.26119995      -2.49557179E-05
   7.27320004      -2.53418420E-05
   7.28520012      -2.55802897E-05
   7.29720020      -2.56692965E-05
   7.30919981      -2.56122057E-05
   7.32119989      -2.54170500E-05
   7.33319998      -2.50960238E-05
   7.34520006      -2.46649197E-05
   7.35720015      -2.41425078E-05
   7.36920023      -2.35499265E-05
   7.38119984      -2.29100442E-05
   7.39319992      -2.22468279E-05
   7.40520000      -2.15847231E-05
   7.41720009      -2.09480149E-05
   7.42920017      -2.03601921E-05
   7.44119978      -1.98433427E-05
   7.45319986      -1.94175573E-05
   7.46519995      -1.91003928E-05
   7.47720003      -1.89063867E-05
   7.48920012      -1.88466765E-05
   7.50120020      -1.89287348E-05
   7.51319981      -1.91562158E-05
   7.52519989      -1.95289558E-05
   7.53719997      -2.00431023E-05
   7.54920006      -2.06913883E-05
   7.56120014      -2.14634965E-05
   7.57320023      -2.23465486E-05
   7.58519983      -2.33256214E-05
   7.59719992      -2.43843078E-05
   7.60920000      -2.55052564E-05
   7.62120008      -2.66706556E-05
   7.63320017      -2.78626540E-05
   7.64519978      -2.90636544E-05
   7.65719986      -3.02565168E-05
   7.66919994      -3.14246317E-05
   7.68120003      -3.25519104E-05
   7.69320011      -3.36227276E-05
   7.70520020      -3.46218076E-05
   7.71719980      -3.55341508E-05
   7.72919989      -3.63450090E-05
   7.74119997      -3.70399721E-05
   7.75320005      -3.76051394E-05
   7.76520014      -3.80274687E-05
   7.77720022      -3.82951912E-05
   7.78919983      -3.83984370E-05
   7.80119991      -3.83298357E-05
   7.81320000      -3.80852471E-05
   7.82520008      -3.76644348E-05
   7.83720016      -3.70716698E-05
   7.84919977      -3.63162035E-05
   7.86119986      -3.54125368E-05
   7.87319994      -3.43804459E-05
   7.88520002      -3.32447162E-05
   7.89720011      -3.20345389E-05
   7.90920019      -3.07826449E-05
   7.92119980      -2.95241443E-05
   7.93319988      -2.82951314E-05
   7.94519997      -2.71311401E-05
   7.95720005      -2.60655252E-05
   7.96920013      -2.51278652E-05
   7.98120022      -2.43424856E-05
   7.99319983      -2.37271615E-05
   8.00520039      -2.32921411E-05
   8.01720047      -2.30394926E-05
   8.02919960      -2.29628768E-05
   8.04119968      -2.30477181E-05
   8.05319977      -2.32718321E-05
   8.06519985      -2.36064407E-05
   8.07719994      -2.40175668E-05
   8.08920002      -2.44676903E-05
   8.10120010      -2.49176192E-05
   8.11320019      -2.53284597E-05
   8.12520027      -2.56635540E-05
   8.13720036      -2.58903037E-05
   8.14920044      -2.59817552E-05
   8.16119957      -2.59179051E-05
   8.17319965      -2.56865769E-05
   8.18519974      -2.52839345E-05
   8.19719982      -2.47145235E-05
   8.20919991      -2.39909041E-05
   8.22119999      -2.31329032E-05
   8.23320007      -2.21665159E-05
   8.24520016      -2.11225670E-05
   8.25720024      -2.00351842E-05
   8.26920033      -1.89401908E-05
   8.28120041      -1.78735027E-05
   8.29319954      -1.68696151E-05
   8.30519962      -1.59602369E-05
   8.31719971      -1.51731656E-05
   8.32919979      -1.45314052E-05
   8.34119987      -1.40525808E-05
   8.35319996      -1.37486422E-05
   8.36520004      -1.36258504E-05
   8.37720013      -1.36850122E-05
   8.38920021      -1.39219364E-05
   8.40120029      -1.43280431E-05
   8.41320038      -1.48911004E-05
   8.42520046      -1.55960170E-05
   8.43719959      -1.64256380E-05
   8.44919968      -1.73615372E-05
   8.46119976      -1.83847242E-05
   8.47319984      -1.94762979E-05
   8.48519993      -2.06179848E-05
   8.49720001      -2.17925826E-05
   8.50920010      -2.29843063E-05
   8.52120018      -2.41790112E-05
   8.53320026      -2.53643429E-05
   8.54520035      -2.65297549E-05
   8.55720043      -2.76664559E-05
   8.56919956      -2.87672792E-05
   8.58119965      -2.98264622E-05
   8.59319973      -3.08393683E-05
   8.60519981      -3.18021812E-05
   8.61719990      -3.27115558E-05
   8.62919998      -3.35642726E-05
   8.64120007      -3.43569191E-05
   8.65320015      -3.50855844E-05
   8.66520023      -3.57456556E-05
   8.67720032      -3.63316576E-05
   8.68920040      -3.68372312E-05
   8.70119953      -3.72551767E-05
   8.71319962      -3.75776654E-05
   8.72519970      -3.77965189E-05
   8.73719978      -3.79036283E-05
   8.74919987      -3.78914337E-05
   8.76119995      -3.77534598E-05
   8.77320004      -3.74848605E-05
   8.78520012      -3.70829621E-05
   8.79720020      -3.65477063E-05
   8.80920029      -3.58820216E-05
   8.82120037      -3.50920236E-05
   8.83320045      -3.41870909E-05
   8.84519958      -3.31797528E-05
   8.85719967      -3.20854415E-05
   8.86919975      -3.09220632E-05
   8.88119984      -2.97095012E-05
   8.89319992      -2.84689959E-05
   8.90520000      -2.72225134E-05
   8.91720009      -2.59920980E-05
   8.92920017      -2.47992502E-05
   8.94120026      -2.36643591E-05
   8.95320034      -2.26062093E-05
   8.96520042      -2.16415683E-05
   8.97719955      -2.07848570E-05
   8.98919964      -2.00479117E-05
   9.00119972      -1.94397981E-05
   9.01319981      -1.89667062E-05
   9.02519989      -1.86318830E-05
   9.03719997      -1.84355958E-05
   9.04920006      -1.83751272E-05
   9.06120014      -1.84447836E-05
   9.07320023      -1.86359212E-05
   9.08520031      -1.89370057E-05
   9.09720039      -1.93337200E-05
   9.10919952      -1.98091493E-05
   9.12119961      -2.03440450E-05
   9.13319969      -2.09172267E-05
   9.14519978      -2.15061136E-05
   9.15719986      -2.20873862E-05
   9.16919994      -2.26377997E-05
   9.18120003      -2.31350787E-05
   9.19320011      -2.35588814E-05
   9.20520020      -2.38918001E-05
   9.21720028      -2.41202688E-05
   9.22920036      -2.42353908E-05
   9.24120045      -2.42335864E-05
   9.25319958      -2.41170274E-05
   9.26519966      -2.38937828E-05
   9.27719975      -2.35777079E-05
   9.28919983      -2.31880185E-05
   9.30119991      -2.27485780E-05
   9.31320000      -2.22869330E-05
   9.32520008      -2.18331152E-05
   9.33720016      -2.14182837E-05
   9.34920025      -2.10732869E-05
   9.36120033      -2.08271722E-05
   9.37320042      -2.07057637E-05
   9.38519955      -2.07304038E-05
   9.39719963      -2.09168338E-05
   9.40919971      -2.12743871E-05
   9.42119980      -2.18054392E-05
   9.43319988      -2.25052081E-05
   9.44519997      -2.33618430E-05
