 -0.622799993       0.00000000    
 -0.610800028       0.00000000    
 -0.598800004       0.00000000    
 -0.586799979       0.00000000    
 -0.574800014      -5.37706605E-24
 -0.562799990      -4.47733342E-23
 -0.550800025      -2.06846095E-22
 -0.538800001      -6.56926961E-22
 -0.526799977      -1.40352587E-21
 -0.514800012      -1.26514912E-21
 -0.502799988       4.54164848E-21
 -0.490799993       2.77720495E-20
 -0.478799999       8.88101237E-20
 -0.466800004       2.11922406E-19
 -0.454800010       4.10890363E-19
 -0.442799985       6.69453296E-19
 -0.430799991       9.32713659E-19
 -0.418799996       1.13200049E-18
 -0.406800002       1.25360969E-18
 -0.394800007       1.42602577E-18
 -0.382800013       1.95601435E-18
 -0.370799989       3.22954617E-18
 -0.358799994       5.45062558E-18
 -0.346799999       8.32686988E-18
 -0.334800005       1.09631425E-17
 -0.322800010       1.22659933E-17
 -0.310799986       1.19640079E-17
 -0.298799992       1.18951078E-17
 -0.286799997       1.66888073E-17
 -0.274800003       3.27583573E-17
 -0.262800008       6.50109765E-17
 -0.250800014       1.11999223E-16
 -0.238800004       1.61943184E-16
 -0.226799995       1.93160345E-16
 -0.214800000       1.81776209E-16
 -0.202800006       1.16519520E-16
 -0.190799996       1.55679626E-17
 -0.178800002      -6.40375569E-17
 -0.166800007      -3.48867592E-17
 -0.154799998       1.88847928E-16
 -0.142800003       6.41347460E-16
 -0.130799994       1.25567362E-15
 -0.118799999       1.84283580E-15
 -0.106799997       2.12538629E-15
  -9.48000029E-02   1.83453382E-15
  -8.28000009E-02   8.50613620E-16
  -7.07999989E-02  -6.64105541E-16
  -5.88000007E-02  -2.20867377E-15
  -4.67999987E-02  -3.02154016E-15
  -3.48000005E-02  -2.31109276E-15
  -2.28000004E-02   4.06940330E-16
  -1.08000003E-02   4.97364321E-15
   1.20000006E-03   1.03952305E-14
   1.31999999E-02   1.49216898E-14
   2.52000000E-02   1.64499287E-14
   3.72000001E-02   1.31956070E-14
   4.91999984E-02   4.46521380E-15
   6.12000003E-02  -8.71468577E-15
   7.32000023E-02  -2.33604165E-14
   8.51999968E-02  -3.48656820E-14
   9.71999988E-02  -3.79554955E-14
  0.109200001      -2.81460849E-14
  0.121200003      -3.43909437E-15
  0.133200005       3.41492547E-14
  0.145199999       7.77001754E-14
  0.157199994       1.15624090E-13
  0.169200003       1.33384596E-13
  0.181199998       1.16830495E-13
  0.193200007       5.68209725E-14
  0.205200002      -4.57403789E-14
  0.217199996      -1.75924271E-13
  0.229200006      -3.03662965E-13
  0.241200000      -3.87177161E-13
  0.253199995      -3.81760162E-13
  0.265199989      -2.53169556E-13
  0.277200013       7.10086058E-15
  0.289200008       3.69172791E-13
  0.301200002       7.60060092E-13
  0.313199997       1.07131502E-12
  0.325199991       1.18072913E-12
  0.337199986       9.85525138E-13
  0.349200010       4.39841008E-13
  0.361200005      -4.14155906E-13
  0.373199999      -1.43296226E-12
  0.385199994      -2.38486878E-12
  0.397199988      -2.99194111E-12
  0.409200013      -2.99503976E-12
  0.421200007      -2.22812957E-12
  0.433200002      -6.83041460E-13
  0.445199996       1.45447651E-12
  0.457199991       3.81149149E-12
  0.469199985       5.88199064E-12
  0.481200010       7.12143408E-12
  0.493200004       7.06435127E-12
  0.505200028       5.44083398E-12
  0.517199993       2.26650968E-12
  0.529200017      -2.11518173E-12
  0.541199982      -7.05103640E-12
  0.553200006      -1.16583453E-11
  0.565199971      -1.49584997E-11
  0.577199996      -1.60458955E-11
  0.589200020      -1.42674995E-11
  0.601199985      -9.38456431E-12
  0.613200009      -1.68735880E-12
  0.625199974       7.96362542E-12
  0.637199998       1.81896286E-11
  0.649200022       2.72469599E-11
  0.661199987       3.32741334E-11
  0.673200011       3.46065815E-11
  0.685199976       3.01146122E-11
  0.697200000       1.95067244E-11
  0.709200025       3.53572336E-12
  0.721199989      -1.59475020E-11
  0.733200014      -3.61280970E-11
  0.745199978      -5.35546468E-11
  0.757200003      -6.46304329E-11
  0.769200027      -6.62053884E-11
  0.781199992      -5.61804631E-11
  0.793200016      -3.40236346E-11
  0.805199981      -1.10192953E-12
  0.817200005       3.92453015E-11
  0.829200029       8.19315935E-11
  0.841199994       1.20641427E-10
  0.853200018       1.48588059E-10
  0.865199983       1.59411082E-10
  0.877200007       1.48076967E-10
  0.889199972       1.11619415E-10
  0.901199996       4.95481572E-11
  0.913200021      -3.62385677E-11
  0.925199986      -1.42180837E-10
  0.937200010      -2.64534145E-10
  0.949199975      -4.01669559E-10
  0.961199999      -5.57227597E-10
  0.973200023      -7.44115491E-10
  0.985199988      -9.89311966E-10
  0.997200012      -1.33940647E-09
   1.00919998      -1.86681004E-09
   1.02119994      -2.67661249E-09
   1.03320003      -3.91416988E-09
   1.04519999      -5.77369397E-09
   1.05719995      -8.50848370E-09
   1.06920004      -1.24438788E-08
   1.08120000      -1.79946991E-08
   1.09319997      -2.56896691E-08
   1.10520005      -3.62062842E-08
   1.11720002      -5.04203044E-08
   1.12919998      -6.94749502E-08
   1.14119995      -9.48753112E-08
   1.15320003      -1.28613465E-07
   1.16520000      -1.73329511E-07
   1.17719996      -2.32512491E-07
   1.18920004      -3.10742507E-07
   1.20120001      -4.13973538E-07
   1.21319997      -5.49851961E-07
   1.22520006      -7.28060456E-07
   1.23720002      -9.60673560E-07
   1.24919999      -1.26250404E-06
   1.26119995      -1.65141557E-06
   1.27320004      -2.14857187E-06
   1.28520000      -2.77858976E-06
   1.29719996      -3.56956434E-06
   1.30920005      -4.55293184E-06
   1.32120001      -5.76314415E-06
   1.33319998      -7.23713492E-06
   1.34519994      -9.01356361E-06
   1.35720003      -1.11318386E-05
   1.36919999      -1.36309409E-05
   1.38119996      -1.65480615E-05
   1.39320004      -1.99171209E-05
   1.40520000      -2.37671939E-05
   1.41719997      -2.81209486E-05
   1.42920005      -3.29931390E-05
   1.44120002      -3.83892802E-05
   1.45319998      -4.43045064E-05
   1.46519995      -5.07227924E-05
   1.47720003      -5.76164894E-05
   1.48920000      -6.49463327E-05
   1.50119996      -7.26618455E-05
   1.51320004      -8.07022079E-05
   1.52520001      -8.89975636E-05
   1.53719997      -9.74707291E-05
   1.54920006      -1.06039166E-04
   1.56120002      -1.14617229E-04
   1.57319999      -1.23118574E-04
   1.58519995      -1.31458626E-04
   1.59720004      -1.39556854E-04
   1.60920000      -1.47339044E-04
   1.62119997      -1.54739188E-04
   1.63320005      -1.61701057E-04
   1.64520001      -1.68179380E-04
   1.65719998      -1.74140616E-04
   1.66919994      -1.79563125E-04
   1.68120003      -1.84437100E-04
   1.69319999      -1.88763923E-04
   1.70519996      -1.92555235E-04
   1.71720004      -1.95831657E-04
   1.72920001      -1.98621361E-04
   1.74119997      -2.00958500E-04
   1.75320005      -2.02881551E-04
   1.76520002      -2.04431781E-04
   1.77719998      -2.05651741E-04
   1.78919995      -2.06584082E-04
   1.80120003      -2.07270437E-04
   1.81320000      -2.07750738E-04
   1.82519996      -2.08062585E-04
   1.83720005      -2.08241152E-04
   1.84920001      -2.08319019E-04
   1.86119998      -2.08326455E-04
   1.87320006      -2.08291618E-04
   1.88520002      -2.08241021E-04
   1.89719999      -2.08199868E-04
   1.90919995      -2.08192389E-04
   1.92120004      -2.08242112E-04
   1.93320000      -2.08371988E-04
   1.94519997      -2.08604310E-04
   1.95720005      -2.08960482E-04
   1.96920002      -2.09460806E-04
   1.98119998      -2.10123791E-04
   1.99319994      -2.10965649E-04
   2.00519991      -2.11999737E-04
   2.01719999      -2.13235748E-04
   2.02920008      -2.14679269E-04
   2.04119992      -2.16331275E-04
   2.05320001      -2.18187764E-04
   2.06520009      -2.20239614E-04
   2.07719994      -2.22472605E-04
   2.08920002      -2.24867632E-04
   2.10120010      -2.27401077E-04
   2.11319995      -2.30045334E-04
   2.12520003      -2.32769497E-04
   2.13720012      -2.35539992E-04
   2.14919996      -2.38321431E-04
   2.16120005      -2.41077360E-04
   2.17319989      -2.43771065E-04
   2.18519998      -2.46366224E-04
   2.19720006      -2.48827797E-04
   2.20919991      -2.51122809E-04
   2.22119999      -2.53220875E-04
   2.23320007      -2.55095249E-04
   2.24519992      -2.56723433E-04
   2.25720000      -2.58088316E-04
   2.26920009      -2.59178982E-04
   2.28119993      -2.59991793E-04
   2.29320002      -2.60531291E-04
   2.30520010      -2.60811386E-04
   2.31719995      -2.60856003E-04
   2.32920003      -2.60699686E-04
   2.34120011      -2.60388158E-04
   2.35319996      -2.59977969E-04
   2.36520004      -2.59536144E-04
   2.37719989      -2.59138935E-04
   2.38919997      -2.58870248E-04
   2.40120006      -2.58819258E-04
   2.41319990      -2.59077526E-04
   2.42519999      -2.59735651E-04
   2.43720007      -2.60879548E-04
   2.44919991      -2.62586283E-04
   2.46120000      -2.64920178E-04
   2.47320008      -2.67928641E-04
   2.48519993      -2.71638623E-04
   2.49720001      -2.76053499E-04
   2.50920010      -2.81150540E-04
   2.52119994      -2.86879367E-04
   2.53320003      -2.93161458E-04
   2.54520011      -2.99890526E-04
   2.55719995      -3.06934118E-04
   2.56920004      -3.14136298E-04
   2.58119988      -3.21321277E-04
   2.59319997      -3.28297960E-04
   2.60520005      -3.34865268E-04
   2.61719990      -3.40817816E-04
   2.62919998      -3.45952052E-04
   2.64120007      -3.50072456E-04
   2.65319991      -3.52997362E-04
   2.66520000      -3.54564690E-04
   2.67720008      -3.54636752E-04
   2.68919992      -3.53104493E-04
   2.70120001      -3.49890644E-04
   2.71320009      -3.44952015E-04
   2.72519994      -3.38280632E-04
   2.73720002      -3.29903589E-04
   2.74920011      -3.19882442E-04
   2.76119995      -3.08310875E-04
   2.77320004      -2.95312202E-04
   2.78520012      -2.81035784E-04
   2.79719996      -2.65652925E-04
   2.80920005      -2.49352714E-04
   2.82119989      -2.32337072E-04
   2.83319998      -2.14816377E-04
   2.84520006      -1.97004600E-04
   2.85719991      -1.79115028E-04
   2.86919999      -1.61355987E-04
   2.88120008      -1.43927085E-04
   2.89319992      -1.27015752E-04
   2.90520000      -1.10794230E-04
   2.91720009      -9.54169373E-05
   2.92919993      -8.10183265E-05
   2.94120002      -6.77111238E-05
   2.95320010      -5.55849947E-05
   2.96519995      -4.47056809E-05
   2.97720003      -3.51145245E-05
   2.98920012      -2.68284784E-05
   3.00119996      -1.98405432E-05
   3.01320004      -1.41207183E-05
   3.02519989      -9.61742353E-06
   3.03719997      -6.25939992E-06
   3.04920006      -3.95808684E-06
   3.06119990      -2.61042646E-06
   3.07319999      -2.10204030E-06
   3.08520007      -2.31070749E-06
   3.09719992      -3.11003464E-06
   3.10920000      -4.37319795E-06
   3.12120008      -5.97663302E-06
   3.13319993      -7.80352730E-06
   3.14520001      -9.74697286E-06
   3.15720010      -1.17126647E-05
   3.16919994      -1.36210028E-05
   3.18120003      -1.54085519E-05
   3.19320011      -1.70287731E-05
   3.20519996      -1.84520177E-05
   3.21720004      -1.96648198E-05
   3.22919989      -2.06685127E-05
   3.24119997      -2.14773027E-05
   3.25320005      -2.21158916E-05
   3.26519990      -2.26168086E-05
   3.27719998      -2.30175974E-05
   3.28920007      -2.33580449E-05
   3.30119991      -2.36775595E-05
   3.31320000      -2.40128811E-05
   3.32520008      -2.43961949E-05
   3.33719993      -2.48537581E-05
   3.34920001      -2.54050501E-05
   3.36120009      -2.60624765E-05
   3.37319994      -2.68315907E-05
   3.38520002      -2.77117324E-05
   3.39720011      -2.86970480E-05
   3.40919995      -2.97777260E-05
   3.42120004      -3.09413808E-05
   3.43319988      -3.21744265E-05
   3.44519997      -3.34633332E-05
   3.45720005      -3.47957102E-05
   3.46919990      -3.61611201E-05
   3.48119998      -3.75515665E-05
   3.49320006      -3.89616871E-05
   3.50519991      -4.03886625E-05
   3.51719999      -4.18318341E-05
   3.52920008      -4.32921515E-05
   3.54119992      -4.47715174E-05
   3.55320001      -4.62720600E-05
   3.56520009      -4.77954563E-05
   3.57719994      -4.93423722E-05
   3.58920002      -5.09120327E-05
   3.60120010      -5.25019896E-05
   3.61319995      -5.41080954E-05
   3.62520003      -5.57246349E-05
   3.63720012      -5.73446305E-05
   3.64919996      -5.89602314E-05
   3.66120005      -6.05631576E-05
   3.67319989      -6.21451109E-05
   3.68519998      -6.36981422E-05
   3.69720006      -6.52149101E-05
   3.70919991      -6.66887427E-05
   3.72119999      -6.81135498E-05
   3.73320007      -6.94836272E-05
   3.74519992      -7.07932777E-05
   3.75720000      -7.20363241E-05
   3.76920009      -7.32056869E-05
   3.78119993      -7.42928969E-05
   3.79320002      -7.52877386E-05
   3.80520010      -7.61780757E-05
   3.81719995      -7.69498511E-05
   3.82920003      -7.75873486E-05
   3.84120011      -7.80737537E-05
   3.85319996      -7.83918949E-05
   3.86520004      -7.85252778E-05
   3.87719989      -7.84592266E-05
   3.88919997      -7.81822309E-05
   3.90120006      -7.76871675E-05
   3.91319990      -7.69726030E-05
   3.92519999      -7.60437833E-05
   3.93720007      -7.49134924E-05
   3.94919991      -7.36024813E-05
   3.96120000      -7.21395845E-05
   3.97320008      -7.05613711E-05
   3.98519993      -6.89113876E-05
   3.99720001      -6.72389942E-05
   4.00920010      -6.55978292E-05
   4.02120018      -6.40440267E-05
   4.03319979      -6.26342298E-05
   4.04519987      -6.14234377E-05
   4.05719995      -6.04629349E-05
   4.06920004      -5.97983344E-05
   4.08120012      -5.94678386E-05
   4.09320021      -5.95007368E-05
   4.10519981      -5.99164159E-05
   4.11719990      -6.07236507E-05
   4.12919998      -6.19204438E-05
   4.14120007      -6.34942116E-05
   4.15320015      -6.54224714E-05
   4.16520023      -6.76737836E-05
   4.17719984      -7.02090911E-05
   4.18919992      -7.29832100E-05
   4.20120001      -7.59464747E-05
   4.21320009      -7.90464401E-05
   4.22520018      -8.22295697E-05
   4.23719978      -8.54428727E-05
   4.24919987      -8.86353155E-05
   4.26119995      -9.17591387E-05
   4.27320004      -9.47709850E-05
   4.28520012      -9.76327501E-05
   4.29720020      -1.00312231E-04
   4.30919981      -1.02783655E-04
   4.32119989      -1.05027888E-04
   4.33319998      -1.07032560E-04
   4.34520006      -1.08791923E-04
   4.35720015      -1.10306668E-04
   4.36920023      -1.11583497E-04
   4.38119984      -1.12634560E-04
   4.39319992      -1.13476810E-04
   4.40520000      -1.14131202E-04
   4.41720009      -1.14621784E-04
   4.42920017      -1.14974711E-04
   4.44119978      -1.15217270E-04
   4.45319986      -1.15376759E-04
   4.46519995      -1.15479539E-04
   4.47720003      -1.15550094E-04
   4.48920012      -1.15610179E-04
   4.50120020      -1.15678231E-04
   4.51319981      -1.15768933E-04
   4.52519989      -1.15893003E-04
   4.53719997      -1.16057287E-04
   4.54920006      -1.16264993E-04
   4.56120014      -1.16516247E-04
   4.57320023      -1.16808682E-04
   4.58519983      -1.17138268E-04
   4.59719992      -1.17500036E-04
   4.60920000      -1.17888834E-04
   4.62120008      -1.18299882E-04
   4.63320017      -1.18729193E-04
   4.64519978      -1.19173681E-04
   4.65719986      -1.19631040E-04
   4.66919994      -1.20099292E-04
   4.68120003      -1.20576122E-04
   4.69320011      -1.21057958E-04
   4.70520020      -1.21538993E-04
   4.71719980      -1.22010140E-04
   4.72919989      -1.22458077E-04
   4.74119997      -1.22864440E-04
   4.75320005      -1.23205507E-04
   4.76520014      -1.23452031E-04
   4.77720022      -1.23569713E-04
   4.78919983      -1.23520163E-04
   4.80119991      -1.23262158E-04
   4.81320000      -1.22753670E-04
   4.82520008      -1.21953912E-04
   4.83720016      -1.20825905E-04
   4.84919977      -1.19338983E-04
   4.86119986      -1.17471289E-04
   4.87319994      -1.15212046E-04
   4.88520002      -1.12563393E-04
   4.89720011      -1.09541732E-04
   4.90920019      -1.06178297E-04
   4.92119980      -1.02519130E-04
   4.93319988      -9.86241139E-05
   4.94519997      -9.45653519E-05
   4.95720005      -9.04247718E-05
   4.96920013      -8.62911547E-05
   4.98120022      -8.22567599E-05
   4.99319983      -7.84136428E-05
   5.00519991      -7.48499224E-05
   5.01719999      -7.16462528E-05
   5.02920008      -6.88725922E-05
   5.04120016      -6.65855259E-05
   5.05319977      -6.48262430E-05
   5.06519985      -6.36192635E-05
   5.07719994      -6.29719943E-05
   5.08920002      -6.28751150E-05
   5.10120010      -6.33036325E-05
   5.11320019      -6.42186715E-05
   5.12519979      -6.55697659E-05
   5.13719988      -6.72974784E-05
   5.14919996      -6.93362163E-05
   5.16120005      -7.16171562E-05
   5.17320013      -7.40708856E-05
   5.18520021      -7.66298981E-05
   5.19719982      -7.92306455E-05
   5.20919991      -8.18152257E-05
   5.22119999      -8.43325033E-05
   5.23320007      -8.67388590E-05
   5.24520016      -8.89984804E-05
   5.25719976      -9.10832896E-05
   5.26919985      -9.29726157E-05
   5.28119993      -9.46526197E-05
   5.29320002      -9.61156402E-05
   5.30520010      -9.73594579E-05
   5.31720018      -9.83866194E-05
   5.32919979      -9.92037312E-05
   5.34119987      -9.98209071E-05
   5.35319996      -1.00251193E-04
   5.36520004      -1.00510195E-04
   5.37720013      -1.00615602E-04
   5.38920021      -1.00586818E-04
   5.40119982      -1.00444639E-04
   5.41319990      -1.00210775E-04
   5.42519999      -9.99075128E-05
   5.43720007      -9.95572555E-05
   5.44920015      -9.91820707E-05
   5.46120024      -9.88032771E-05
   5.47319984      -9.84409926E-05
   5.48519993      -9.81137855E-05
   5.49720001      -9.78383541E-05
   5.50920010      -9.76292795E-05
   5.52120018      -9.74989016E-05
   5.53319979      -9.74572031E-05
   5.54519987      -9.75118310E-05
   5.55719995      -9.76681476E-05
   5.56920004      -9.79292963E-05
   5.58120012      -9.82963611E-05
   5.59320021      -9.87684398E-05
   5.60519981      -9.93427893E-05
   5.61719990      -1.00014913E-04
   5.62919998      -1.00778663E-04
   5.64120007      -1.01626290E-04
   5.65320015      -1.02548547E-04
   5.66520023      -1.03534760E-04
   5.67719984      -1.04572995E-04
   5.68919992      -1.05650208E-04
   5.70120001      -1.06752450E-04
   5.71320009      -1.07865228E-04
   5.72520018      -1.08973800E-04
   5.73719978      -1.10063549E-04
   5.74919987      -1.11120411E-04
   5.76119995      -1.12131311E-04
   5.77320004      -1.13084461E-04
   5.78520012      -1.13969785E-04
   5.79720020      -1.14779134E-04
   5.80919981      -1.15506453E-04
   5.82119989      -1.16147879E-04
   5.83319998      -1.16701754E-04
   5.84520006      -1.17168478E-04
   5.85720015      -1.17550415E-04
   5.86920023      -1.17851596E-04
   5.88119984      -1.18077522E-04
   5.89319992      -1.18234879E-04
   5.90520000      -1.18331278E-04
   5.91720009      -1.18374999E-04
   5.92920017      -1.18374759E-04
   5.94119978      -1.18339478E-04
   5.95319986      -1.18278098E-04
   5.96519995      -1.18199328E-04
   5.97720003      -1.18111435E-04
   5.98920012      -1.18022006E-04
   6.00120020      -1.17937700E-04
   6.01319981      -1.17863929E-04
   6.02519989      -1.17804630E-04
   6.03719997      -1.17761905E-04
   6.04920006      -1.17735864E-04
   6.06120014      -1.17724339E-04
   6.07320023      -1.17722848E-04
   6.08519983      -1.17724579E-04
   6.09719992      -1.17720505E-04
   6.10920000      -1.17699718E-04
   6.12120008      -1.17649848E-04
   6.13320017      -1.17557654E-04
   6.14519978      -1.17409742E-04
   6.15719986      -1.17193398E-04
   6.16919994      -1.16897405E-04
   6.18120003      -1.16512907E-04
   6.19320011      -1.16034214E-04
   6.20520020      -1.15459472E-04
   6.21719980      -1.14791132E-04
   6.22919989      -1.14036280E-04
   6.24119997      -1.13206675E-04
   6.25320005      -1.12318499E-04
   6.26520014      -1.11391906E-04
   6.27720022      -1.10450244E-04
   6.28919983      -1.09519118E-04
   6.30119991      -1.08625281E-04
   6.31320000      -1.07795327E-04
   6.32520008      -1.07054511E-04
   6.33720016      -1.06425432E-04
   6.34919977      -1.05926971E-04
   6.36119986      -1.05573316E-04
   6.37319994      -1.05373299E-04
   6.38520002      -1.05330008E-04
   6.39720011      -1.05440668E-04
   6.40920019      -1.05696949E-04
   6.42119980      -1.06085499E-04
   6.43319988      -1.06588785E-04
   6.44519997      -1.07186221E-04
   6.45720005      -1.07855332E-04
   6.46920013      -1.08573113E-04
   6.48120022      -1.09317305E-04
   6.49319983      -1.10067587E-04
   6.50519991      -1.10806577E-04
   6.51719999      -1.11520632E-04
   6.52920008      -1.12200258E-04
   6.54120016      -1.12840309E-04
   6.55319977      -1.13439724E-04
   6.56519985      -1.14001079E-04
   6.57719994      -1.14529794E-04
   6.58920002      -1.15033123E-04
   6.60120010      -1.15519091E-04
   6.61320019      -1.15995317E-04
   6.62519979      -1.16467883E-04
   6.63719988      -1.16940406E-04
   6.64919996      -1.17413219E-04
   6.66120005      -1.17882875E-04
   6.67320013      -1.18341908E-04
   6.68520021      -1.18778968E-04
   6.69719982      -1.19179196E-04
   6.70919991      -1.19524993E-04
   6.72119999      -1.19796918E-04
   6.73320007      -1.19974808E-04
   6.74520016      -1.20039069E-04
   6.75719976      -1.19971897E-04
   6.76919985      -1.19758544E-04
   6.78119993      -1.19388402E-04
   6.79320002      -1.18855925E-04
   6.80520010      -1.18161348E-04
   6.81720018      -1.17311072E-04
   6.82919979      -1.16317773E-04
   6.84119987      -1.15200237E-04
   6.85319996      -1.13982831E-04
   6.86520004      -1.12694775E-04
   6.87720013      -1.11369118E-04
   6.88920021      -1.10041517E-04
   6.90119982      -1.08748973E-04
   6.91319990      -1.07528373E-04
   6.92519999      -1.06415086E-04
   6.93720007      -1.05441679E-04
   6.94920015      -1.04636594E-04
   6.96120024      -1.04023151E-04
   6.97319984      -1.03618695E-04
   6.98519993      -1.03433966E-04
   6.99720001      -1.03472812E-04
   7.00920010      -1.03732127E-04
   7.02120018      -1.04202103E-04
   7.03319979      -1.04866704E-04
   7.04519987      -1.05704436E-04
   7.05719995      -1.06689178E-04
   7.06920004      -1.07791340E-04
   7.08120012      -1.08978878E-04
   7.09320021      -1.10218563E-04
   7.10519981      -1.11477035E-04
   7.11719990      -1.12721937E-04
   7.12919998      -1.13922804E-04
   7.14120007      -1.15051902E-04
   7.15320015      -1.16084848E-04
   7.16520023      -1.17001124E-04
   7.17719984      -1.17784330E-04
   7.18919992      -1.18422380E-04
   7.20120001      -1.18907490E-04
   7.21320009      -1.19236109E-04
   7.22520018      -1.19408702E-04
   7.23719978      -1.19429482E-04
   7.24919987      -1.19306096E-04
   7.26119995      -1.19049218E-04
   7.27320004      -1.18672186E-04
   7.28520012      -1.18190503E-04
   7.29720020      -1.17621421E-04
   7.30919981      -1.16983392E-04
   7.32119989      -1.16295560E-04
   7.33319998      -1.15577197E-04
   7.34520006      -1.14847142E-04
   7.35720015      -1.14123235E-04
   7.36920023      -1.13421767E-04
   7.38119984      -1.12757007E-04
   7.39319992      -1.12140711E-04
   7.40520000      -1.11581896E-04
   7.41720009      -1.11086541E-04
   7.42920017      -1.10657566E-04
   7.44119978      -1.10294932E-04
   7.45319986      -1.09995868E-04
   7.46519995      -1.09755259E-04
   7.47720003      -1.09566194E-04
   7.48920012      -1.09420514E-04
   7.50120020      -1.09309527E-04
   7.51319981      -1.09224660E-04
   7.52519989      -1.09158093E-04
   7.53719997      -1.09103297E-04
   7.54920006      -1.09055487E-04
   7.56120014      -1.09011926E-04
   7.57320023      -1.08972039E-04
   7.58519983      -1.08937398E-04
   7.59719992      -1.08911518E-04
   7.60920000      -1.08899534E-04
   7.62120008      -1.08907785E-04
   7.63320017      -1.08943277E-04
   7.64519978      -1.09013119E-04
   7.65719986      -1.09123946E-04
   7.66919994      -1.09281391E-04
   7.68120003      -1.09489622E-04
   7.69320011      -1.09750945E-04
   7.70520020      -1.10065514E-04
   7.71719980      -1.10431152E-04
   7.72919989      -1.10843379E-04
   7.74119997      -1.11295434E-04
   7.75320005      -1.11778514E-04
   7.76520014      -1.12282112E-04
   7.77720022      -1.12794383E-04
   7.78919983      -1.13302660E-04
   7.80119991      -1.13793991E-04
   7.81320000      -1.14255679E-04
   7.82520008      -1.14675910E-04
   7.83720016      -1.15044248E-04
   7.84919977      -1.15352210E-04
   7.86119986      -1.15593612E-04
   7.87319994      -1.15764989E-04
   7.88520002      -1.15865747E-04
   7.89720011      -1.15898256E-04
   7.90920019      -1.15867784E-04
   7.92119980      -1.15782248E-04
   7.93319988      -1.15651812E-04
   7.94519997      -1.15488387E-04
   7.95720005      -1.15304982E-04
   7.96920013      -1.15114941E-04
   7.98120022      -1.14931194E-04
   7.99319983      -1.14765484E-04
   8.00520039      -1.14627597E-04
   8.01720047      -1.14524773E-04
   8.02919960      -1.14461152E-04
   8.04119968      -1.14437433E-04
   8.05319977      -1.14450697E-04
   8.06519985      -1.14494469E-04
   8.07719994      -1.14558905E-04
   8.08920002      -1.14631235E-04
   8.10120010      -1.14696377E-04
   8.11320019      -1.14737610E-04
   8.12520027      -1.14737493E-04
   8.13720036      -1.14678740E-04
   8.14920044      -1.14545190E-04
   8.16119957      -1.14322756E-04
   8.17319965      -1.14000315E-04
   8.18519974      -1.13570510E-04
   8.19719982      -1.13030379E-04
   8.20919991      -1.12381851E-04
   8.22119999      -1.11632078E-04
   8.23320007      -1.10793422E-04
   8.24520016      -1.09883309E-04
   8.25720024      -1.08923785E-04
   8.26920033      -1.07940810E-04
   8.28120041      -1.06963395E-04
   8.29319954      -1.06022417E-04
   8.30519962      -1.05149411E-04
   8.31719971      -1.04375140E-04
   8.32919979      -1.03728169E-04
   8.34119987      -1.03233455E-04
   8.35319996      -1.02911057E-04
   8.36520004      -1.02774968E-04
   8.37720013      -1.02832237E-04
   8.38920021      -1.03082391E-04
   8.40120029      -1.03517166E-04
   8.41320038      -1.04120685E-04
   8.42520046      -1.04869949E-04
   8.43719959      -1.05735788E-04
   8.44919968      -1.06684100E-04
   8.46119976      -1.07677413E-04
   8.47319984      -1.08676621E-04
   8.48519993      -1.09642904E-04
   8.49720001      -1.10539593E-04
   8.50920010      -1.11334011E-04
   8.52120018      -1.11999099E-04
   8.53320026      -1.12514768E-04
   8.54520035      -1.12868795E-04
   8.55720043      -1.13057460E-04
   8.56919956      -1.13085538E-04
   8.58119965      -1.12965950E-04
   8.59319973      -1.12718910E-04
   8.60519981      -1.12370639E-04
   8.61719990      -1.11951835E-04
   8.62919998      -1.11495800E-04
   8.64120007      -1.11036505E-04
   8.65320015      -1.10606634E-04
   8.66520023      -1.10235662E-04
   8.67720032      -1.09948262E-04
   8.68920040      -1.09762870E-04
   8.70119953      -1.09690744E-04
   8.71319962      -1.09735411E-04
   8.72519970      -1.09892571E-04
   8.73719978      -1.10150424E-04
   8.74919987      -1.10490517E-04
   8.76119995      -1.10888861E-04
   8.77320004      -1.11317386E-04
   8.78520012      -1.11745583E-04
   8.79720020      -1.12142312E-04
   8.80920029      -1.12477515E-04
   8.82120037      -1.12723923E-04
   8.83320045      -1.12858543E-04
   8.84519958      -1.12863869E-04
   8.85719967      -1.12728812E-04
   8.86919975      -1.12449248E-04
   8.88119984      -1.12028210E-04
   8.89319992      -1.11475718E-04
   8.90520000      -1.10808214E-04
   8.91720009      -1.10047811E-04
   8.92920017      -1.09221124E-04
   8.94120026      -1.08358101E-04
   8.95320034      -1.07490567E-04
   8.96520042      -1.06650827E-04
   8.97719955      -1.05870247E-04
   8.98919964      -1.05177918E-04
   9.00119972      -1.04599443E-04
   9.01319981      -1.04155944E-04
   9.02519989      -1.03863247E-04
   9.03719997      -1.03731334E-04
   9.04920006      -1.03764069E-04
   9.06120014      -1.03959166E-04
   9.07320023      -1.04308448E-04
   9.08520031      -1.04798382E-04
   9.09720039      -1.05410727E-04
   9.10919952      -1.06123523E-04
   9.12119961      -1.06912092E-04
   9.13319969      -1.07750158E-04
   9.14519978      -1.08611021E-04
   9.15719986      -1.09468674E-04
   9.16919994      -1.10298795E-04
   9.18120003      -1.11079673E-04
   9.19320011      -1.11792870E-04
   9.20520020      -1.12423761E-04
   9.21720028      -1.12961709E-04
   9.22920036      -1.13400143E-04
   9.24120045      -1.13736343E-04
   9.25319958      -1.13971102E-04
   9.26519966      -1.14108094E-04
   9.27719975      -1.14153387E-04
   9.28919983      -1.14114693E-04
   9.30119991      -1.14000795E-04
   9.31320000      -1.13820926E-04
   9.32520008      -1.13584378E-04
   9.33720016      -1.13300150E-04
   9.34920025      -1.12976792E-04
   9.36120033      -1.12622380E-04
   9.37320042      -1.12244576E-04
   9.38519955      -1.11850895E-04
   9.39719963      -1.11448797E-04
   9.40919971      -1.11046000E-04
   9.42119980      -1.10650530E-04
   9.43319988      -1.10270812E-04
   9.44519997      -1.09915571E-04
