 -0.622799993       0.00000000    
 -0.610800028       0.00000000    
 -0.598800004       0.00000000    
 -0.586799979       0.00000000    
 -0.574800014      -2.45686785E-25
 -0.562799990       8.48081125E-26
 -0.550800025       6.68020510E-24
 -0.538800001       2.86046202E-23
 -0.526799977       5.95834972E-23
 -0.514800012       5.44243595E-23
 -0.502799988      -3.94068586E-23
 -0.490799993      -1.30385303E-22
 -0.478799999       2.30436948E-22
 -0.466800004       1.84055966E-21
 -0.454800010       5.22560164E-21
 -0.442799985       9.35771817E-21
 -0.430799991       1.05286473E-20
 -0.418799996       3.06802218E-21
 -0.406800002      -1.65798418E-20
 -0.394800007      -4.30208042E-20
 -0.382800013      -5.65450844E-20
 -0.370799989      -2.62225140E-20
 -0.358799994       7.31633109E-20
 -0.346799999       2.33094689E-19
 -0.334800005       3.87377392E-19
 -0.322800010       4.16425985E-19
 -0.310799986       1.99231763E-19
 -0.298799992      -2.91785221E-19
 -0.286799997      -8.95564358E-19
 -0.274800003      -1.23988739E-18
 -0.262800008      -8.59828191E-19
 -0.250800014       5.33496495E-19
 -0.238800004       2.72794281E-18
 -0.226799995       4.82376909E-18
 -0.214800000       5.40527086E-18
 -0.202800006       3.17851781E-18
 -0.190799996      -2.06903555E-18
 -0.178800002      -8.63486645E-18
 -0.166800007      -1.28252956E-17
 -0.154799998      -1.01458086E-17
 -0.142800003       2.25517270E-18
 -0.130799994       2.27132580E-17
 -0.118799999       4.33210501E-17
 -0.106799997       5.11139716E-17
  -9.48000029E-02   3.31411104E-17
  -8.28000009E-02  -1.54420145E-17
  -7.07999989E-02  -8.34586460E-17
  -5.88000007E-02  -1.40881101E-16
  -4.67999987E-02  -1.45714178E-16
  -3.48000005E-02  -6.20434495E-17
  -2.28000004E-02   1.15065177E-16
  -1.08000003E-02   3.38507612E-16
   1.20000006E-03   5.06246976E-16
   1.31999999E-02   4.88245302E-16
   2.52000000E-02   1.84188347E-16
   3.72000001E-02  -4.03869544E-16
   4.91999984E-02  -1.11644353E-15
   6.12000003E-02  -1.63870467E-15
   7.32000023E-02  -1.58808280E-15
   8.51999968E-02  -6.83513343E-16
   9.71999988E-02   1.05344471E-15
  0.109200001       3.15664001E-15
  0.121200003       4.73582685E-15
  0.133200005       4.72644088E-15
  0.145199999       2.34724095E-15
  0.157199994      -2.37234150E-15
  0.169200003      -8.23067929E-15
  0.181199998      -1.29132629E-14
  0.193200007      -1.36268433E-14
  0.205200002      -8.24201852E-15
  0.217199996       3.39998199E-15
  0.229200006       1.85805842E-14
  0.241200000       3.17931886E-14
  0.253199995       3.61799281E-14
  0.265199989       2.61616070E-14
  0.277200013       4.86349960E-16
  0.289200008      -3.55585448E-14
  0.301200002      -7.00921729E-14
  0.313199997      -8.75392423E-14
  0.325199991      -7.42078314E-14
  0.337199986      -2.49644005E-14
  0.349200010       5.15966495E-14
  0.361200005       1.32273939E-13
  0.373199999       1.84453391E-13
  0.385199994       1.77054511E-13
  0.397199988       9.42975692E-14
  0.409200013      -5.27591005E-14
  0.421200007      -2.22527807E-13
  0.433200002      -3.50984947E-13
  0.445199996      -3.71654069E-13
  0.457199991      -2.42622654E-13
  0.469199985       2.85731623E-14
  0.481200010       3.73057813E-13
  0.493200004       6.70280075E-13
  0.505200028       7.81413508E-13
  0.517199993       5.99761506E-13
  0.529200017       1.02924193E-13
  0.541199982      -6.13174225E-13
  0.553200006      -1.33638684E-12
  0.565199971      -1.78529912E-12
  0.577199996      -1.69503832E-12
  0.589200020      -9.20076515E-13
  0.601199985       4.79176648E-13
  0.613200009       2.20095188E-12
  0.625199974       3.74244776E-12
  0.637199998       4.51931331E-12
  0.649200022       4.04117061E-12
  0.661199987       2.09641657E-12
  0.673200011      -1.11265272E-12
  0.685199976      -4.93807729E-12
  0.697200000      -8.38775490E-12
  0.709200025      -1.03529364E-11
  0.721199989      -9.91377553E-12
  0.733200014      -6.64353728E-12
  0.745199978      -8.20768854E-13
  0.757200003       6.52628385E-12
  0.769200027       1.37793180E-11
  0.781199992       1.90751807E-11
  0.793200016       2.07630909E-11
  0.805199981       1.78609679E-11
  0.817200005       1.03874123E-11
  0.829200029      -5.31225454E-13
  0.841199994      -1.28263294E-11
  0.853200018      -2.39037661E-11
  0.865199983      -3.12230797E-11
  0.877200007      -3.29032739E-11
  0.889199972      -2.82059411E-11
  0.901199996      -1.77713937E-11
  0.913200021      -3.54077184E-12
  0.925199986       1.16273527E-11
  0.937200010       2.45636046E-11
  0.949199975       3.24812156E-11
  0.961199999       3.35983463E-11
  0.973200023       2.75486405E-11
  0.985199988       1.54877743E-11
  0.997200012      -1.29499669E-13
   1.00919998      -1.60580160E-11
   1.02119994      -2.89606238E-11
   1.03320003      -3.61796565E-11
   1.04519999      -3.64704933E-11
   1.05719995      -3.06319414E-11
   1.06920004      -2.20247050E-11
   1.08120000      -1.70271505E-11
   1.09319997      -2.55240828E-11
   1.10520005      -6.15343887E-11
   1.11720002      -1.44061207E-10
   1.12919998      -2.98185449E-10
   1.14119995      -5.56337532E-10
   1.15320003      -9.59636037E-10
   1.16520000      -1.55912461E-09
   1.17719996      -2.41680209E-09
   1.18920004      -3.60648800E-09
   1.20120001      -5.21480947E-09
   1.21319997      -7.34295469E-09
   1.22520006      -1.01102602E-08
   1.23720002      -1.36611256E-08
   1.24919999      -1.81770439E-08
   1.26119995      -2.38959128E-08
   1.27320004      -3.11406758E-08
   1.28520000      -4.03595699E-08
   1.29719996      -5.21791961E-08
   1.30920005      -6.74721505E-08
   1.32120001      -8.74388917E-08
   1.33319998      -1.13703770E-07
   1.34519994      -1.48423268E-07
   1.35720003      -1.94404166E-07
   1.36919999      -2.55226439E-07
   1.38119996      -3.35366138E-07
   1.39320004      -4.40310657E-07
   1.40520000      -5.76658067E-07
   1.41719997      -7.52190203E-07
   1.42920005      -9.75909870E-07
   1.44120002      -1.25803058E-06
   1.45319998      -1.60991044E-06
   1.46519995      -2.04391927E-06
   1.47720003      -2.57323541E-06
   1.48920000      -3.21156631E-06
   1.50119996      -3.97280019E-06
   1.51320004      -4.87058242E-06
   1.52520001      -5.91783828E-06
   1.53719997      -7.12624433E-06
   1.54920006      -8.50567176E-06
   1.56120002      -1.00636189E-05
   1.57319999      -1.18046491E-05
   1.58519995      -1.37298675E-05
   1.59720004      -1.58364528E-05
   1.60920000      -1.81172709E-05
   1.62119997      -2.05605902E-05
   1.63320005      -2.31499289E-05
   1.64520001      -2.58640321E-05
   1.65719998      -2.86770282E-05
   1.66919994      -3.15587276E-05
   1.68120003      -3.44751170E-05
   1.69319999      -3.73889998E-05
   1.70519996      -4.02608021E-05
   1.71720004      -4.30494983E-05
   1.72920001      -4.57136885E-05
   1.74119997      -4.82127070E-05
   1.75320005      -5.05077805E-05
   1.76520002      -5.25632022E-05
   1.77719998      -5.43474598E-05
   1.78919995      -5.58342253E-05
   1.80120003      -5.70032862E-05
   1.81320000      -5.78412255E-05
   1.82519996      -5.83419387E-05
   1.83720005      -5.85069283E-05
   1.84920001      -5.83453038E-05
   1.86119998      -5.78735890E-05
   1.87320006      -5.71152195E-05
   1.88520002      -5.60998815E-05
   1.89719999      -5.48626049E-05
   1.90919995      -5.34426872E-05
   1.92120004      -5.18825436E-05
   1.93320000      -5.02264156E-05
   1.94519997      -4.85191158E-05
   1.95720005      -4.68047583E-05
   1.96920002      -4.51255910E-05
   1.98119998      -4.35209040E-05
   1.99319994      -4.20261276E-05
   2.00519991      -4.06720792E-05
   2.01719999      -3.94843992E-05
   2.02920008      -3.84832347E-05
   2.04119992      -3.76830576E-05
   2.05320001      -3.70927082E-05
   2.06520009      -3.67156390E-05
   2.07719994      -3.65502892E-05
   2.08920002      -3.65905908E-05
   2.10120010      -3.68265828E-05
   2.11319995      -3.72451541E-05
   2.12520003      -3.78307595E-05
   2.13720012      -3.85662388E-05
   2.14919996      -3.94335730E-05
   2.16120005      -4.04146231E-05
   2.17319989      -4.14918395E-05
   2.18519998      -4.26488514E-05
   2.19720006      -4.38709831E-05
   2.20919991      -4.51456435E-05
   2.22119999      -4.64625955E-05
   2.23320007      -4.78140428E-05
   2.24519992      -4.91946303E-05
   2.25720000      -5.06012584E-05
   2.26920009      -5.20327412E-05
   2.28119993      -5.34893989E-05
   2.29320002      -5.49724427E-05
   2.30520010      -5.64833572E-05
   2.31719995      -5.80231826E-05
   2.32920003      -5.95918027E-05
   2.34120011      -6.11872383E-05
   2.35319996      -6.28050402E-05
   2.36520004      -6.44377797E-05
   2.37719989      -6.60747464E-05
   2.38919997      -6.77017961E-05
   2.40120006      -6.93015318E-05
   2.41319990      -7.08536609E-05
   2.42519999      -7.23356716E-05
   2.43720007      -7.37237860E-05
   2.44919991      -7.49941464E-05
   2.46120000      -7.61241972E-05
   2.47320008      -7.70941624E-05
   2.48519993      -7.78886824E-05
   2.49720001      -7.84982622E-05
   2.50920010      -7.89207261E-05
   2.52119994      -7.91623315E-05
   2.53320003      -7.92385763E-05
   2.54520011      -7.91745697E-05
   2.55719995      -7.90049526E-05
   2.56920004      -7.87731624E-05
   2.58119988      -7.85302764E-05
   2.59319997      -7.83331780E-05
   2.60520005      -7.82422358E-05
   2.61719990      -7.83185606E-05
   2.62919998      -7.86208984E-05
   2.64120007      -7.92022838E-05
   2.65319991      -8.01066999E-05
   2.66520000      -8.13656661E-05
   2.67720008      -8.29952842E-05
   2.68919992      -8.49934877E-05
   2.70120001      -8.73380195E-05
   2.71320009      -8.99850202E-05
   2.72519994      -9.28684385E-05
   2.73720002      -9.59003373E-05
   2.74920011      -9.89720938E-05
   2.76119995      -1.01956546E-04
   2.77320004      -1.04711020E-04
   2.78520012      -1.07081112E-04
   2.79719996      -1.08905268E-04
   2.80920005      -1.10019755E-04
   2.82119989      -1.10264140E-04
   2.83319998      -1.09486879E-04
   2.84520006      -1.07550877E-04
   2.85719991      -1.04338826E-04
   2.86919999      -9.97580646E-05
   2.88120008      -9.37448203E-05
   2.89319992      -8.62676097E-05
   2.90520000      -7.73296852E-05
   2.91720009      -6.69703950E-05
   2.92919993      -5.52653510E-05
   2.94120002      -4.23255224E-05
   2.95320010      -2.82950514E-05
   2.96519995      -1.33480289E-05
   2.97720003       2.31574791E-06
   2.98920012       1.84758683E-05
   3.00119996       3.48970862E-05
   3.01320004       5.13355881E-05
   3.02519989       6.75455085E-05
   3.03719997       8.32855221E-05
   3.04920006       9.83251739E-05
   3.06119990       1.12450914E-04
   3.07319999       1.25471401E-04
   3.08520007       1.37222174E-04
   3.09719992       1.47569241E-04
   3.10920000       1.56411756E-04
   3.12120008       1.63683668E-04
   3.13319993       1.69354069E-04
   3.14520001       1.73426641E-04
   3.15720010       1.75937908E-04
   3.16919994       1.76954723E-04
   3.18120003       1.76570815E-04
   3.19320011       1.74902700E-04
   3.20519996       1.72085216E-04
   3.21720004       1.68266561E-04
   3.22919989       1.63603356E-04
   3.24119997       1.58255731E-04
   3.25320005       1.52382621E-04
   3.26519990       1.46137390E-04
   3.27719998       1.39663985E-04
   3.28920007       1.33093738E-04
   3.30119991       1.26542654E-04
   3.31320000       1.20109529E-04
   3.32520008       1.13874798E-04
   3.33719993       1.07899992E-04
   3.34920001       1.02227910E-04
   3.36120009       9.68834283E-05
   3.37319994       9.18748701E-05
   3.38520002       8.71958255E-05
   3.39720011       8.28273478E-05
   3.40919995       7.87405006E-05
   3.42120004       7.48989987E-05
   3.43319988       7.12620749E-05
   3.44519997       6.77872158E-05
   3.45720005       6.44328175E-05
   3.46919990       6.11607029E-05
   3.48119998       5.79383013E-05
   3.49320006       5.47404452E-05
   3.50519991       5.15507854E-05
   3.51719999       4.83626754E-05
   3.52920008       4.51795713E-05
   3.54119992       4.20148463E-05
   3.55320001       3.88911285E-05
   3.56520009       3.58390716E-05
   3.57719994       3.28957249E-05
   3.58920002       3.01024884E-05
   3.60120010       2.75028269E-05
   3.61319995       2.51397923E-05
   3.62520003       2.30534988E-05
   3.63720012       2.12787345E-05
   3.64919996       1.98427442E-05
   3.66120005       1.87633796E-05
   3.67319989       1.80476836E-05
   3.68519998       1.76909998E-05
   3.69720006       1.76766534E-05
   3.70919991       1.79762410E-05
   3.72119999       1.85504978E-05
   3.73320007       1.93507276E-05
   3.74519992       2.03207092E-05
   3.75720000       2.13989952E-05
   3.76920009       2.25214717E-05
   3.78119993       2.36240812E-05
   3.79320002       2.46455511E-05
   3.80520010       2.55299910E-05
   3.81719995       2.62292579E-05
   3.82920003       2.67049581E-05
   3.84120011       2.69300035E-05
   3.85319996       2.68896692E-05
   3.86520004       2.65820890E-05
   3.87719989       2.60182078E-05
   3.88919997       2.52212012E-05
   3.90120006       2.42253718E-05
   3.91319990       2.30746518E-05
   3.92519999       2.18207060E-05
   3.93720007       2.05207962E-05
   3.94919991       1.92354582E-05
   3.96120000       1.80261104E-05
   3.97320008       1.69526775E-05
   3.98519993       1.60713225E-05
   3.99720001       1.54323789E-05
   4.00920010       1.50785272E-05
   4.02120018       1.50432870E-05
   4.03319979       1.53498586E-05
   4.04519987       1.60103373E-05
   4.05719995       1.70253043E-05
   4.06920004       1.83837856E-05
   4.08120012       2.00635841E-05
   4.09320021       2.20319198E-05
   4.10519981       2.42463702E-05
   4.11719990       2.66560492E-05
   4.12919998       2.92030109E-05
   4.14120007       3.18237871E-05
   4.15320015       3.44510590E-05
   4.16520023       3.70153939E-05
   4.17719984       3.94470153E-05
   4.18919992       4.16775983E-05
   4.20120001       4.36420160E-05
   4.21320009       4.52800414E-05
   4.22520018       4.65379926E-05
   4.23719978       4.73702312E-05
   4.24919987       4.77405629E-05
   4.26119995       4.76234636E-05
   4.27320004       4.70051127E-05
   4.28520012       4.58841932E-05
   4.29720020       4.42724049E-05
   4.30919981       4.21947116E-05
   4.32119989       3.96892028E-05
   4.33319998       3.68066030E-05
   4.34520006       3.36093872E-05
   4.35720015       3.01704767E-05
   4.36920023       2.65715353E-05
   4.38119984       2.29008710E-05
   4.39319992       1.92509870E-05
   4.40520000       1.57158338E-05
   4.41720009       1.23878353E-05
   4.42920017       9.35479056E-06
   4.44119978       6.69676410E-06
   4.45319986       4.48307310E-06
   4.46519995       2.76952255E-06
   4.47720003       1.59600381E-06
   4.48920012       9.84591225E-07
   4.50120020       9.38236781E-07
   4.51319981       1.44015985E-06
   4.52519989       2.45399042E-06
   4.53719997       3.92469337E-06
   4.54920006       5.78027448E-06
   4.56120014       7.93421532E-06
   4.57320023       1.02885679E-05
   4.58519983       1.27375934E-05
   4.59719992       1.51717841E-05
   4.60920000       1.74821234E-05
   4.62120008       1.95643806E-05
   4.63320017       2.13232597E-05
   4.64519978       2.26761931E-05
   4.65719986       2.35566240E-05
   4.66919994       2.39166093E-05
   4.68120003       2.37286295E-05
   4.69320011       2.29864963E-05
   4.70520020       2.17053457E-05
   4.71719980       1.99206916E-05
   4.72919989       1.76866106E-05
   4.74119997       1.50731285E-05
   4.75320005       1.21629528E-05
   4.76520014       9.04771241E-06
   4.77720022       5.82389066E-06
   4.78919983       2.58863747E-06
   4.80119991      -5.64321169E-07
   4.81320000      -3.54849362E-06
   4.82520008      -6.28798171E-06
   4.83720016      -8.72023247E-06
   4.84919977      -1.07980704E-05
   4.86119986      -1.24909411E-05
   4.87319994      -1.37853203E-05
   4.88520002      -1.46843067E-05
   4.89720011      -1.52064358E-05
   4.90920019      -1.53838100E-05
   4.92119980      -1.52596622E-05
   4.93319988      -1.48854879E-05
   4.94519997      -1.43179459E-05
   4.95720005      -1.36156432E-05
   4.96920013      -1.28360416E-05
   4.98120022      -1.20326122E-05
   4.99319983      -1.12523985E-05
   5.00519991      -1.05341041E-05
   5.01719999      -9.90680383E-06
   5.02920008      -9.38929952E-06
   5.04120016      -8.99015868E-06
   5.05319977      -8.70838630E-06
   5.06519985      -8.53465281E-06
   5.07719994      -8.45300110E-06
   5.08920002      -8.44288115E-06
   5.10120010      -8.48138097E-06
   5.11320019      -8.54548853E-06
   5.12519979      -8.61424542E-06
   5.13719988      -8.67064318E-06
   5.14919996      -8.70314125E-06
   5.16120005      -8.70671192E-06
   5.17320013      -8.68334791E-06
   5.18520021      -8.64201684E-06
   5.19719982      -8.59806096E-06
   5.20919991      -8.57210580E-06
   5.22119999      -8.58854582E-06
   5.23320007      -8.67374547E-06
   5.24520016      -8.85404461E-06
   5.25719976      -9.15374312E-06
   5.26919985      -9.59318550E-06
   5.28119993      -1.01870801E-05
   5.29320002      -1.09431594E-05
   5.30520010      -1.18612779E-05
   5.31720018      -1.29329928E-05
   5.32919979      -1.41416485E-05
   5.34119987      -1.54629688E-05
   5.35319996      -1.68660899E-05
   5.36520004      -1.83149878E-05
   5.37720013      -1.97701702E-05
   5.38920021      -2.11905826E-05
   5.40119982      -2.25355507E-05
   5.41319990      -2.37666773E-05
   5.42519999      -2.48495980E-05
   5.43720007      -2.57554511E-05
   5.44920015      -2.64620667E-05
   5.46120024      -2.69547327E-05
   5.47319984      -2.72265879E-05
   5.48519993      -2.72785965E-05
   5.49720001      -2.71191420E-05
   5.50920010      -2.67632731E-05
   5.52120018      -2.62316917E-05
   5.53319979      -2.55495106E-05
   5.54519987      -2.47449170E-05
   5.55719995      -2.38477769E-05
   5.56920004      -2.28882873E-05
   5.58120012      -2.18957339E-05
   5.59320021      -2.08974070E-05
   5.60519981      -1.99177157E-05
   5.61719990      -1.89775401E-05
   5.62919998      -1.80938005E-05
   5.64120007      -1.72792643E-05
   5.65320015      -1.65425317E-05
   5.66520023      -1.58882194E-05
   5.67719984      -1.53172587E-05
   5.68919992      -1.48272993E-05
   5.70120001      -1.44131773E-05
   5.71320009      -1.40673747E-05
   5.72520018      -1.37805082E-05
   5.73719978      -1.35417686E-05
   5.74919987      -1.33393260E-05
   5.76119995      -1.31607012E-05
   5.77320004      -1.29930850E-05
   5.78520012      -1.28236334E-05
   5.79720020      -1.26397235E-05
   5.80919981      -1.24292037E-05
   5.82119989      -1.21806215E-05
   5.83319998      -1.18834414E-05
   5.84520006      -1.15282583E-05
   5.85720015      -1.11069839E-05
   5.86920023      -1.06130246E-05
   5.88119984      -1.00414090E-05
   5.89319992      -9.38888752E-06
   5.90520000      -8.65396396E-06
   5.91720009      -7.83687210E-06
   5.92920017      -6.93948959E-06
   5.94119978      -5.96519203E-06
   5.95319986      -4.91865922E-06
   5.96519995      -3.80565621E-06
   5.97720003      -2.63280162E-06
   5.98920012      -1.40735449E-06
   6.00120020      -1.37039805E-07
   6.01319981       1.17006641E-06
   6.02519989       2.50558037E-06
   6.03719997       3.86077500E-06
   6.04920006       5.22646769E-06
   6.06120014       6.59285070E-06
   6.07320023       7.94928656E-06
   6.08519983       9.28409190E-06
   6.09719992       1.05843719E-05
   6.10920000       1.18359158E-05
   6.12120008       1.30232256E-05
   6.13320017       1.41296887E-05
   6.14519978       1.51379318E-05
   6.15719986       1.60303680E-05
   6.16919994       1.67899270E-05
   6.18120003       1.74009401E-05
   6.19320011       1.78501523E-05
   6.20520020       1.81277865E-05
   6.21719980       1.82285930E-05
   6.22919989       1.81528048E-05
   6.24119997       1.79069102E-05
   6.25320005       1.75041623E-05
   6.26520014       1.69647428E-05
   6.27720022       1.63155437E-05
   6.28919983       1.55895195E-05
   6.30119991       1.48246017E-05
   6.31320000       1.40622051E-05
   6.32520008       1.33453841E-05
   6.33720016       1.27167286E-05
   6.34919977       1.22160809E-05
   6.36119986       1.18782436E-05
   6.37319994       1.17307773E-05
   6.38520002       1.17920499E-05
   6.39720011       1.20696786E-05
   6.40920019       1.25594506E-05
   6.42119980       1.32448495E-05
   6.43319988       1.40972261E-05
   6.44519997       1.50766391E-05
   6.45720005       1.61333646E-05
   6.46920013       1.72099990E-05
   6.48120022       1.82440745E-05
   6.49319983       1.91710460E-05
   6.50519991       1.99275164E-05
   6.51719999       2.04545031E-05
   6.52920008       2.07005669E-05
   6.54120016       2.06246441E-05
   6.55319977       2.01984094E-05
   6.56519985       1.94080058E-05
   6.57719994       1.82550775E-05
   6.58920002       1.67570070E-05
   6.60120010       1.49463713E-05
   6.61320019       1.28696065E-05
   6.62519979       1.05849867E-05
   6.63719988       8.16001921E-06
   6.64919996       5.66839435E-06
   6.66120005       3.18667526E-06
   6.67320013       7.90896991E-07
   6.68520021      -1.44673265E-06
   6.69719982      -3.46086358E-06
   6.70919991      -5.19560672E-06
   6.72119999      -6.60659907E-06
   6.73320007      -7.66241919E-06
   6.74520016      -8.34533330E-06
   6.75719976      -8.65133916E-06
   6.76919985      -8.58956173E-06
   6.78119993      -8.18105764E-06
   6.79320002      -7.45712623E-06
   6.80520010      -6.45726095E-06
   6.81720018      -5.22685968E-06
   6.82919979      -3.81484961E-06
   6.84119987      -2.27134547E-06
   6.85319996      -6.45473619E-07
   6.86520004       1.01654007E-06
   6.87720013       2.67293831E-06
   6.88920021       4.28760814E-06
   6.90119982       5.83084193E-06
   6.91319990       7.27968472E-06
   6.92519999       8.61790068E-06
   6.93720007       9.83560949E-06
   6.94920015       1.09286502E-05
   6.96120024       1.18977496E-05
   6.97319984       1.27475732E-05
   6.98519993       1.34857119E-05
   6.99720001       1.41216942E-05
   7.00920010       1.46660495E-05
   7.02120018       1.51294935E-05
   7.03319979       1.55222351E-05
   7.04519987       1.58534367E-05
   7.05719995       1.61308308E-05
   7.06920004       1.63604927E-05
   7.08120012       1.65467300E-05
   7.09320021       1.66921200E-05
   7.10519981       1.67976359E-05
   7.11719990       1.68628612E-05
   7.12919998       1.68862662E-05
   7.14120007       1.68655370E-05
   7.15320015       1.67979288E-05
   7.16520023       1.66806294E-05
   7.17719984       1.65111414E-05
   7.18919992       1.62876204E-05
   7.20120001       1.60092095E-05
   7.21320009       1.56763326E-05
   7.22520018       1.52909361E-05
   7.23719978       1.48566751E-05
   7.24919987       1.43790403E-05
   7.26119995       1.38654077E-05
   7.27320004       1.33250132E-05
   7.28520012       1.27688400E-05
   7.29720020       1.22094107E-05
   7.30919981       1.16605015E-05
   7.32119989       1.11367526E-05
   7.33319998       1.06532098E-05
   7.34520006       1.02247959E-05
   7.35720015       9.86573923E-06
   7.36920023       9.58897817E-06
   7.38119984       9.40557857E-06
   7.39319992       9.32418516E-06
   7.40520000       9.35055141E-06
   7.41720009       9.48717116E-06
   7.42920017       9.73302576E-06
   7.44119978       1.00834905E-05
   7.45319986       1.05303889E-05
   7.46519995       1.10622132E-05
   7.47720003       1.16645024E-05
   7.48920012       1.23203736E-05
   7.50120020       1.30111684E-05
   7.51319981       1.37172110E-05
   7.52519989       1.44186160E-05
   7.53719997       1.50961396E-05
   7.54920006       1.57319901E-05
   7.56120014       1.63105997E-05
   7.57320023       1.68192655E-05
   7.58519983       1.72486762E-05
   7.59719992       1.75932510E-05
   7.60920000       1.78512855E-05
   7.62120008       1.80249117E-05
   7.63320017       1.81198448E-05
   7.64519978       1.81449559E-05
   7.65719986       1.81116811E-05
   7.66919994       1.80333172E-05
   7.68120003       1.79242379E-05
   7.69320011       1.77990642E-05
   7.70520020       1.76718659E-05
   7.71719980       1.75554123E-05
   7.72919989       1.74605266E-05
   7.74119997       1.73955705E-05
   7.75320005       1.73660810E-05
   7.76520014       1.73745866E-05
   7.77720022       1.74205925E-05
   7.78919983       1.75007208E-05
   7.80119991       1.76090125E-05
   7.81320000       1.77373604E-05
   7.82520008       1.78760292E-05
   7.83720016       1.80142433E-05
   7.84919977       1.81408250E-05
   7.86119986       1.82448057E-05
   7.87319994       1.83160282E-05
   7.88520002       1.83456596E-05
   7.89720011       1.83266293E-05
   7.90920019       1.82539352E-05
   7.92119980       1.81248524E-05
   7.93319988       1.79389845E-05
   7.94519997       1.76982157E-05
   7.95720005       1.74065481E-05
   7.96920013       1.70698622E-05
   7.98120022       1.66956106E-05
   7.99319983       1.62924898E-05
   8.00520039       1.58700823E-05
   8.01720047       1.54385416E-05
   8.02919960       1.50082806E-05
   8.04119968       1.45897056E-05
   8.05319977       1.41930022E-05
   8.06519985       1.38279611E-05
   8.07719994       1.35038454E-05
   8.08920002       1.32292944E-05
   8.10120010       1.30122362E-05
   8.11320019       1.28598240E-05
   8.12520027       1.27783460E-05
   8.13720036       1.27731128E-05
   8.14920044       1.28483134E-05
   8.16119957       1.30068238E-05
   8.17319965       1.32499827E-05
   8.18519974       1.35773380E-05
   8.19719982       1.39863923E-05
   8.20919991       1.44723590E-05
   8.22119999       1.50279820E-05
   8.23320007       1.56434271E-05
   8.24520016       1.63062941E-05
   8.25720024       1.70017574E-05
   8.26920033       1.77128586E-05
   8.28120041       1.84209439E-05
   8.29319954       1.91062572E-05
   8.30519962       1.97486479E-05
   8.31719971       2.03283689E-05
   8.32919979       2.08269394E-05
   8.34119987       2.12279865E-05
   8.35319996       2.15180717E-05
   8.36520004       2.16873959E-05
   8.37720013       2.17303932E-05
   8.38920021       2.16461140E-05
   8.40120029       2.14384381E-05
   8.41320038       2.11160313E-05
   8.42520046       2.06920959E-05
   8.43719959       2.01838684E-05
   8.44919968       1.96119381E-05
   8.46119976       1.89993643E-05
   8.47319984       1.83706779E-05
   8.48519993       1.77507627E-05
   8.49720001       1.71637275E-05
   8.50920010       1.66317786E-05
   8.52120018       1.61741737E-05
   8.53320026       1.58062903E-05
   8.54520035       1.55388880E-05
   8.55720043       1.53775618E-05
   8.56919956       1.53224519E-05
   8.58119965       1.53682158E-05
   8.59319973       1.55042744E-05
   8.60519981       1.57153099E-05
   8.61719990       1.59820338E-05
   8.62919998       1.62821470E-05
   8.64120007       1.65914862E-05
   8.65320015       1.68852894E-05
   8.66520023       1.71395022E-05
   8.67720032       1.73320859E-05
   8.68920040       1.74442339E-05
   8.70119953       1.74614433E-05
   8.71319962       1.73743720E-05
   8.72519970       1.71794454E-05
   8.73719978       1.68791375E-05
   8.74919987       1.64819448E-05
   8.76119995       1.60020172E-05
   8.77320004       1.54584704E-05
   8.78520012       1.48743902E-05
   8.79720020       1.42756207E-05
   8.80920029       1.36893532E-05
   8.82120037       1.31426305E-05
   8.83320045       1.26608329E-05
   8.84519958       1.22662514E-05
   8.85719967       1.19768183E-05
   8.86919975       1.18050839E-05
   8.88119984       1.17574928E-05
   8.89319992       1.18340013E-05
   8.90520000       1.20280738E-05
   8.91720009       1.23270238E-05
   8.92920017       1.27127150E-05
   8.94120026       1.31625557E-05
   8.95320034       1.36507342E-05
   8.96520042       1.41496284E-05
   8.97719955       1.46312996E-05
   8.98919964       1.50689921E-05
   9.00119972       1.54385471E-05
   9.01319981       1.57196482E-05
   9.02519989       1.58968378E-05
   9.03719997       1.59602332E-05
   9.04920006       1.59059218E-05
   9.06120014       1.57360209E-05
   9.07320023       1.54583940E-05
   9.08520031       1.50860906E-05
   9.09720039       1.46365201E-05
   9.10919952       1.41304463E-05
   9.12119961       1.35908558E-05
   9.13319969       1.30417948E-05
   9.14519978       1.25072129E-05
   9.15719986       1.20098966E-05
   9.16919994       1.15705443E-05
   9.18120003       1.12070029E-05
   9.19320011       1.09337152E-05
   9.20520020       1.07613732E-05
   9.21720028       1.06967736E-05
   9.22920036       1.07428723E-05
   9.24120045       1.08989962E-05
   9.25319958       1.11611980E-05
   9.26519966       1.15226794E-05
   9.27719975       1.19742745E-05
   9.28919983       1.25049437E-05
   9.30119991       1.31022216E-05
   9.31320000       1.37526249E-05
   9.32520008       1.44419791E-05
   9.33720016       1.51556696E-05
   9.34920025       1.58788171E-05
   9.36120033       1.65963993E-05
   9.37320042       1.72933360E-05
   9.38519955       1.79545696E-05
   9.39719963       1.85651534E-05
   9.40919971       1.91103991E-05
   9.42119980       1.95760695E-05
   9.43319988       1.99486331E-05
   9.44519997       2.02156152E-05
