 -0.622799993         1.00000002E-24
 -0.610800028         1.00000002E-24
 -0.598800004         1.00000002E-24
 -0.586799979         1.00000002E-24
 -0.574800014         3.57744304E-25
 -0.562799990        -2.92812369E-24
 -0.550800025        -9.89669393E-24
 -0.538800001        -1.92478527E-23
 -0.526799977        -6.42346968E-23
 -0.514800012        -3.70601325E-22
 -0.502799988        -1.69221797E-21
 -0.490799993        -5.67141887E-21
 -0.478799999        -1.47041064E-20
 -0.466800004        -3.06062998E-20
 -0.454800010        -5.19525744E-20
 -0.442799985        -7.15675115E-20
 -0.430799991        -7.75438785E-20
 -0.418799996        -6.13223303E-20
 -0.406800002        -3.25986742E-20
 -0.394800007        -3.30806491E-20
 -0.382800013        -1.33644418E-19
 -0.370799989        -4.00289914E-19
 -0.358799994        -8.30538656E-19
 -0.346799999        -1.29192387E-18
 -0.334800005        -1.52202773E-18
 -0.322800010        -1.24802436E-18
 -0.310799986        -4.30038405E-19
 -0.298799992         4.69088904E-19
 -0.286799997         3.87860905E-19
 -0.274800003        -2.03348643E-18
 -0.262800008        -7.66797007E-18
 -0.250800014        -1.58431061E-17
 -0.238800004        -2.35759991E-17
 -0.226799995        -2.58670908E-17
 -0.214800000        -1.76159924E-17
 -0.202800006         2.98810580E-18
 -0.190799996         3.08076471E-17
 -0.178800002         5.19668643E-17
 -0.166800007         4.62200468E-17
 -0.154799998        -5.37468420E-18
 -0.142800003        -1.08767746E-16
 -0.130799994        -2.45497200E-16
 -0.118799999        -3.67945792E-16
 -0.106799997        -4.07388702E-16
  -9.48000029E-02    -2.97272116E-16
  -8.28000009E-02    -7.54343058E-18
  -7.07999989E-02     4.21593841E-16
  -5.88000007E-02     8.63049017E-16
  -4.67999987E-02     1.11889876E-15
  -3.48000005E-02     9.76008431E-16
  -2.28000004E-02     2.92911325E-16
  -1.08000003E-02    -9.07502841E-16
   1.20000006E-03    -2.37711983E-15
   1.31999999E-02    -3.65145909E-15
   2.52000000E-02    -4.15056690E-15
   3.72000001E-02    -3.36425224E-15
   4.91999984E-02    -1.07739584E-15
   6.12000003E-02     2.43941762E-15
   7.32000023E-02     6.35924215E-15
   8.51999968E-02     9.41409951E-15
   9.71999988E-02     1.02120494E-14
  0.109200001         7.70078818E-15
  0.121200003         1.65166025E-15
  0.133200005        -7.00632154E-15
  0.145199999        -1.61668825E-14
  0.157199994        -2.29376149E-14
  0.169200003        -2.44159754E-14
  0.181199998        -1.86782708E-14
  0.193200007        -5.68711558E-15
  0.205200002         1.22245243E-14
  0.217199996         3.05692971E-14
  0.229200006         4.37143607E-14
  0.241200000         4.65121885E-14
  0.253199995         3.61163532E-14
  0.265199989         1.33775674E-14
  0.277200013        -1.67667546E-14
  0.289200008        -4.62540942E-14
  0.301200002        -6.61275573E-14
  0.313199997        -6.94636812E-14
  0.325199991        -5.40469464E-14
  0.337199986        -2.37461401E-14
  0.349200010         1.21627206E-14
  0.361200005         4.18376712E-14
  0.373199999         5.51638406E-14
  0.385199994         4.80690384E-14
  0.397199988         2.51283894E-14
  0.409200013        -9.59320188E-16
  0.421200007        -1.34946731E-14
  0.433200002         1.36865267E-15
  0.445199996         4.72040924E-14
  0.457199991         1.12232008E-13
  0.469199985         1.69269750E-13
  0.481200010         1.82108587E-13
  0.493200004         1.17601743E-13
  0.505200028        -3.95789765E-14
  0.517199993        -2.74297241E-13
  0.529200017        -5.35610835E-13
  0.541199982        -7.42615225E-13
  0.553200006        -8.02428382E-13
  0.565199971        -6.37424467E-13
  0.577199996        -2.15141761E-13
  0.589200020         4.28005315E-13
  0.601199985         1.17803206E-12
  0.613200009         1.85576489E-12
  0.625199974         2.25127729E-12
  0.637199998         2.17511534E-12
  0.649200022         1.51526686E-12
  0.661199987         2.85244701E-13
  0.673200011        -1.35142949E-12
  0.685199976        -3.09114626E-12
  0.697200000        -4.53793253E-12
  0.709200025        -5.28304787E-12
  0.721199989        -5.00145324E-12
  0.733200014        -3.54378029E-12
  0.745199978        -1.00066732E-12
  0.757200003         2.27977446E-12
  0.769200027         5.73152897E-12
  0.781199992         8.66485789E-12
  0.793200016         1.03994556E-11
  0.805199981         1.04102456E-11
  0.817200005         8.45420348E-12
  0.829200029         4.64839495E-12
  0.841199994        -5.21691685E-13
  0.853200018        -6.27017145E-12
  0.865199983        -1.16452395E-11
  0.877200007        -1.57051160E-11
  0.889199972        -1.77005771E-11
  0.901199996        -1.72266784E-11
  0.913200021        -1.43118130E-11
  0.925199986        -9.42500158E-12
  0.937200010        -3.39952003E-12
  0.949199975         2.71190427E-12
  0.961199999         7.81986108E-12
  0.973200023         1.09790562E-11
  0.985199988         1.15253319E-11
  0.997200012         9.13245781E-12
   1.00919998         3.76269155E-12
   1.02119994        -4.49990566E-12
   1.03320003        -1.57307656E-11
   1.04519999        -3.05453197E-11
   1.05719995        -5.05545779E-11
   1.06920004        -7.88752466E-11
   1.08120000        -1.20671348E-10
   1.09319997        -1.83722648E-10
   1.10520005        -2.79021278E-10
   1.11720002        -4.21424118E-10
   1.12919998        -6.30394126E-10
   1.14119995        -9.30894917E-10
   1.15320003        -1.35451683E-09
   1.16520000        -1.94096694E-09
   1.17719996        -2.74009970E-09
   1.18920004        -3.81474274E-09
   1.20120001        -5.24469890E-09
   1.21319997        -7.13241510E-09
   1.22520006        -9.61102309E-09
   1.23720002        -1.28556108E-08
   1.24919999        -1.70988077E-08
   1.26119995        -2.26518946E-08
   1.27320004        -2.99329095E-08
   1.28520000        -3.95031812E-08
   1.29719996        -5.21137657E-08
   1.30920005        -6.87630219E-08
   1.32120001        -9.07665552E-08
   1.33319998        -1.19839555E-07
   1.34519994        -1.58191270E-07
   1.35720003        -2.08630468E-07
   1.36919999        -2.74678996E-07
   1.38119996        -3.60688659E-07
   1.39320004        -4.71957264E-07
   1.40520000        -6.14835244E-07
   1.41719997        -7.96815300E-07
   1.42920005        -1.02659374E-06
   1.44120002        -1.31409627E-06
   1.45319998        -1.67045516E-06
   1.46519995        -2.10792837E-06
   1.47720003        -2.63975471E-06
   1.48920000        -3.27993553E-06
   1.50119996        -4.04294224E-06
   1.51320004        -4.94334517E-06
   1.52520001        -5.99537498E-06
   1.53719997        -7.21241713E-06
   1.54920006        -8.60645559E-06
   1.56120002        -1.01874857E-05
   1.57319999        -1.19629130E-05
   1.58519995        -1.39369622E-05
   1.59720004        -1.61101343E-05
   1.60920000        -1.84787295E-05
   1.62119997        -2.10344697E-05
   1.63320005        -2.37642525E-05
   1.64520001        -2.66500647E-05
   1.65719998        -2.96690650E-05
   1.66919994        -3.27938542E-05
   1.68120003        -3.59929581E-05
   1.69319999        -3.92314832E-05
   1.70519996        -4.24719692E-05
   1.71720004        -4.56753733E-05
   1.72920001        -4.88021869E-05
   1.74119997        -5.18136294E-05
   1.75320005        -5.46728515E-05
   1.76520002        -5.73461039E-05
   1.77719998        -5.98038241E-05
   1.78919995        -6.20215651E-05
   1.80120003        -6.39807186E-05
   1.81320000        -6.56690027E-05
   1.82519996        -6.70807203E-05
   1.83720005        -6.82166574E-05
   1.84920001        -6.90837915E-05
   1.86119998        -6.96946954E-05
   1.87320006        -7.00667078E-05
   1.88520002        -7.02210164E-05
   1.89719999        -7.01814934E-05
   1.90919995        -6.99736338E-05
   1.92120004        -6.96233983E-05
   1.93320000        -6.91562091E-05
   1.94519997        -6.85960622E-05
   1.95720005        -6.79648147E-05
   1.96920002        -6.72817114E-05
   1.98119998        -6.65631233E-05
   1.99319994        -6.58225617E-05
   2.00519991        -6.50708243E-05
   2.01719999        -6.43163803E-05
   2.02920008        -6.35659089E-05
   2.04119992        -6.28248526E-05
   2.05320001        -6.20980791E-05
   2.06520009        -6.13905140E-05
   2.07719994        -6.07076508E-05
   2.08920002        -6.00560525E-05
   2.10120010        -5.94436242E-05
   2.11319995        -5.88797702E-05
   2.12520003        -5.83753827E-05
   2.13720012        -5.79426487E-05
   2.14919996        -5.75946942E-05
   2.16120005        -5.73451034E-05
   2.17319989        -5.72072859E-05
   2.18519998        -5.71937962E-05
   2.19720006        -5.73155630E-05
   2.20919991        -5.75811246E-05
   2.22119999        -5.79958905E-05
   2.23320007        -5.85614362E-05
   2.24519992        -5.92749529E-05
   2.25720000        -6.01287902E-05
   2.26920009        -6.11102078E-05
   2.28119993        -6.22013031E-05
   2.29320002        -6.33791860E-05
   2.30520010        -6.46163608E-05
   2.31719995        -6.58813515E-05
   2.32920003        -6.71395683E-05
   2.34120011        -6.83543549E-05
   2.35319996        -6.94881892E-05
   2.36520004        -7.05040366E-05
   2.37719989        -7.13667323E-05
   2.38919997        -7.20444077E-05
   2.40120006        -7.25098434E-05
   2.41319990        -7.27416700E-05
   2.42519999        -7.27254519E-05
   2.43720007        -7.24545243E-05
   2.44919991        -7.19305172E-05
   2.46120000        -7.11636603E-05
   2.47320008        -7.01727840E-05
   2.48519993        -6.89849476E-05
   2.49720001        -6.76349155E-05
   2.50920010        -6.61642989E-05
   2.52119994        -6.46205081E-05
   2.53320003        -6.30555878E-05
   2.54520011        -6.15249082E-05
   2.55719995        -6.00857456E-05
   2.56920004        -5.87959184E-05
   2.58119988        -5.77123355E-05
   2.59319997        -5.68896321E-05
   2.60520005        -5.63787944E-05
   2.61719990        -5.62258610E-05
   2.62919998        -5.64706716E-05
   2.64120007        -5.71456621E-05
   2.65319991        -5.82746979E-05
   2.66520000        -5.98720108E-05
   2.67720008        -6.19411512E-05
   2.68919992        -6.44740576E-05
   2.70120001        -6.74502298E-05
   2.71320009        -7.08360603E-05
   2.72519994        -7.45843208E-05
   2.73720002        -7.86339733E-05
   2.74920011        -8.29101264E-05
   2.76119995        -8.73245081E-05
   2.77320004        -9.17762154E-05
   2.78520012        -9.61529440E-05
   2.79719996        -1.00332625E-04
   2.80920005        -1.04185638E-04
   2.82119989        -1.07577391E-04
   2.83319998        -1.10371337E-04
   2.84520006        -1.12432514E-04
   2.85719991        -1.13631162E-04
   2.86919999        -1.13846771E-04
   2.88120008        -1.12972040E-04
   2.89319992        -1.10916881E-04
   2.90520000        -1.07612192E-04
   2.91720009        -1.03013263E-04
   2.92919993        -9.71026238E-05
   2.94120002        -8.98923099E-05
   2.95320010        -8.14252344E-05
   2.96519995        -7.17757066E-05
   2.97720003        -6.10489078E-05
   2.98920012        -4.93793668E-05
   3.00119996        -3.69283734E-05
   3.01320004        -2.38803823E-05
   3.02519989        -1.04385217E-05
   3.03719997         3.18069146E-06
   3.04920006         1.67532544E-05
   3.06119990         3.00539668E-05
   3.07319999         4.28629028E-05
   3.08520007         5.49717988E-05
   3.09719992         6.61900704E-05
   3.10920000         7.63503340E-05
   3.12120008         8.53129968E-05
   3.13319993         9.29699818E-05
   3.14520001         9.92472123E-05
   3.15720010         1.04105886E-04
   3.16919994         1.07542495E-04
   3.18120003         1.09587592E-04
   3.19320011         1.10303394E-04
   3.20519996         1.09780303E-04
   3.21720004         1.08132692E-04
   3.22919989         1.05493906E-04
   3.24119997         1.02010963E-04
   3.25320005         9.78390599E-05
   3.26519990         9.31361210E-05
   3.27719998         8.80576699E-05
   3.28920007         8.27521508E-05
   3.30119991         7.73569191E-05
   3.31320000         7.19949021E-05
   3.32520008         6.67721688E-05
   3.33719993         6.17762562E-05
   3.34920001         5.70752891E-05
   3.36120009         5.27179545E-05
   3.37319994         4.87340549E-05
   3.38520002         4.51356645E-05
   3.39720011         4.19187745E-05
   3.40919995         3.90652604E-05
   3.42120004         3.65450906E-05
   3.43319988         3.43186912E-05
   3.44519997         3.23393215E-05
   3.45720005         3.05554822E-05
   3.46919990         2.89131913E-05
   3.48119998         2.73581591E-05
   3.49320006         2.58377695E-05
   3.50519991         2.43028953E-05
   3.51719999         2.27094697E-05
   3.52920008         2.10198232E-05
   3.54119992         1.92037805E-05
   3.55320001         1.72394721E-05
   3.56520009         1.51138720E-05
   3.57719994         1.28230440E-05
   3.58920002         1.03720822E-05
   3.60120010         7.77476544E-06
   3.61319995         5.05290109E-06
   3.62520003         2.23540610E-06
   3.63720012        -6.42869054E-07
   3.64919996        -3.54253370E-06
   3.66120005        -6.42121631E-06
   3.67319989        -9.23523930E-06
   3.68519998        -1.19413389E-05
   3.69720006        -1.44983815E-05
   3.70919991        -1.68689749E-05
   3.72119999        -1.90209503E-05
   3.73320007        -2.09286191E-05
   3.74519992        -2.25737786E-05
   3.75720000        -2.39464043E-05
   3.76920009        -2.50450212E-05
   3.78119993        -2.58767213E-05
   3.79320002        -2.64568516E-05
   3.80520010        -2.68083386E-05
   3.81719995        -2.69607626E-05
   3.82920003        -2.69491047E-05
   3.84120011        -2.68123422E-05
   3.85319996        -2.65918407E-05
   3.86520004        -2.63296915E-05
   3.87719989        -2.60670149E-05
   3.88919997        -2.58423297E-05
   3.90120006        -2.56900275E-05
   3.91319990        -2.56390431E-05
   3.92519999        -2.57117845E-05
   3.93720007        -2.59233384E-05
   3.94919991        -2.62810063E-05
   3.96120000        -2.67841988E-05
   3.97320008        -2.74246868E-05
   3.98519993        -2.81871817E-05
   3.99720001        -2.90502412E-05
   4.00920010        -2.99874355E-05
   4.02120018        -3.09687312E-05
   4.03319979        -3.19619976E-05
   4.04519987        -3.29345567E-05
   4.05719995        -3.38547397E-05
   4.06920004        -3.46932684E-05
   4.08120012        -3.54245058E-05
   4.09320021        -3.60274134E-05
   4.10519981        -3.64862244E-05
   4.11719990        -3.67907778E-05
   4.12919998        -3.69365189E-05
   4.14120007        -3.69241861E-05
   4.15320015        -3.67592402E-05
   4.16520023        -3.64510233E-05
   4.17719984        -3.60118102E-05
   4.18919992        -3.54557742E-05
   4.20120001        -3.47979658E-05
   4.21320009        -3.40533843E-05
   4.22520018        -3.32362397E-05
   4.23719978        -3.23593922E-05
   4.24919987        -3.14340905E-05
   4.26119995        -3.04699606E-05
   4.27320004        -2.94752608E-05
   4.28520012        -2.84573580E-05
   4.29720020        -2.74233716E-05
   4.30919981        -2.63809252E-05
   4.32119989        -2.53389007E-05
   4.33319998        -2.43081286E-05
   4.34520006        -2.33019200E-05
   4.35720015        -2.23363622E-05
   4.36920023        -2.14303582E-05
   4.38119984        -2.06053210E-05
   4.39319992        -1.98845592E-05
   4.40520000        -1.92923762E-05
   4.41720009        -1.88528902E-05
   4.42920017        -1.85886947E-05
   4.44119978        -1.85194258E-05
   4.45319986        -1.86603247E-05
   4.46519995        -1.90209303E-05
   4.47720003        -1.96039782E-05
   4.48920012        -2.04045919E-05
   4.50120020        -2.14098600E-05
   4.51319981        -2.25988151E-05
   4.52519989        -2.39428282E-05
   4.53719997        -2.54064435E-05
   4.54920006        -2.69485663E-05
   4.56120014        -2.85239603E-05
   4.57320023        -3.00849861E-05
   4.58519983        -3.15834513E-05
   4.59719992        -3.29725081E-05
   4.60920000        -3.42084568E-05
   4.62120008        -3.52524257E-05
   4.63320017        -3.60718004E-05
   4.64519978        -3.66413624E-05
   4.65719986        -3.69441223E-05
   4.66919994        -3.69718000E-05
   4.68120003        -3.67249995E-05
   4.69320011        -3.62130340E-05
   4.70520020        -3.54535077E-05
   4.71719980        -3.44716391E-05
   4.72919989        -3.32993914E-05
   4.74119997        -3.19744613E-05
   4.75320005        -3.05391404E-05
   4.76520014        -2.90391199E-05
   4.77720022        -2.75222483E-05
   4.78919983        -2.60372544E-05
   4.80119991        -2.46324926E-05
   4.81320000        -2.33547125E-05
   4.82520008        -2.22478538E-05
   4.83720016        -2.13519215E-05
   4.84919977        -2.07019402E-05
   4.86119986        -2.03270320E-05
   4.87319994        -2.02496358E-05
   4.88520002        -2.04848911E-05
   4.89720011        -2.10402595E-05
   4.90920019        -2.19153262E-05
   4.92119980        -2.31018821E-05
   4.93319988        -2.45842384E-05
   4.94519997        -2.63397869E-05
   4.95720005        -2.83397640E-05
   4.96920013        -3.05502144E-05
   4.98120022        -3.29330869E-05
   4.99319983        -3.54474032E-05
   5.00519991        -3.80504935E-05
   5.01719999        -4.06991603E-05
   5.02920008        -4.33507521E-05
   5.04120016        -4.59641560E-05
   5.05319977        -4.85005730E-05
   5.06519985        -5.09241327E-05
   5.07719994        -5.32023114E-05
   5.08920002        -5.53061764E-05
   5.10120010        -5.72104800E-05
   5.11320019        -5.88936418E-05
   5.12519979        -6.03376393E-05
   5.13719988        -6.15278914E-05
   5.14919996        -6.24531604E-05
   5.16120005        -6.31054936E-05
   5.17320013        -6.34802345E-05
   5.18520021        -6.35761462E-05
   5.19719982        -6.33956079E-05
   5.20919991        -6.29448550E-05
   5.22119999        -6.22342995E-05
   5.23320007        -6.12787771E-05
   5.24520016        -6.00977874E-05
   5.25719976        -5.87155773E-05
   5.26919985        -5.71610290E-05
   5.28119993        -5.54674007E-05
   5.29320002        -5.36717380E-05
   5.30520010        -5.18140769E-05
   5.31720018        -4.99363523E-05
   5.32919979        -4.80811068E-05
   5.34119987        -4.62899734E-05
   5.35319996        -4.46021040E-05
   5.36520004        -4.30525251E-05
   5.37720013        -4.16705734E-05
   5.38920021        -4.04785060E-05
   5.40119982        -3.94903691E-05
   5.41319990        -3.87111795E-05
   5.42519999        -3.81365862E-05
   5.43720007        -3.77529141E-05
   5.44920015        -3.75377567E-05
   5.46120024        -3.74609772E-05
   5.47319984        -3.74861993E-05
   5.48519993        -3.75726086E-05
   5.49720001        -3.76770586E-05
   5.50920010        -3.77563447E-05
   5.52120018        -3.77694778E-05
   5.53319979        -3.76799071E-05
   5.54519987        -3.74574884E-05
   5.55719995        -3.70801608E-05
   5.56920004        -3.65351370E-05
   5.58120012        -3.58196303E-05
   5.59320021        -3.49410402E-05
   5.60519981        -3.39165636E-05
   5.61719990        -3.27722955E-05
   5.62919998        -3.15418656E-05
   5.64120007        -3.02646786E-05
   5.65320015        -2.89838845E-05
   5.66520023        -2.77441759E-05
   5.67719984        -2.65895633E-05
   5.68919992        -2.55612267E-05
   5.70120001        -2.46955569E-05
   5.71320009        -2.40225108E-05
   5.72520018        -2.35643129E-05
   5.73719978        -2.33345927E-05
   5.74919987        -2.33379378E-05
   5.76119995        -2.35699063E-05
   5.77320004        -2.40174195E-05
   5.78520012        -2.46595446E-05
   5.79720020        -2.54685365E-05
   5.80919981        -2.64111368E-05
   5.82119989        -2.74499816E-05
   5.83319998        -2.85451242E-05
   5.84520006        -2.96554845E-05
   5.85720015        -3.07402988E-05
   5.86920023        -3.17603881E-05
   5.88119984        -3.26793015E-05
   5.89319992        -3.34642464E-05
   5.90520000        -3.40868392E-05
   5.91720009        -3.45236331E-05
   5.92920017        -3.47564819E-05
   5.94119978        -3.47727037E-05
   5.95319986        -3.45651351E-05
   5.96519995        -3.41320374E-05
   5.97720003        -3.34769211E-05
   5.98920012        -3.26083027E-05
   6.00120020        -3.15394173E-05
   6.01319981        -3.02878980E-05
   6.02519989        -2.88753927E-05
   6.03719997        -2.73272035E-05
   6.04920006        -2.56718504E-05
   6.06120014        -2.39406090E-05
   6.07320023        -2.21669870E-05
   6.08519983        -2.03861327E-05
   6.09719992        -1.86341586E-05
   6.10920000        -1.69473897E-05
   6.12120008        -1.53615347E-05
   6.13320017        -1.39107751E-05
   6.14519978        -1.26268278E-05
   6.15719986        -1.15379880E-05
   6.16919994        -1.06682064E-05
   6.18120003        -1.00362367E-05
   6.19320011        -9.65491927E-06
   6.20520020        -9.53064409E-06
   6.21719980        -9.66302650E-06
   6.22919989        -1.00448524E-05
   6.24119997        -1.06623011E-05
   6.25320005        -1.14954510E-05
   6.26520014        -1.25190563E-05
   6.27720022        -1.37035704E-05
   6.28919983        -1.50163496E-05
   6.30119991        -1.64229859E-05
   6.31320000        -1.78886767E-05
   6.32520008        -1.93795549E-05
   6.33720016        -2.08639012E-05
   6.34919977        -2.23131519E-05
   6.36119986        -2.37026325E-05
   6.37319994        -2.50119992E-05
   6.38520002        -2.62253343E-05
   6.39720011        -2.73309270E-05
   6.40920019        -2.83207464E-05
   6.42119980        -2.91897049E-05
   6.43319988        -2.99347303E-05
   6.44519997        -3.05538124E-05
   6.45720005        -3.10450487E-05
   6.46920013        -3.14058670E-05
   6.48120022        -3.16324185E-05
   6.49319983        -3.17193480E-05
   6.50519991        -3.16598089E-05
   6.51719999        -3.14459212E-05
   6.52920008        -3.10695032E-05
   6.54120016        -3.05231188E-05
   6.55319977        -2.98013529E-05
   6.56519985        -2.89021427E-05
   6.57719994        -2.78281477E-05
   6.58920002        -2.65879553E-05
   6.60120010        -2.51970450E-05
   6.61320019        -2.36783853E-05
   6.62519979        -2.20625898E-05
   6.63719988        -2.03875661E-05
   6.64919996        -1.86976522E-05
   6.66120005        -1.70422518E-05
   6.67320013        -1.54740228E-05
   6.68520021        -1.40467182E-05
   6.69719982        -1.28128077E-05
   6.70919991        -1.18209991E-05
   6.72119999        -1.11138224E-05
   6.73320007        -1.07254446E-05
   6.74520016        -1.06798198E-05
   6.75719976        -1.09893190E-05
   6.76919985        -1.16539250E-05
   6.78119993        -1.26610375E-05
   6.79320002        -1.39859048E-05
   6.80520010        -1.55926555E-05
   6.81720018        -1.74358847E-05
   6.82919979        -1.94626791E-05
   6.84119987        -2.16149729E-05
   6.85319996        -2.38321081E-05
   6.86520004        -2.60534543E-05
   6.87720013        -2.82209276E-05
   6.88920021        -3.02813078E-05
   6.90119982        -3.21882180E-05
   6.91319990        -3.39036560E-05
   6.92519999        -3.53990799E-05
   6.93720007        -3.66559252E-05
   6.94920015        -3.76656317E-05
   6.96120024        -3.84291379E-05
   6.97319984        -3.89559609E-05
   6.98519993        -3.92629117E-05
   6.99720001        -3.93725313E-05
   7.00920010        -3.93113623E-05
   7.02120018        -3.91082031E-05
   7.03319979        -3.87923683E-05
   7.04519987        -3.83921360E-05
   7.05719995        -3.79333978E-05
   7.06920004        -3.74386218E-05
   7.08120012        -3.69261179E-05
   7.09320021        -3.64096959E-05
   7.10519981        -3.58986072E-05
   7.11719990        -3.53978321E-05
   7.12919998        -3.49086404E-05
   7.14120007        -3.44293330E-05
   7.15320015        -3.39561338E-05
   7.16520023        -3.34841316E-05
   7.17719984        -3.30082257E-05
   7.18919992        -3.25239671E-05
   7.20120001        -3.20282998E-05
   7.21320009        -3.15200959E-05
   7.22520018        -3.10005234E-05
   7.23719978        -3.04731930E-05
   7.24919987        -2.99441253E-05
   7.26119995        -2.94215279E-05
   7.27320004        -2.89154596E-05
   7.28520012        -2.84373764E-05
   7.29720020        -2.79996148E-05
   7.30919981        -2.76148658E-05
   7.32119989        -2.72956331E-05
   7.33319998        -2.70537403E-05
   7.34520006        -2.68998774E-05
   7.35720015        -2.68432086E-05
   7.36920023        -2.68910389E-05
   7.38119984        -2.70485416E-05
   7.39319992        -2.73185451E-05
   7.40520000        -2.77013642E-05
   7.41720009        -2.81946686E-05
   7.42920017        -2.87934199E-05
   7.44119978        -2.94898182E-05
   7.45319986        -3.02733188E-05
   7.46519995        -3.11307012E-05
   7.47720003        -3.20462095E-05
   7.48920012        -3.30017683E-05
   7.50120020        -3.39773178E-05
   7.51319981        -3.49512047E-05
   7.52519989        -3.59007281E-05
   7.53719997        -3.68027431E-05
   7.54920006        -3.76343487E-05
   7.56120014        -3.83736515E-05
   7.57320023        -3.90005262E-05
   7.58519983        -3.94973686E-05
   7.59719992        -3.98498087E-05
   7.60920000        -4.00472891E-05
   7.62120008        -4.00835597E-05
   7.63320017        -3.99569690E-05
   7.64519978        -3.96705836E-05
   7.65719986        -3.92321017E-05
   7.66919994        -3.86535867E-05
   7.68120003        -3.79509765E-05
   7.69320011        -3.71434944E-05
   7.70520020        -3.62528590E-05
   7.71719980        -3.53024589E-05
   7.72919989        -3.43164720E-05
   7.74119997        -3.33189964E-05
   7.75320005        -3.23332424E-05
   7.76520014        -3.13807905E-05
   7.77720022        -3.04810274E-05
   7.78919983        -2.96506842E-05
   7.80119991        -2.89035688E-05
   7.81320000        -2.82504370E-05
   7.82520008        -2.76990231E-05
   7.83720016        -2.72542002E-05
   7.84919977        -2.69182128E-05
   7.86119986        -2.66909956E-05
   7.87319994        -2.65705148E-05
   7.88520002        -2.65530925E-05
   7.89720011        -2.66337083E-05
   7.90920019        -2.68062486E-05
   7.92119980        -2.70636774E-05
   7.93319988        -2.73981623E-05
   7.94519997        -2.78011175E-05
   7.95720005        -2.82632082E-05
   7.96920013        -2.87743296E-05
   7.98120022        -2.93235662E-05
   7.99319983        -2.98991908E-05
   8.00520039        -3.04886889E-05
   8.01720047        -3.10788637E-05
   8.02919960        -3.16559854E-05
   8.04119968        -3.22060769E-05
   8.05319977        -3.27152120E-05
   8.06519985        -3.31699557E-05
   8.07719994        -3.35577824E-05
   8.08920002        -3.38675745E-05
   8.10120010        -3.40900915E-05
   8.11320019        -3.42183703E-05
   8.12520027        -3.42481035E-05
   8.13720036        -3.41778868E-05
   8.14920044        -3.40093429E-05
   8.16119957        -3.37471392E-05
   8.17319965        -3.33988610E-05
   8.18519974        -3.29747527E-05
   8.19719982        -3.24873909E-05
   8.20919991        -3.19512183E-05
   8.22119999        -3.13820710E-05
   8.23320007        -3.07966620E-05
   8.24520016        -3.02120752E-05
   8.25720024        -2.96452527E-05
   8.26920033        -2.91125816E-05
   8.28120041        -2.86295053E-05
   8.29319954        -2.82101937E-05
   8.30519962        -2.78672978E-05
   8.31719971        -2.76117371E-05
   8.32919979        -2.74525282E-05
   8.34119987        -2.73966525E-05
   8.35319996        -2.74488975E-05
   8.36520004        -2.76117298E-05
   8.37720013        -2.78851312E-05
   8.38920021        -2.82664423E-05
   8.40120029        -2.87501916E-05
   8.41320038        -2.93279609E-05
   8.42520046        -2.99882831E-05
   8.43719959        -3.07166119E-05
   8.44919968        -3.14954050E-05
   8.46119976        -3.23043278E-05
   8.47319984        -3.31206102E-05
   8.48519993        -3.39195685E-05
   8.49720001        -3.46752749E-05
   8.50920010        -3.53613941E-05
   8.52120018        -3.59521146E-05
   8.53320026        -3.64231601E-05
   8.54520035        -3.67528410E-05
   8.55720043        -3.69230402E-05
   8.56919956        -3.69201371E-05
   8.58119965        -3.67357679E-05
   8.59319973        -3.63673571E-05
   8.60519981        -3.58184407E-05
   8.61719990        -3.50986957E-05
   8.62919998        -3.42236781E-05
   8.64120007        -3.32143354E-05
   8.65320015        -3.20962099E-05
   8.66520023        -3.08985072E-05
   8.67720032        -2.96529415E-05
   8.68920040        -2.83925747E-05
   8.70119953        -2.71505851E-05
   8.71319962        -2.59591070E-05
   8.72519970        -2.48481592E-05
   8.73719978        -2.38447465E-05
   8.74919987        -2.29721136E-05
   8.76119995        -2.22492399E-05
   8.77320004        -2.16905064E-05
   8.78520012        -2.13055719E-05
   8.79720020        -2.10994403E-05
   8.80920029        -2.10726539E-05
   8.82120037        -2.12216110E-05
   8.83320045        -2.15389773E-05
   8.84519958        -2.20141319E-05
   8.85719967        -2.26336506E-05
   8.86919975        -2.33817773E-05
   8.88119984        -2.42408914E-05
   8.89319992        -2.51919464E-05
   8.90520000        -2.62148751E-05
   8.91720009        -2.72889938E-05
   8.92920017        -2.83933568E-05
   8.94120026        -2.95071295E-05
   8.95320034        -3.06099355E-05
   8.96520042        -3.16822188E-05
   8.97719955        -3.27055968E-05
   8.98919964        -3.36632111E-05
   9.00119972        -3.45400804E-05
   9.01319981        -3.53233991E-05
   9.02519989        -3.60028280E-05
   9.03719997        -3.65707238E-05
   9.04920006        -3.70222879E-05
   9.06120014        -3.73556613E-05
   9.07320023        -3.75719173E-05
   9.08520031        -3.76749485E-05