 -0.622799993         1.00000002E-24
 -0.610800028         1.00000002E-24
 -0.598800004         1.00000002E-24
 -0.586799979         1.00000002E-24
 -0.574800014         8.83836208E-25
 -0.562799990         3.86104691E-25
 -0.550800025         3.64429629E-25
 -0.538800001         6.10635454E-24
 -0.526799977         2.76822083E-23
 -0.514800012         6.58749217E-23
 -0.502799988         8.51804622E-23
 -0.490799993         2.50968303E-23
 -0.478799999        -4.57493697E-23
 -0.466800004         4.20741652E-22
 -0.454800010         2.79177960E-21
 -0.442799985         8.99258013E-21
 -0.430799991         1.99642997E-20
 -0.418799996         3.29335563E-20
 -0.406800002         3.93440187E-20
 -0.394800007         2.70234526E-20
 -0.382800013        -1.03347194E-20
 -0.370799989        -5.79901754E-20
 -0.358799994        -6.91018670E-20
 -0.346799999         2.58730528E-20
 -0.334800005         2.76773263E-19
 -0.322800010         6.45978686E-19
 -0.310799986         9.55201908E-19
 -0.298799992         9.11181217E-19
 -0.286799997         2.61855655E-19
 -0.274800003        -9.35634537E-19
 -0.262800008        -2.06747632E-18
 -0.250800014        -1.96373629E-18
 -0.238800004         6.42473198E-19
 -0.226799995         6.18673444E-18
 -0.214800000         1.32257850E-17
 -0.202800006         1.79779203E-17
 -0.190799996         1.52424092E-17
 -0.178800002         1.05242810E-18
 -0.166800007        -2.35687794E-17
 -0.154799998        -4.95713492E-17
 -0.142800003        -6.00943870E-17
 -0.130799994        -3.59273591E-17
 -0.118799999         3.39503213E-17
 -0.106799997         1.40228197E-16
  -9.48000029E-02     2.45997585E-16
  -8.28000009E-02     2.91504112E-16
  -7.07999989E-02     2.14805054E-16
  -5.88000007E-02    -1.49814784E-17
  -4.67999987E-02    -3.63976410E-16
  -3.48000005E-02    -7.17666082E-16
  -2.28000004E-02    -8.99921155E-16
  -1.08000003E-02    -7.32912039E-16
   1.20000006E-03    -1.24955928E-16
   1.31999999E-02     8.46515622E-16
   2.52000000E-02     1.90023943E-15
   3.72000001E-02     2.60036616E-15
   4.91999984E-02     2.49699257E-15
   6.12000003E-02     1.32358417E-15
   7.32000023E-02    -8.21580613E-16
   8.51999968E-02    -3.39801455E-15
   9.71999988E-02    -5.51540167E-15
  0.109200001        -6.20210695E-15
  0.121200003        -4.77848131E-15
  0.133200005        -1.20010402E-15
  0.145199999         3.78006622E-15
  0.157199994         8.73293086E-15
  0.169200003         1.19566281E-14
  0.181199998         1.20410621E-14
  0.193200007         8.39001466E-15
  0.205200002         1.49615612E-15
  0.217199996        -7.14475086E-15
  0.229200006        -1.54447615E-14
  0.241200000        -2.12853196E-14
  0.253199995        -2.29998769E-14
  0.265199989        -1.96150520E-14
  0.277200013        -1.08520718E-14
  0.289200008         2.93551105E-15
  0.301200002         2.06419490E-14
  0.313199997         3.99757775E-14
  0.325199991         5.68679083E-14
  0.337199986         6.52092312E-14
  0.349200010         5.75788196E-14
  0.361200005         2.74437726E-14
  0.373199999        -2.72869208E-14
  0.385199994        -1.00346909E-13
  0.397199988        -1.74623282E-13
  0.409200013        -2.23140788E-13
  0.421200007        -2.14924649E-13
  0.433200002        -1.25544283E-13
  0.445199996         5.00517156E-14
  0.457199991         2.86800857E-13
  0.469199985         5.26149599E-13
  0.481200010         6.84257609E-13
  0.493200004         6.72896797E-13
  0.505200028         4.29592803E-13
  0.517199993        -5.10696696E-14
  0.529200017        -6.95972522E-13
  0.541199982        -1.35244474E-12
  0.553200006        -1.81399763E-12
  0.565199971        -1.87145048E-12
  0.577199996        -1.37908099E-12
  0.589200020        -3.17941474E-13
  0.601199985         1.16461008E-12
  0.613200009         2.75695807E-12
  0.625199974         4.03515979E-12
  0.637199998         4.55927483E-12
  0.649200022         3.99425024E-12
  0.661199987         2.22493616E-12
  0.673200011        -5.68227811E-13
  0.685199976        -3.90003741E-12
  0.697200000        -7.05028830E-12
  0.709200025        -9.20508808E-12
  0.721199989        -9.64260009E-12
  0.733200014        -7.92192614E-12
  0.745199978        -4.02925610E-12
  0.757200003         1.55781909E-12
  0.769200027         7.91024971E-12
  0.781199992         1.37915313E-11
  0.793200016         1.78823085E-11
  0.805199981         1.90437874E-11
  0.817200005         1.65685850E-11
  0.829200029         1.03686148E-11
  0.841199994         1.06033541E-12
  0.853200018        -1.00745298E-11
  0.865199983        -2.12534504E-11
  0.877200007        -3.04622993E-11
  0.889199972        -3.57909986E-11
  0.901199996        -3.57845628E-11
  0.913200021        -2.97523707E-11
  0.925199986        -1.79799231E-11
  0.937200010        -1.79718588E-12
  0.949199975         1.65242472E-11
  0.961199999         3.40468556E-11
  0.973200023         4.75867054E-11
  0.985199988         5.42167734E-11
  0.997200012         5.17696649E-11
   1.00919998         3.92437298E-11
   1.02119994         1.70228692E-11
   1.03320003        -1.31554056E-11
   1.04519999        -4.85105983E-11
   1.05719995        -8.57926299E-11
   1.06920004        -1.22064026E-10
   1.08120000        -1.55617241E-10
   1.09319997        -1.86951357E-10
   1.10520005        -2.19751273E-10
   1.11720002        -2.61840438E-10
   1.12919998        -3.26100952E-10
   1.14119995        -4.31369024E-10
   1.15320003        -6.03303574E-10
   1.16520000        -8.75208461E-10
   1.17719996        -1.28878352E-09
   1.18920004        -1.89479699E-09
   1.20120001        -2.75373302E-09
   1.21319997        -3.93662170E-09
   1.22520006        -5.52643131E-09
   1.23720002        -7.62063657E-09
   1.24919999        -1.03358211E-08
   1.26119995        -1.38153373E-08
   1.27320004        -1.82411934E-08
   1.28520000        -2.38513316E-08
   1.29719996        -3.09634238E-08
   1.30920005        -4.00060216E-08
   1.32120001        -5.15576524E-08
   1.33319998        -6.63938238E-08
   1.34519994        -8.55415863E-08
   1.35720003        -1.10340146E-07
   1.36919999        -1.42505272E-07
   1.38119996        -1.84194306E-07
   1.39320004        -2.38066875E-07
   1.40520000        -3.07336052E-07
   1.41719997        -3.95803482E-07
   1.42920005        -5.07870823E-07
   1.44120002        -6.48521734E-07
   1.45319998        -8.23267669E-07
   1.46519995        -1.03805280E-06
   1.47720003        -1.29911609E-06
   1.48920000        -1.61281048E-06
   1.50119996        -1.98538191E-06
   1.51320004        -2.42271426E-06
   1.52520001        -2.93004905E-06
   1.53719997        -3.51168842E-06
   1.54920006        -4.17069714E-06
   1.56120002        -4.90861248E-06
   1.57319999        -5.72517865E-06
   1.58519995        -6.61811555E-06
   1.59720004        -7.58293800E-06
   1.60920000        -8.61282933E-06
   1.62119997        -9.69859138E-06
   1.63320005        -1.08286540E-05
   1.64520001        -1.19891783E-05
   1.65719998        -1.31642337E-05
   1.66919994        -1.43360494E-05
   1.68120003        -1.54853496E-05
   1.69319999        -1.65917554E-05
   1.70519996        -1.76342437E-05
   1.71720004        -1.85916560E-05
   1.72920001        -1.94432469E-05
   1.74119997        -2.01692419E-05
   1.75320005        -2.07513967E-05
   1.76520002        -2.11735387E-05
   1.77719998        -2.14220654E-05
   1.78919995        -2.14863830E-05
   1.80120003        -2.13592448E-05
   1.81320000        -2.10370144E-05
   1.82519996        -2.05197903E-05
   1.83720005        -1.98114103E-05
   1.84920001        -1.89193306E-05
   1.86119998        -1.78543687E-05
   1.87320006        -1.66303253E-05
   1.88520002        -1.52635148E-05
   1.89719999        -1.37722081E-05
   1.90919995        -1.21760122E-05
   1.92120004        -1.04952423E-05
   1.93320000        -8.75028854E-06
   1.94519997        -6.96102416E-06
   1.95720005        -5.14627800E-06
   1.96920002        -3.32338936E-06
   1.98119998        -1.50786730E-06
   1.99319994         2.86838201E-07
   2.00519991         2.04945673E-06
   2.01719999         3.77090964E-06
   2.02920008         5.44422437E-06
   2.04119992         7.06437459E-06
   2.05320001         8.62805609E-06
   2.06520009         1.01334144E-05
   2.07719994         1.15797593E-05
   2.08920002         1.29672571E-05
   2.10120010         1.42966337E-05
   2.11319995         1.55688977E-05
   2.12520003         1.67850740E-05
   2.13720012         1.79459912E-05
   2.14919996         1.90520823E-05
   2.16120005         2.01032435E-05
   2.17319989         2.10987328E-05
   2.18519998         2.20371112E-05
   2.19720006         2.29162561E-05
   2.20919991         2.37334025E-05
   2.22119999         2.44852690E-05
   2.23320007         2.51682250E-05
   2.24519992         2.57785250E-05
   2.25720000         2.63126221E-05
   2.26920009         2.67675059E-05
   2.28119993         2.71411300E-05
   2.29320002         2.74328577E-05
   2.30520010         2.76439496E-05
   2.31719995         2.77780346E-05
   2.32920003         2.78415719E-05
   2.34120011         2.78442585E-05
   2.35319996         2.77993349E-05
   2.36520004         2.77237723E-05
   2.37719989         2.76382998E-05
   2.38919997         2.75672519E-05
   2.40120006         2.75381826E-05
   2.41319990         2.75812763E-05
   2.42519999         2.77285017E-05
   2.43720007         2.80125587E-05
   2.44919991         2.84655853E-05
   2.46120000         2.91177093E-05
   2.47320008         2.99954409E-05
   2.48519993         3.11200019E-05
   2.49720001         3.25056390E-05
   2.50920010         3.41580308E-05
   2.52119994         3.60728154E-05
   2.53320003         3.82344260E-05
   2.54520011         4.06152176E-05
   2.55719995         4.31750086E-05
   2.56920004         4.58611285E-05
   2.58119988         4.86089302E-05
   2.59319997         5.13428313E-05
   2.60520005         5.39778594E-05
   2.61719990         5.64216534E-05
   2.62919998         5.85768648E-05
   2.64120007         6.03437875E-05
   2.65319991         6.16232210E-05
   2.66520000         6.23193409E-05
   2.67720008         6.23424494E-05
   2.68919992         6.16115140E-05
   2.70120001         6.00563726E-05
   2.71320009         5.76194689E-05
   2.72519994         5.42570779E-05
   2.73720002         4.99400121E-05
   2.74920011         4.46537379E-05
   2.76119995         3.83980332E-05
   2.77320004         3.11861550E-05
   2.78520012         2.30436963E-05
   2.79719996         1.40071543E-05
   2.80920005         4.12242343E-06
   2.82119989        -6.55674785E-06
   2.83319998        -1.79701838E-05
   2.84520006        -3.00525026E-05
   2.85719991        -4.27340929E-05
   2.86919999        -5.59417349E-05
   2.88120008        -6.95989729E-05
   2.89319992        -8.36261243E-05
   2.90520000        -9.79400720E-05
   2.91720009        -1.12453890E-04
   2.92919993        -1.27076331E-04
   2.94120002        -1.41711353E-04
   2.95320010        -1.56257767E-04
   2.96519995        -1.70609012E-04
   2.97720003        -1.84653152E-04
   2.98920012        -1.98273308E-04
   3.00119996        -2.11348350E-04
   3.01320004        -2.23753916E-04
   3.02519989        -2.35363899E-04
   3.03719997        -2.46052048E-04
   3.04920006        -2.55694147E-04
   3.06119990        -2.64169910E-04
   3.07319999        -2.71365745E-04
   3.08520007        -2.77176761E-04
   3.09719992        -2.81509478E-04
   3.10920000        -2.84284208E-04
   3.12120008        -2.85437156E-04
   3.13319993        -2.84922688E-04
   3.14520001        -2.82715133E-04
   3.15720010        -2.78810330E-04
   3.16919994        -2.73226993E-04
   3.18120003        -2.66007351E-04
   3.19320011        -2.57217936E-04
   3.20519996        -2.46949290E-04
   3.21720004        -2.35315660E-04
   3.22919989        -2.22453673E-04
   3.24119997        -2.08520971E-04
   3.25320005        -1.93693850E-04
   3.26519990        -1.78164584E-04
   3.27719998        -1.62138051E-04
   3.28920007        -1.45828002E-04
   3.30119991        -1.29452819E-04
   3.31320000        -1.13230963E-04
   3.32520008        -9.73762872E-05
   3.33719993        -8.20932182E-05
   3.34920001        -6.75720948E-05
   3.36120009        -5.39847424E-05
   3.37319994        -4.14804235E-05
   3.38520002        -3.01824548E-05
   3.39720011        -2.01854527E-05
   3.40919995        -1.15534713E-05
   3.42120004        -4.31900253E-06
   3.43319988         1.51703421E-06
   3.44519997         5.98435599E-06
   3.45720005         9.14144857E-06
   3.46919990         1.10728506E-05
   3.48119998         1.18856979E-05
   3.49320006         1.17056761E-05
   3.50519991         1.06725438E-05
   3.51719999         8.93541892E-06
   3.52920008         6.64799381E-06
   3.54119992         3.96389441E-06
   3.55320001         1.03232935E-06
   3.56520009        -2.00581758E-06
   3.57719994        -5.02132752E-06
   3.58920002        -7.89934620E-06
   3.60120010        -1.05413856E-05
   3.61319995        -1.28666343E-05
   3.62520003        -1.48125782E-05
   3.63720012        -1.63350178E-05
   3.64919996        -1.74075230E-05
   3.66120005        -1.80204461E-05
   3.67319989        -1.81795767E-05
   3.68519998        -1.79045292E-05
   3.69720006        -1.72269720E-05
   3.70919991        -1.61887601E-05
   3.72119999        -1.48400140E-05
   3.73320007        -1.32372434E-05
   3.74519992        -1.14414779E-05
   3.75720000        -9.51646416E-06
   3.76920009        -7.52691813E-06
   3.78119993        -5.53682094E-06
   3.79320002        -3.60777744E-06
   3.80520010        -1.79742949E-06
   3.81719995        -1.57940278E-07
   3.82920003         1.26542227E-06
   3.84120011         2.43556678E-06
   3.85319996         3.32466880E-06
   3.86520004         3.91502317E-06
   3.87719989         4.19958360E-06
   3.88919997         4.18213949E-06
   3.90120006         3.87707860E-06
   3.91319990         3.30870171E-06
   3.92519999         2.51008350E-06
   3.93720007         1.52148993E-06
   3.94919991         3.88406988E-07
   3.96120000        -8.40749351E-07
   3.97320008        -2.11712722E-06
   3.98519993        -3.39401436E-06
   3.99720001        -4.62933849E-06
   4.00920010        -5.78794788E-06
   4.02120018        -6.84350562E-06
   4.03319979        -7.77987952E-06
   4.04519987        -8.59189731E-06
   4.05719995        -9.28540794E-06
   4.06920004        -9.87662952E-06
   4.08120012        -1.03907732E-05
   4.09320021        -1.08600643E-05
   4.10519981        -1.13212473E-05
   4.11719990        -1.18127464E-05
   4.12919998        -1.23716854E-05
   4.14120007        -1.30309536E-05
   4.15320015        -1.38165478E-05
   4.16520023        -1.47453648E-05
   4.17719984        -1.58236326E-05
   4.18919992        -1.70460844E-05
   4.20120001        -1.83959528E-05
   4.21320009        -1.98458129E-05
   4.22520018        -2.13592011E-05
   4.23719978        -2.28929384E-05
   4.24919987        -2.43999712E-05
   4.26119995        -2.58325617E-05
   4.27320004        -2.71455810E-05
   4.28520012        -2.82996934E-05
   4.29720020        -2.92641962E-05
   4.30919981        -3.00193005E-05
   4.32119989        -3.05577232E-05
   4.33319998        -3.08854324E-05
   4.34520006        -3.10215328E-05
   4.35720015        -3.09972529E-05
   4.36920023        -3.08541239E-05
   4.38119984        -3.06414913E-05
   4.39319992        -3.04134828E-05
   4.40520000        -3.02256867E-05
   4.41720009        -3.01317395E-05
   4.42920017        -3.01800774E-05
   4.44119978        -3.04110690E-05
   4.45319986        -3.08547387E-05
   4.46519995        -3.15291836E-05
   4.47720003        -3.24398716E-05
   4.48920012        -3.35797595E-05
   4.50120020        -3.49302827E-05
   4.51319981        -3.64630614E-05
   4.52519989        -3.81422433E-05
   4.53719997        -3.99271848E-05
   4.54920006        -4.17754236E-05
   4.56120014        -4.36455048E-05
   4.57320023        -4.54995898E-05
   4.58519983        -4.73055807E-05
   4.59719992        -4.90386119E-05
   4.60920000        -5.06817923E-05
   4.62120008        -5.22261762E-05
   4.63320017        -5.36699445E-05
   4.64519978        -5.50169570E-05
   4.65719986        -5.62747373E-05
   4.66919994        -5.74521473E-05
   4.68120003        -5.85569433E-05
   4.69320011        -5.95934798E-05
   4.70520020        -6.05607493E-05
   4.71719980        -6.14510063E-05
   4.72919989        -6.22490988E-05
   4.74119997        -6.29325805E-05
   4.75320005        -6.34727621E-05
   4.76520014        -6.38364509E-05
   4.77720022        -6.39884674E-05
   4.78919983        -6.38946367E-05
   4.80119991        -6.35251054E-05
   4.81320000        -6.28576454E-05
   4.82520008        -6.18807389E-05
   4.83720016        -6.05961977E-05
   4.84919977        -5.90209602E-05
   4.86119986        -5.71880591E-05
   4.87319994        -5.51464582E-05
   4.88520002        -5.29598510E-05
   4.89720011        -5.07043369E-05
   4.90920019        -4.84651900E-05
   4.92119980        -4.63327851E-05
   4.93319988        -4.43980280E-05
   4.94519997        -4.27474515E-05
   4.95720005        -4.14584065E-05
   4.96920013        -4.05945539E-05
   4.98120022        -4.02019687E-05
   4.99319983        -4.03061567E-05
   5.00519991        -4.09100867E-05
   5.01719999        -4.19934659E-05
   5.02920008        -4.35132315E-05
   5.04120016        -4.54052752E-05
   5.05319977        -4.75872985E-05
   5.06519985        -4.99626040E-05
   5.07719994        -5.24246607E-05
   5.08920002        -5.48621283E-05
   5.10120010        -5.71640994E-05
   5.11320019        -5.92252509E-05
   5.12519979        -6.09506678E-05
   5.13719988        -6.22600710E-05
   5.14919996        -6.30912764E-05
   5.16120005        -6.34027383E-05
   5.17320013        -6.31750663E-05
   5.18520021        -6.24115055E-05
   5.19719982        -6.11374198E-05
   5.20919991        -5.93987679E-05
   5.22119999        -5.72598365E-05
   5.23320007        -5.48001590E-05
   5.24520016        -5.21109832E-05
   5.25719976        -4.92913350E-05
   5.26919985        -4.64439181E-05
   5.28119993        -4.36709997E-05
   5.29320002        -4.10704488E-05
   5.30520010        -3.87320906E-05
   5.31720018        -3.67344874E-05
   5.32919979        -3.51422677E-05
   5.34119987        -3.40041115E-05
   5.35319996        -3.33513635E-05
   5.36520004        -3.31974588E-05
   5.37720013        -3.35379955E-05
   5.38920021        -3.43515894E-05
   5.40119982        -3.56013225E-05
   5.41319990        -3.72368486E-05
   5.42519999        -3.91969079E-05
   5.43720007        -4.14122769E-05
   5.44920015        -4.38088573E-05
   5.46120024        -4.63109063E-05
   5.47319984        -4.88441074E-05
   5.48519993        -5.13384584E-05
   5.49720001        -5.37307460E-05
   5.50920010        -5.59665204E-05
   5.52120018        -5.80015403E-05
   5.53319979        -5.98025545E-05
   5.54519987        -6.13474549E-05
   5.55719995        -6.26248438E-05
   5.56920004        -6.36330224E-05
   5.58120012        -6.43785970E-05
   5.59320021        -6.48746282E-05
   5.60519981        -6.51387527E-05
   5.61719990        -6.51911323E-05
   5.62919998        -6.50525544E-05
   5.64120007        -6.47427296E-05
   5.65320015        -6.42789164E-05
   5.66520023        -6.36749828E-05
   5.67719984        -6.29408460E-05
   5.68919992        -6.20824503E-05
   5.70120001        -6.11021096E-05
   5.71320009        -5.99992927E-05
   5.72520018        -5.87716168E-05
   5.73719978        -5.74161786E-05
   5.74919987        -5.59308610E-05
   5.76119995        -5.43157294E-05
   5.77320004        -5.25742616E-05
   5.78520012        -5.07144250E-05
   5.79720020        -4.87494763E-05
   5.80919981        -4.66984602E-05
   5.82119989        -4.45863734E-05
   5.83319998        -4.24439750E-05
   5.84520006        -4.03072809E-05
   5.85720015        -3.82167600E-05
   5.86920023        -3.62162500E-05
   5.88119984        -3.43516695E-05
   5.89319992        -3.26695954E-05
   5.90520000        -3.12157536E-05
   5.91720009        -3.00334559E-05
   5.92920017        -2.91620945E-05
   5.94119978        -2.86357335E-05
   5.95319986        -2.84818270E-05
   5.96519995        -2.87201256E-05
   5.97720003        -2.93618141E-05
   5.98920012        -3.04088826E-05
   6.00120020        -3.18537677E-05
   6.01319981        -3.36793091E-05
   6.02519989        -3.58589241E-05
   6.03719997        -3.83571387E-05
   6.04920006        -4.11303554E-05
   6.06120014        -4.41278826E-05
   6.07320023        -4.72932043E-05
   6.08519983        -5.05654316E-05
   6.09719992        -5.38808927E-05
   6.10920000        -5.71748569E-05
   6.12120008        -6.03832304E-05
   6.13320017        -6.34443059E-05
   6.14519978        -6.63003520E-05
   6.15719986        -6.88991422E-05
   6.16919994        -7.11952162E-05
   6.18120003        -7.31509353E-05
   6.19320011        -7.47372833E-05
   6.20520020        -7.59343093E-05
   6.21719980        -7.67313395E-05
   6.22919989        -7.71268024E-05
   6.24119997        -7.71278137E-05
   6.25320005        -7.67494639E-05
   6.26520014        -7.60139446E-05
   6.27720022        -7.49494284E-05
   6.28919983        -7.35888680E-05
   6.30119991        -7.19687814E-05
   6.31320000        -7.01279423E-05
   6.32520008        -6.81062083E-05
   6.33720016        -6.59434154E-05
   6.34919977        -6.36783661E-05
   6.36119986        -6.13480734E-05
   6.37319994        -5.89870760E-05
   6.38520002        -5.66270828E-05
   6.39720011        -5.42966627E-05
   6.40920019        -5.20212816E-05
   6.42119980        -4.98234003E-05
   6.43319988        -4.77227950E-05
   6.44519997        -4.57369897E-05
   6.45720005        -4.38817842E-05
   6.46920013        -4.21718360E-05
   6.48120022        -4.06212530E-05
   6.49319983        -3.92441943E-05
   6.50519991        -3.80553429E-05
   6.51719999        -3.70702801E-05
   6.52920008        -3.63057225E-05
   6.54120016        -3.57795143E-05
   6.55319977        -3.55104639E-05
   6.56519985        -3.55178672E-05
   6.57719994        -3.58209072E-05
   6.58920002        -3.64377120E-05
   6.60120010        -3.73843322E-05
   6.61320019        -3.86735119E-05
   6.62519979        -4.03134327E-05
   6.63719988        -4.23063939E-05
   6.64919996        -4.46476333E-05
   6.66120005        -4.73242690E-05
   6.67320013        -5.03144984E-05
   6.68520021        -5.35871222E-05
   6.69719982        -5.71014498E-05
   6.70919991        -6.08076443E-05
   6.72119999        -6.46474873E-05
   6.73320007        -6.85556151E-05
   6.74520016        -7.24611600E-05
   6.75719976        -7.62896962E-05
   6.76919985        -7.99654808E-05
   6.78119993        -8.34137973E-05
   6.79320002        -8.65633410E-05
   6.80520010        -8.93485194E-05
   6.81720018        -9.17115176E-05
   6.82919979        -9.36040087E-05
   6.84119987        -9.49885070E-05
   6.85319996        -9.58392775E-05
   6.86520004        -9.61426922E-05
   6.87720013        -9.58972087E-05
   6.88920021        -9.51128532E-05
   6.90119982        -9.38104495E-05
   6.91319990        -9.20205057E-05
   6.92519999        -8.97819409E-05
   6.93720007        -8.71407683E-05
   6.94920015        -8.41487272E-05
   6.96120024        -8.08620462E-05
   6.97319984        -7.73402498E-05
   6.98519993        -7.36451693E-05
   6.99720001        -6.98400618E-05
   7.00920010        -6.59887519E-05
   7.02120018        -6.21549261E-05
   7.03319979        -5.84013724E-05
   7.04519987        -5.47892014E-05
   7.05719995        -5.13769737E-05
   7.06920004        -4.82196810E-05
   7.08120012        -4.53676657E-05
   7.09320021        -4.28654457E-05
   7.10519981        -4.07505140E-05
   7.11719990        -3.90522000E-05
   7.12919998        -3.77906799E-05
   7.14120007        -3.69762347E-05
   7.15320015        -3.66088461E-05
   7.16520023        -3.66781751E-05
   7.17719984        -3.71640272E-05
   7.18919992        -3.80372221E-05
   7.20120001        -3.92609036E-05
   7.21320009        -4.07921871E-05
   7.22520018        -4.25840299E-05
   7.23719978        -4.45872029E-05
   7.24919987        -4.67522477E-05
   7.26119995        -4.90312123E-05
   7.27320004        -5.13790910E-05
   7.28520012        -5.37548294E-05
   7.29720020        -5.61219240E-05
   7.30919981        -5.84484333E-05
   7.32119989        -6.07066322E-05
   7.33319998        -6.28722482E-05
   7.34520006        -6.49234353E-05
   7.35720015        -6.68396751E-05
   7.36920023        -6.86006970E-05
   7.38119984        -7.01855752E-05
   7.39319992        -7.15722199E-05
   7.40520000        -7.27372753E-05
   7.41720009        -7.36564325E-05
   7.42920017        -7.43053533E-05
   7.44119978        -7.46609439E-05
   7.45319986        -7.47030135E-05
   7.46519995        -7.44161443E-05
   7.47720003        -7.37916125E-05
   7.48920012        -7.28292143E-05
   7.50120020        -7.15387214E-05
   7.51319981        -6.99410084E-05
   7.52519989        -6.80684680E-05
   7.53719997        -6.59649304E-05
   7.54920006        -6.36848126E-05
   7.56120014        -6.12915610E-05
   7.57320023        -5.88556031E-05
   7.58519983        -5.64517177E-05
   7.59719992        -5.41560730E-05
   7.60920000        -5.20430694E-05
   7.62120008        -5.01821523E-05
   7.63320017        -4.86348035E-05
   7.64519978        -4.74517910E-05
   7.65719986        -4.66709134E-05
   7.66919994        -4.63153010E-05
   7.68120003        -4.63923316E-05
   7.69320011        -4.68932703E-05
   7.70520020        -4.77936082E-05
   7.71719980        -4.90540588E-05
   7.72919989        -5.06222132E-05
   7.74119997        -5.24347379E-05
   7.75320005        -5.44200484E-05
   7.76520014        -5.65012997E-05
   7.77720022        -5.85996058E-05
   7.78919983        -6.06373214E-05
   7.80119991        -6.25412431E-05
   7.81320000        -6.42455780E-05
   7.82520008        -6.56945922E-05
   7.83720016        -6.68447465E-05
   7.84919977        -6.76662312E-05
   7.86119986        -6.81438469E-05
   7.87319994        -6.82772807E-05
   7.88520002        -6.80804733E-05
   7.89720011        -6.75805059E-05
   7.90920019        -6.68157809E-05
   7.92119980        -6.58337158E-05
   7.93319988        -6.46880653E-05
   7.94519997        -6.34360476E-05
   7.95720005        -6.21354557E-05
   7.96920013        -6.08418013E-05
   7.98120022        -5.96058489E-05
   7.99319983        -5.84714981E-05
   8.00520039        -5.74742189E-05
   8.01720047        -5.66400922E-05
   8.02919960        -5.59854234E-05
   8.04119968        -5.55170191E-05
   8.05319977        -5.52329475E-05
   8.06519985        -5.51237863E-05
   8.07719994        -5.51741541E-05
   8.08920002        -5.53644422E-05
   8.10120010        -5.56725681E-05
   8.11320019        -5.60756052E-05
   8.12520027        -5.65512128E-05
   8.13720036        -5.70787342E-05
   8.14920044        -5.76398888E-05
   8.16119957        -5.82191424E-05
   8.17319965        -5.88036419E-05
   8.18519974        -5.93828809E-05
   8.19719982        -5.99480845E-05
   8.20919991        -6.04915367E-05
   8.22119999        -6.10058451E-05
   8.23320007        -6.14832679E-05
   8.24520016        -6.19152706E-05
   8.25720024        -6.22922962E-05
   8.26920033        -6.26038236E-05
   8.28120041        -6.28386624E-05
   8.29319954        -6.29856149E-05
   8.30519962        -6.30342111E-05
   8.31719971        -6.29757051E-05
   8.32919979        -6.28039998E-05
   8.34119987        -6.25165703E-05
   8.35319996        -6.21152358E-05
   8.36520004        -6.16067045E-05
   8.37720013        -6.10028546E-05
   8.38920021        -6.03206427E-05
   8.40120029        -5.95817473E-05
   8.41320038        -5.88119074E-05
   8.42520046        -5.80399355E-05
   8.43719959        -5.72966019E-05
   8.44919968        -5.66133458E-05
   8.46119976        -5.60209119E-05
   8.47319984        -5.55480547E-05
   8.48519993        -5.52202837E-05
   8.49720001        -5.50587793E-05
   8.50920010        -5.50794757E-05
   8.52120018        -5.52923775E-05
   8.53320026        -5.57010862E-05
   8.54520035        -5.63025678E-05
   8.55720043        -5.70871744E-05
   8.56919956        -5.80388441E-05
   8.58119965        -5.91355638E-05
   8.59319973        -6.03500011E-05
   8.60519981        -6.16503239E-05
   8.61719990        -6.30011855E-05
   8.62919998        -6.43648600E-05
   8.64120007        -6.57025375E-05
   8.65320015        -6.69756046E-05
   8.66520023        -6.81471211E-05
   8.67720032        -6.91831956E-05
   8.68920040        -7.00543533E-05
   8.70119953        -7.07368163E-05
   8.71319962        -7.12135079E-05
   8.72519970        -7.14748967E-05
   8.73719978        -7.15194255E-05
   8.74919987        -7.13535992E-05
   8.76119995        -7.09916130E-05
   8.77320004        -7.04545819E-05
   8.78520012        -6.97693249E-05
   8.79720020        -6.89668595E-05
   8.80920029        -6.80805533E-05
   8.82120037        -6.71442467E-05
   8.83320045        -6.61902377E-05
   8.84519958        -6.52475064E-05
   8.85719967        -6.43401218E-05
   8.86919975        -6.34861062E-05
   8.88119984        -6.26966576E-05
   8.89319992        -6.19760467E-05
   8.90520000        -6.13219308E-05
   8.91720009        -6.07262227E-05
   8.92920017        -6.01764259E-05
   8.94120026        -5.96572827E-05
   8.95320034        -5.91526114E-05
   8.96520042        -5.86472161E-05
   8.97719955        -5.81286549E-05
   8.98919964        -5.75887716E-05
   9.00119972        -5.70248194E-05
   9.01319981        -5.64401053E-05
   9.02519989        -5.58441207E-05
   9.03719997        -5.52521124E-05
   9.04920006        -5.46841766E-05
   9.06120014        -5.41639129E-05
   9.07320023        -5.37168198E-05
   9.08520031        -5.33684833E-05