 -0.622799993         1.00000002E-24
 -0.610800028         1.00000002E-24
 -0.598800004         1.00000002E-24
 -0.586799979         1.00000002E-24
 -0.574800014         1.00000002E-24
 -0.562799990         1.00000002E-24
 -0.550800025         1.00000002E-24
 -0.538800001         1.00000012E-24
 -0.526799977         1.00000022E-24
 -0.514800012         1.00000022E-24
 -0.502799988         1.00000022E-24
 -0.490799993         1.00000022E-24
 -0.478799999         1.00000012E-24
 -0.466800004         1.00000012E-24
 -0.454800010         1.00000002E-24
 -0.442799985         9.99999921E-25
 -0.430799991         9.99999921E-25
 -0.418799996         9.99999921E-25
 -0.406800002         9.99999921E-25
 -0.394800007         1.00000002E-24
 -0.382800013         1.00000002E-24
 -0.370799989         1.00000012E-24
 -0.358799994         1.00000012E-24
 -0.346799999         1.00000022E-24
 -0.334800005         1.00000022E-24
 -0.322800010         1.00000012E-24
 -0.310799986         1.00000002E-24
 -0.298799992         1.00000022E-24
 -0.286799997         1.00000071E-24
 -0.274800003         1.00000140E-24
 -0.262800008         1.00000179E-24
 -0.250800014         1.00000061E-24
 -0.238800004         9.99995385E-25
 -0.226799995         9.99984735E-25
 -0.214800000         9.99970437E-25
 -0.202800006         9.99963239E-25
 -0.190799996         9.99985820E-25
 -0.178800002         1.00006855E-24
 -0.166800007         1.00022928E-24
 -0.154799998         1.00043439E-24
 -0.142800003         1.00055064E-24
 -0.130799994         1.00032326E-24
 -0.118799999         9.99437660E-25
 -0.106799997         9.97719423E-25
  -9.48000029E-02     9.95476888E-25
  -8.28000009E-02     9.93871655E-25
  -7.07999989E-02     9.95045283E-25
  -5.88000007E-02     1.00161748E-24
  -4.67999987E-02     1.01524042E-24
  -3.48000005E-02     1.03426981E-24
  -2.28000004E-02     1.05132893E-24
  -1.08000003E-02     1.05238314E-24
   1.20000006E-03     1.01945215E-24
   1.31999999E-02     9.38601003E-25
   2.52000000E-02     8.12853863E-25
   3.72000001E-02     6.76195791E-25
   4.91999984E-02     6.00901976E-25
   6.12000003E-02     6.88143533E-25
   7.32000023E-02     1.03380853E-24
   8.51999968E-02     1.66969254E-24
   9.71999988E-02     2.49430699E-24
  0.109200001         3.22355052E-24
  0.121200003         3.40179897E-24
  0.133200005         2.50943872E-24
  0.145199999         1.76850264E-25
  0.157199994        -3.53184111E-24
  0.169200003        -7.85757763E-24
  0.181199998        -1.12425861E-23
  0.193200007        -1.15220054E-23
  0.205200002        -6.49281434E-24
  0.217199996         5.17497605E-24
  0.229200006         2.28745650E-23
  0.241200000         4.31823816E-23
  0.253199995         5.95817743E-23
  0.265199989         6.31851963E-23
  0.277200013         4.46944292E-23
  0.289200008        -2.43922201E-24
  0.301200002        -7.80659402E-23
  0.313199997        -1.71444731E-22
  0.325199991        -2.58703185E-22
  0.337199986        -3.03328731E-22
  0.349200010        -2.61510419E-22
  0.361200005        -9.37372869E-23
  0.373199999         2.17290411E-22
  0.385199994         6.44965709E-22
  0.397199988         1.09950529E-21
  0.409200013         1.42116506E-21
  0.421200007         1.39813012E-21
  0.433200002         8.19083037E-22
  0.445199996        -4.38353218E-22
  0.457199991        -2.29806991E-21
  0.469199985        -4.38979177E-21
  0.481200010        -6.01944340E-21
  0.493200004        -6.26134203E-21
  0.505200028        -4.20729788E-21
  0.517199993         6.42506886E-22
  0.529200017         7.93556367E-21
  0.541199982         1.61342580E-20
  0.553200006         2.25016536E-20
  0.565199971         2.35856124E-20
  0.577199996         1.62574611E-20
  0.589200020        -8.52024203E-22
  0.601199985        -2.59283673E-20
  0.613200009        -5.31661259E-20
  0.625199974        -7.32096137E-20
  0.637199998        -7.52367038E-20
  0.649200022        -5.05671115E-20
  0.661199987         3.01433683E-21
  0.673200011         7.76740496E-20
  0.685199976         1.54442608E-19
  0.697200000         2.06069690E-19
  0.709200025         2.04227404E-19
  0.721199989         1.29856512E-19
  0.733200014        -1.62728576E-20
  0.745199978        -2.06868591E-19
  0.757200003        -3.89269439E-19
  0.769200027        -4.96657489E-19
  0.781199992        -4.68280283E-19
  0.793200016        -2.73712307E-19
  0.805199981         6.69842588E-20
  0.817200005         4.76223595E-19
  0.829200029         8.31518141E-19
  0.841199994         9.98427472E-19
  0.853200018         8.76662764E-19
  0.865199983         4.44997527E-19
  0.877200007        -2.12737205E-19
  0.889199972        -9.15413901E-19
  0.901199996        -1.43129409E-18
  0.913200021        -1.55449354E-18
  0.925199986        -1.18781843E-18
  0.937200010        -4.00274715E-19
  0.949199975         5.69741585E-19
  0.961199999         1.37915089E-18
  0.973200023         1.70142087E-18
  0.985199988         1.36651344E-18
  0.997200012         4.64572136E-19
   1.00919998        -6.39851552E-19
   1.02119994        -1.41141001E-18
   1.03320003        -1.35039551E-18
   1.04519999        -2.38684517E-19
   1.05719995         1.67226969E-18
   1.06920004         3.63052714E-18
   1.08120000         4.56904420E-18
   1.09319997         3.49067323E-18
   1.10520005        -5.33831897E-20
   1.11720002        -5.56742100E-18
   1.12919998        -1.14888348E-17
   1.14119995        -1.54723621E-17
   1.15320003        -1.50855145E-17
   1.16520000        -8.75573160E-18
   1.17719996         3.33350644E-18
   1.18920004         1.87611974E-17
   1.20120001         3.30999995E-17
   1.21319997         4.09616200E-17
   1.22520006         3.76757045E-17
   1.23720002         2.11416347E-17
   1.24919999        -6.77859954E-18
   1.26119995        -3.99332558E-17
   1.27320004        -6.89732047E-17
   1.28520000        -8.37834302E-17
   1.29719996        -7.66814493E-17
   1.30920005        -4.54281571E-17
   1.32120001         5.01654353E-18
   1.33319998         6.28174060E-17
   1.34519994         1.11914281E-16
   1.35720003         1.36487435E-16
   1.36919999         1.26021893E-16
   1.38119996         7.93642740E-17
   1.39320004         6.27285676E-18
   1.40520000        -7.43966971E-17
   1.41719997        -1.39699622E-16
   1.42920005        -1.69524301E-16
   1.44120002        -1.53332935E-16
   1.45319998        -9.44269021E-17
   1.46519995        -1.00106399E-17
   1.47720003         7.34382264E-17
   1.48920000         1.28429319E-16
   1.50119996         1.35910738E-16
   1.51320004         9.27714953E-17
   1.52520001         1.45552785E-17
   1.53719997        -6.81379177E-17
   1.54920006        -1.19086559E-16
   1.56120002        -1.09167241E-16
   1.57319999        -2.83541136E-17
   1.58519995         1.07270033E-16
   1.59720004         2.56606381E-16
   1.60920000         3.63512951E-16
   1.62119997         3.73555982E-16
   1.63320005         2.52922000E-16
   1.64520001         3.58251096E-18
   1.65719998        -3.30704559E-16
   1.66919994        -6.70680952E-16
   1.68120003        -9.19747232E-16
   1.69319999        -9.89814538E-16
   1.70519996        -8.27845851E-16
   1.71720004        -4.35175962E-16
   1.72920001         1.26824973E-16
   1.74119997         7.47606738E-16
   1.75320005         1.29291056E-15
   1.76520002         1.63840228E-15
   1.77719998         1.70208327E-15
   1.78919995         1.46582726E-15
   1.80120003         9.79079243E-16
   1.81320000         3.42832721E-16
   1.82519996        -3.21905448E-16
   1.83720005        -9.11619845E-16
   1.84920001        -1.37139441E-15
   1.86119998        -1.70808747E-15
   1.87320006        -1.97873313E-15
   1.88520002        -2.25493278E-15
   1.89719999        -2.57259957E-15
   1.90919995        -2.88349412E-15
   1.92120004        -3.02809281E-15
   1.93320000        -2.74677686E-15
   1.94519997        -1.73773298E-15
   1.95720005         2.43324746E-16
   1.96920002         3.26155923E-15
   1.98119998         7.09220983E-15
   1.99319994         1.11594075E-14
   2.00519991         1.45595816E-14
   2.01719999         1.61893373E-14
   2.02920008         1.49729489E-14
   2.04119992         1.01549306E-14
   2.05320001         1.59577450E-15
   2.06520009        -1.00078129E-14
   2.07719994        -2.30559336E-14
   2.08920002        -3.51869785E-14
   2.10120010        -4.36402149E-14
   2.11319995        -4.57968184E-14
   2.12520003        -3.98015463E-14
   2.13720012        -2.51270867E-14
   2.14919996        -2.93234611E-15
   2.16120005         2.39072271E-14
   2.17319989         5.11554537E-14
   2.18519998         7.39259050E-14
   2.19720006         8.76211267E-14
   2.20919991         8.89003904E-14
   2.22119999         7.64459161E-14
   2.23320007         5.13261444E-14
   2.24519992         1.68425996E-14
   2.25720000        -2.21249817E-14
   2.26920009        -6.01228933E-14
   2.28119993        -9.22183066E-14
   2.29320002        -1.14886006E-13
   2.30520010        -1.26435171E-13
   2.31719995        -1.26854920E-13
   2.32920003        -1.17140537E-13
   2.34120011        -9.83476267E-14
   2.35319996        -7.07472478E-14
   2.36520004        -3.34724754E-14
   2.37719989         1.50697139E-14
   2.38919997         7.59818030E-14
   2.40120006         1.48111693E-13
   2.41319990         2.26272587E-13
   2.42519999         3.00135080E-13
   2.43720007         3.54445396E-13
   2.44919991         3.70972675E-13
   2.46120000         3.32150838E-13
   2.47320008         2.25859235E-13
   2.48519993         5.03144652E-14
   2.49720001        -1.82225329E-13
   2.50920010        -4.44202834E-13
   2.52119994        -6.94818660E-13
   2.53320003        -8.85584087E-13
   2.54520011        -9.68709054E-13
   2.55719995        -9.06877329E-13
   2.56920004        -6.82437505E-13
   2.58119988        -3.03941740E-13
   2.59319997         1.91638412E-13
   2.60520005         7.41870703E-13
   2.61719990         1.26677867E-12
   2.62919998         1.68045027E-12
   2.64120007         1.90429530E-12
   2.65319991         1.87960563E-12
   2.66520000         1.57731629E-12
   2.67720008         1.00355813E-12
   2.68919992         2.00550487E-13
   2.70120001        -7.56715599E-13
   2.71320009        -1.76694033E-12
   2.72519994        -2.71091743E-12
   2.73720002        -3.46099625E-12
   2.74920011        -3.89133387E-12
   2.76119995        -3.88928256E-12
   2.77320004        -3.36851467E-12
   2.78520012        -2.28418196E-12
   2.79719996        -6.49413737E-13
   2.80920005         1.44897419E-12
   2.82119989         3.83920326E-12
   2.83319998         6.26235175E-12
   2.84520006         8.38394978E-12
   2.85719991         9.82265397E-12
   2.86919999         1.01965649E-11
   2.88120008         9.18392012E-12
   2.89319992         6.59080993E-12
   2.90520000         2.41504429E-12
   2.91720009        -3.10658899E-12
   2.92919993        -9.48006257E-12
   2.94120002        -1.59742046E-11
   2.95320010        -2.16832420E-11
   2.96519995        -2.56289694E-11
   2.97720003        -2.68926131E-11
   2.98920012        -2.47601922E-11
   3.00119996        -1.88612494E-11
   3.01320004        -9.27976966E-12
   3.02519989         3.38171396E-12
   3.03719997         1.79987778E-11
   3.04920006         3.29894966E-11
   3.06119990         4.64456251E-11
   3.07319999         5.63219887E-11
   3.08520007         6.06686507E-11
   3.09719992         5.78856546E-11
   3.10920000         4.69760966E-11
   3.12120008         2.77717935E-11
   3.13319993         1.10459190E-12
   3.14520001        -3.11027488E-11
   3.15720010        -6.58500060E-11
   3.16919994        -9.91966093E-11
   3.18120003        -1.26534019E-10
   3.19320011        -1.42993478E-10
   3.20519996        -1.43974083E-10
   3.21720004        -1.25757918E-10
   3.22919989        -8.61595240E-11
   3.24119997        -2.51394131E-11
   3.25320005         5.47010909E-11
   3.26519990         1.47831108E-10
   3.27719998         2.45787363E-10
   3.28920007         3.37518208E-10
   3.30119991         4.10104561E-10
   3.31320000         4.49846688E-10
   3.32520008         4.43662163E-10
   3.33719993         3.80694198E-10
   3.34920001         2.53993326E-10
   3.36120009         6.21088389E-11
   3.37319994        -1.89583307E-10
   3.38520002        -4.87982266E-10
   3.39720011        -8.11933187E-10
   3.40919995        -1.13256537E-09
   3.42120004        -1.41434153E-09
   3.43319988        -1.61679670E-09
   3.44519997        -1.69687719E-09
   3.45720005        -1.61171565E-09
   3.46919990        -1.32160793E-09
   3.48119998        -7.92890420E-10
   3.49320006        -3.57742915E-13
   3.50519991         1.07118459E-09
   3.51719999         2.42666642E-09
   3.52920008         4.06222433E-09
   3.54119992         5.96879657E-09
   3.55320001         8.13815237E-09
   3.56520009         1.05715552E-08
   3.57719994         1.32910793E-08
   3.58920002         1.63534022E-08
   3.60120010         1.98656398E-08
   3.61319995         2.40025617E-08
   3.62520003         2.90242781E-08
   3.63720012         3.52932297E-08
   3.64919996         4.32892264E-08
   3.66120005         5.36210898E-08
   3.67319989         6.70334472E-08
   3.68519998         8.44073327E-08
   3.69720006         1.06753340E-07
   3.70919991         1.35196274E-07
   3.72119999         1.70950727E-07
   3.73320007         2.15287201E-07
   3.74519992         2.69488908E-07
   3.75720000         3.34800063E-07
   3.76920009         4.12366859E-07
   3.78119993         5.03172600E-07
   3.79320002         6.07970037E-07
   3.80520010         7.27212921E-07
   3.81719995         8.60990610E-07
   3.82920003         1.00896887E-06
   3.84120011         1.17034085E-06
   3.85319996         1.34379115E-06
   3.86520004         1.52747816E-06
   3.87719989         1.71903469E-06
   3.88919997         1.91559093E-06
   3.90120006         2.11382098E-06
   3.91319990         2.31001263E-06
   3.92519999         2.50015933E-06
   3.93720007         2.68007193E-06
   3.94919991         2.84550947E-06
   3.96120000         2.99231851E-06
   3.97320008         3.11658482E-06
   3.98519993         3.21478024E-06
   3.99720001         3.28390934E-06
   4.00920010         3.32163813E-06
   4.02120018         3.32640889E-06
   4.03319979         3.29752561E-06
   4.04519987         3.23521135E-06
   4.05719995         3.14063027E-06
   4.06920004         3.01587033E-06
   4.08120012         2.86389468E-06
   4.09320021         2.68844997E-06
   4.10519981         2.49394361E-06
   4.11719990         2.28529370E-06
   4.12919998         2.06775348E-06
   4.14120007         1.84672490E-06
   4.15320015         1.62756271E-06
   4.16520023         1.41538339E-06
   4.17719984         1.21488426E-06
   4.18919992         1.03018317E-06
   4.20120001         8.64684353E-07
   4.21320009         7.20976459E-07
   4.22520018         6.00766498E-07
   4.23719978         5.04851982E-07
   4.24919987         4.33130566E-07
   4.26119995         3.84645347E-07
   4.27320004         3.57661975E-07
   4.28520012         3.49772364E-07
   4.29720020         3.58018781E-07
   4.30919981         3.79031320E-07
   4.32119989         4.09171719E-07
   4.33319998         4.44676516E-07
   4.34520006         4.81793393E-07
   4.35720015         5.16905629E-07
   4.36920023         5.46640536E-07
   4.38119984         5.67958921E-07
   4.39319992         5.78225865E-07
   4.40520000         5.75260572E-07
   4.41720009         5.57369276E-07
   4.42920017         5.23362075E-07
   4.44119978         4.72556195E-07
   4.45319986         4.04770219E-07
   4.46519995         3.20311131E-07
   4.47720003         2.19957329E-07
   4.48920012         1.04939303E-07
   4.50120020        -2.30806361E-08
   4.51319981        -1.62029764E-07
   4.52519989        -3.09447842E-07
   4.53719997        -4.62513412E-07
   4.54920006        -6.18074978E-07
   4.56120014        -7.72690100E-07
   4.57320023        -9.22674303E-07
   4.58519983        -1.06416235E-06
   4.59719992        -1.19318145E-06
   4.60920000        -1.30574006E-06
   4.62120008        -1.39792644E-06
   4.63320017        -1.46602065E-06
   4.64519978        -1.50661140E-06
   4.65719986        -1.51671588E-06
   4.66919994        -1.49389712E-06
   4.68120003        -1.43637067E-06
   4.69320011        -1.34309755E-06
   4.70520020        -1.21385392E-06
   4.71719980        -1.04927449E-06
   4.72919989        -8.50865604E-07
   4.74119997        -6.20984395E-07
   4.75320005        -3.62784419E-07
   4.76520014        -8.01286504E-08
   4.77720022         2.22526452E-07
   4.78919983         5.40270719E-07
   4.80119991         8.67897256E-07
   4.81320000         1.20006916E-06
   4.82520008         1.53148767E-06
   4.83720016         1.85705380E-06
   4.84919977         2.17201591E-06
   4.86119986         2.47209687E-06
   4.87319994         2.75359639E-06
   4.88520002         3.01346518E-06
   4.89720011         3.24935036E-06
   4.90920019         3.45961303E-06
   4.92119980         3.64331891E-06
   4.93319988         3.80020879E-06
   4.94519997         3.93064875E-06
   4.95720005         4.03557078E-06
   4.96920013         4.11640031E-06
   4.98120022         4.17498359E-06
   4.99319983         4.21351342E-06
   5.00519991         4.23445226E-06
   5.01719999         4.24046220E-06
   5.02920008         4.23433676E-06
   5.04120016         4.21893310E-06
   5.05319977         4.19711114E-06
   5.06519985         4.17166893E-06
   5.07719994         4.14528540E-06
   5.08920002         4.12046120E-06
   5.10120010         4.09946597E-06
   5.11320019         4.08428923E-06
   5.12519979         4.07659763E-06
   5.13719988         4.07770722E-06
   5.14919996         4.08856158E-06
   5.16120005         4.10973371E-06
   5.17320013         4.14143869E-06
   5.18520021         4.18356831E-06
   5.19719982         4.23573965E-06
   5.20919991         4.29736019E-06
   5.22119999         4.36770142E-06
   5.23320007         4.44598027E-06
   5.24520016         4.53143639E-06
   5.25719976         4.62340586E-06
   5.26919985         4.72137890E-06
   5.28119993         4.82503901E-06
   5.29320002         4.93428070E-06
   5.30520010         5.04919808E-06
   5.31720018         5.17005628E-06
   5.32919979         5.29723093E-06
   5.34119987         5.43113856E-06
   5.35319996         5.57214662E-06
   5.36520004         5.72049203E-06
   5.37720013         5.87619434E-06
   5.38920021         6.03898798E-06
   5.40119982         6.20827768E-06
   5.41319990         6.38312213E-06
   5.42519999         6.56224302E-06
   5.43720007         6.74407875E-06
   5.44920015         6.92685762E-06
   5.46120024         7.10871018E-06
   5.47319984         7.28779378E-06
   5.48519993         7.46243040E-06
   5.49720001         7.63124717E-06
   5.50920010         7.79330458E-06
   5.52120018         7.94820335E-06
   5.53319979         8.09616449E-06
   5.54519987         8.23806204E-06
   5.55719995         8.37542302E-06
   5.56920004         8.51037112E-06
   5.58120012         8.64553022E-06
   5.59320021         8.78388255E-06
   5.60519981         8.92859498E-06
   5.61719990         9.08281891E-06
   5.62919998         9.24947290E-06
   5.64120007         9.43103169E-06
   5.65320015         9.62932063E-06
   5.66520023         9.84534290E-06
   5.67719984         1.00791376E-05
   5.68919992         1.03296870E-05
   5.70120001         1.05948802E-05
   5.71320009         1.08715431E-05
   5.72520018         1.11555164E-05
   5.73719978         1.14418099E-05
   5.74919987         1.17247982E-05
   5.76119995         1.19984807E-05
   5.77320004         1.22567681E-05
   5.78520012         1.24938006E-05
   5.79720020         1.27042804E-05
   5.80919981         1.28837974E-05
   5.82119989         1.30291355E-05
   5.83319998         1.31385495E-05
   5.84520006         1.32119749E-05
   5.85720015         1.32511905E-05
   5.86920023         1.32598880E-05
   5.88119984         1.32436562E-05
   5.89319992         1.32098676E-05
   5.90520000         1.31674742E-05
   5.91720009         1.31266988E-05
   5.92920017         1.30986391E-05
   5.94119978         1.30947956E-05
   5.95319986         1.31265415E-05
   5.96519995         1.32045470E-05
   5.97720003         1.33382046E-05
   5.98920012         1.35350547E-05
   6.00120020         1.38002706E-05
   6.01319981         1.41362116E-05
   6.02519989         1.45420809E-05
   6.03719997         1.50137175E-05
   6.04920006         1.55435318E-05
   6.06120014         1.61206099E-05
   6.07320023         1.67309754E-05
   6.08519983         1.73580265E-05
   6.09719992         1.79831277E-05
   6.10920000         1.85863173E-05
   6.12120008         1.91471499E-05
   6.13320017         1.96455785E-05
   6.14519978         2.00628783E-05
   6.15719986         2.03825566E-05
   6.16919994         2.05911983E-05
   6.18120003         2.06792083E-05
   6.19320011         2.06414043E-05
   6.20520020         2.04774478E-05
   6.21719980         2.01920557E-05
   6.22919989         1.97950103E-05
   6.24119997         1.93009346E-05
   6.25320005         1.87288606E-05
   6.26520014         1.81016057E-05
   6.27720022         1.74449578E-05
   6.28919983         1.67867474E-05
   6.30119991         1.61558037E-05
   6.31320000         1.55808793E-05
   6.32520008         1.50895521E-05
   6.33720016         1.47071869E-05
   6.34919977         1.44559672E-05
   6.36119986         1.43540683E-05
   6.37319994         1.44149826E-05
   6.38520002         1.46470284E-05
   6.39720011         1.50530550E-05
   6.40920019         1.56303631E-05
   6.42119980         1.63708210E-05
   6.43319988         1.72611781E-05
   6.44519997         1.82835411E-05
   6.45720005         1.94160129E-05
   6.46920013         2.06334335E-05
   6.48120022         2.19081994E-05
   6.49319983         2.32111342E-05
   6.50519991         2.45123501E-05
   6.51719999         2.57820830E-05
   6.52920008         2.69914690E-05
   6.54120016         2.81132052E-05
   6.55319977         2.91221277E-05
   6.56519985         2.99956409E-05
   6.57719994         3.07139962E-05
   6.58920002         3.12604789E-05
   6.60120010         3.16214064E-05
   6.61320019         3.17860540E-05
   6.62519979         3.17464583E-05
   6.63719988         3.14971403E-05
   6.64919996         3.10347932E-05
   6.66120005         3.03579181E-05
   6.67320013         2.94664933E-05
   6.68520021         2.83616391E-05
   6.69719982         2.70453547E-05
   6.70919991         2.55203031E-05
   6.72119999         2.37896875E-05
   6.73320007         2.18572168E-05
   6.74520016         1.97271474E-05
   6.75719976         1.74044235E-05
   6.76919985         1.48948820E-05
   6.78119993         1.22055289E-05
   6.79320002         9.34484160E-06
   6.80520010         6.32309866E-06
   6.81720018         3.15270063E-06
   6.82919979        -1.51538515E-07
   6.84119987        -3.57215254E-06
   6.85319996        -7.08885545E-06
   6.86520004        -1.06784673E-05
   6.87720013        -1.43149382E-05
   6.88920021        -1.79694925E-05
   6.90119982        -2.16108674E-05
   6.91319990        -2.52056816E-05
   6.92519999        -2.87188832E-05
   6.93720007        -3.21142979E-05
   6.94920015        -3.53552387E-05
   6.96120024        -3.84051564E-05
   6.97319984        -4.12283407E-05
   6.98519993        -4.37905837E-05
   6.99720001        -4.60598712E-05
   7.00920010        -4.80069939E-05
   7.02120018        -4.96061148E-05
   7.03319979        -5.08352823E-05
   7.04519987        -5.16768305E-05
   7.05719995        -5.21177062E-05
   7.06920004        -5.21497313E-05
   7.08120012        -5.17697226E-05
   7.09320021        -5.09795900E-05
   7.10519981        -4.97862966E-05
   7.11719990        -4.82018077E-05
   7.12919998        -4.62429271E-05
   7.14120007        -4.39311298E-05
   7.15320015        -4.12923109E-05
   7.16520023        -3.83565166E-05
   7.17719984        -3.51576527E-05
   7.18919992        -3.17331251E-05
   7.20120001        -2.81235061E-05
   7.21320009        -2.43721188E-05
   7.22520018        -2.05246270E-05
   7.23719978        -1.66285699E-05
   7.24919987        -1.27328676E-05
   7.26119995        -8.88728027E-06
   7.27320004        -5.14181875E-06
   7.28520012        -1.54611928E-06
   7.29720020         1.85123440E-06
   7.30919981         5.00343049E-06
   7.32119989         7.86616965E-06
   7.33319998         1.03984303E-05
   7.34520006         1.25632350E-05
   7.35720015         1.43283905E-05
   7.36920023         1.56671922E-05
   7.38119984         1.65590554E-05
   7.39319992         1.69900522E-05
   7.40520000         1.69533250E-05
   7.41720009         1.64493613E-05
   7.42920017         1.54860973E-05
   7.44119978         1.40788543E-05
   7.45319986         1.22500815E-05
   7.46519995         1.00289190E-05
   7.47720003         7.45057196E-06
   7.48920012         4.55553527E-06
   7.50120020         1.38865539E-06
   7.51319981        -2.00191403E-06
   7.52519989        -5.56584519E-06
   7.53719997        -9.25181848E-06
   7.54920006        -1.30087146E-05
   7.56120014        -1.67867838E-05
   7.57320023        -2.05387441E-05
   7.58519983        -2.42207843E-05
   7.59719992        -2.77934305E-05
   7.60920000        -3.12222619E-05
   7.62120008        -3.44784457E-05
   7.63320017        -3.75390882E-05
   7.64519978        -4.03873928E-05
   7.65719986        -4.30126202E-05
   7.66919994        -4.54098590E-05
   7.68120003        -4.75796442E-05
   7.69320011        -4.95273998E-05
   7.70520020        -5.12627594E-05
   7.71719980        -5.27987868E-05
   7.72919989        -5.41511217E-05
   7.74119997        -5.53370846E-05
   7.75320005        -5.63747744E-05
   7.76520014        -5.72821955E-05
   7.77720022        -5.80764172E-05
   7.78919983        -5.87728755E-05
   7.80119991        -5.93847290E-05
   7.81320000        -5.99224004E-05
   7.82520008        -6.03932422E-05
   7.83720016        -6.08013797E-05
   7.84919977        -6.11477371E-05
   7.86119986        -6.14301825E-05
   7.87319994        -6.16439065E-05
   7.88520002        -6.17818587E-05
   7.89720011        -6.18353733E-05
   7.90920019        -6.17948390E-05
   7.92119980        -6.16504403E-05
   7.93319988        -6.13929296E-05
   7.94519997        -6.10143506E-05
   7.95720005        -6.05087480E-05
   7.96920013        -5.98727711E-05
   7.98120022        -5.91061398E-05
   7.99319983        -5.82120047E-05
   8.00520039        -5.71971214E-05
   8.01720047        -5.60718508E-05
   8.02919960        -5.48499884E-05
   8.04119968        -5.35484251E-05
   8.05319977        -5.21866532E-05
   8.06519985        -5.07861332E-05
   8.07719994        -4.93695625E-05
   8.08920002        -4.79600858E-05
   8.10120010        -4.65804624E-05
   8.11320019        -4.52522254E-05
   8.12520027        -4.39949108E-05
   8.13720036        -4.28253552E-05
   8.14920044        -4.17570773E-05
   8.16119957        -4.07998050E-05
   8.17319965        -3.99591554E-05
   8.18519974        -3.92364309E-05
   8.19719982        -3.86285901E-05
   8.20919991        -3.81283571E-05
   8.22119999        -3.77244760E-05
   8.23320007        -3.74020601E-05
   8.24520016        -3.71430906E-05
   8.25720024        -3.69269292E-05
   8.26920033        -3.67309622E-05
   8.28120041        -3.65312299E-05
   8.29319954        -3.63031140E-05
   8.30519962        -3.60219892E-05
   8.31719971        -3.56638920E-05
   8.32919979        -3.52061288E-05
   8.34119987        -3.46278794E-05
   8.35319996        -3.39106919E-05
   8.36520004        -3.30389848E-05
   8.37720013        -3.20004219E-05
   8.38920021        -3.07862538E-05
   8.40120029        -2.93915418E-05
   8.41320038        -2.78153566E-05
   8.42520046        -2.60608140E-05
   8.43719959        -2.41350954E-05
   8.44919968        -2.20493039E-05
   8.46119976        -1.98182806E-05
   8.47319984        -1.74602901E-05
   8.48519993        -1.49966172E-05
   8.49720001        -1.24510962E-05
   8.50920010        -9.84953840E-06
   8.52120018        -7.21910510E-06
   8.53320026        -4.58763134E-06
   8.54520035        -1.98290991E-06
   8.55720043         5.68023552E-07
   8.56919956         3.03960996E-06
   8.58119965         5.40843666E-06
   8.59319973         7.65385721E-06
   8.60519981         9.75851799E-06
   8.61719990         1.17087939E-05
   8.62919998         1.34950769E-05
   8.64120007         1.51119493E-05
   8.65320015         1.65581896E-05
   8.66520023         1.78366317E-05
   8.67720032         1.89538750E-05
   8.68920040         1.99198512E-05
   8.70119953         2.07472804E-05
   8.71319962         2.14510164E-05
   8.72519970         2.20473321E-05
   8.73719978         2.25531621E-05
   8.74919987         2.29853576E-05
   8.76119995         2.33599621E-05
   8.77320004         2.36915657E-05
   8.78520012         2.39927467E-05
   8.79720020         2.42736405E-05
   8.80920029         2.45416359E-05
   8.82120037         2.48012293E-05
   8.83320045         2.50540306E-05
   8.84519958         2.52988993E-05
   8.85719967         2.55322284E-05
   8.86919975         2.57483371E-05
   8.88119984         2.59399494E-05
   8.89319992         2.60987617E-05
   8.90520000         2.62160156E-05
   8.91720009         2.62831109E-05
   8.92920017         2.62921967E-05
   8.94120026         2.62367012E-05
   8.95320034         2.61118275E-05
   8.96520042         2.59149565E-05
   8.97719955         2.56459316E-05
   8.98919964         2.53072722E-05
   9.00119972         2.49042314E-05
   9.01319981         2.44447729E-05
   9.02519989         2.39393848E-05
   9.03719997         2.34008185E-05
   9.04920006         2.28436984E-05
   9.06120014         2.22840245E-05
   9.07320023         2.17386187E-05
   9.08520031         2.12244904E-05