 -0.622799993         1.00000002E-24
 -0.610800028         1.00000002E-24
 -0.598800004         1.00000002E-24
 -0.586799979         1.00000002E-24
 -0.574800014         1.00000002E-24
 -0.562799990         5.49782787E-22
 -0.550800025         3.91051614E-21
 -0.538800001         1.26595114E-20
 -0.526799977         2.00376700E-20
 -0.514800012        -5.81232351E-21
 -0.502799988        -1.18850836E-19
 -0.490799993        -3.28297930E-19
 -0.478799999        -4.47601181E-19
 -0.466800004         5.52047093E-20
 -0.454800010         1.96281088E-18
 -0.442799985         5.65610469E-18
 -0.430799991         9.81188656E-18
 -0.418799996         9.98693121E-18
 -0.406800002        -1.53449314E-18
 -0.394800007        -3.28098940E-17
 -0.382800013        -8.52024751E-17
 -0.370799989        -1.43771495E-16
 -0.358799994        -1.70395871E-16
 -0.346799999        -1.07927562E-16
 -0.334800005         9.71517872E-17
 -0.322800010         4.53228113E-16
 -0.310799986         8.76017462E-16
 -0.298799992         1.16220914E-15
 -0.286799997         1.01822836E-15
 -0.274800003         1.67408492E-16
 -0.262800008        -1.47370784E-15
 -0.250800014        -3.60717027E-15
 -0.238800004        -5.45424844E-15
 -0.226799995        -5.85630787E-15
 -0.214800000        -3.64094360E-15
 -0.202800006         1.78947717E-15
 -0.190799996         9.83086513E-15
 -0.178800002         1.83108296E-14
 -0.166800007         2.36965226E-14
 -0.154799998         2.20539936E-14
 -0.142800003         1.06502967E-14
 -0.130799994        -1.02645130E-14
 -0.118799999        -3.62350937E-14
 -0.106799997        -5.87149348E-14
  -9.48000029E-02    -6.69862928E-14
  -8.28000009E-02    -5.17260524E-14
  -7.07999989E-02    -9.28652788E-15
  -5.88000007E-02     5.48529490E-14
  -4.67999987E-02     1.25144225E-13
  -3.48000005E-02     1.78683674E-13
  -2.28000004E-02     1.91565134E-13
  -1.08000003E-02     1.47399074E-13
   1.20000006E-03     4.53003520E-14
   1.31999999E-02    -9.57893365E-14
   2.52000000E-02    -2.38884840E-13
   3.72000001E-02    -3.37513410E-13
   4.91999984E-02    -3.49349510E-13
   6.12000003E-02    -2.51092902E-13
   7.32000023E-02    -4.96777946E-14
   8.51999968E-02     2.14564328E-13
   9.71999988E-02     4.75007728E-13
  0.109200001         6.55144287E-13
  0.121200003         6.90173884E-13
  0.133200005         5.47581240E-13
  0.145199999         2.40324931E-13
  0.157199994        -1.71882785E-13
  0.169200003        -5.94397361E-13
  0.181199998        -9.19976009E-13
  0.193200007        -1.05598993E-12
  0.205200002        -9.49444299E-13
  0.217199996        -6.03254588E-13
  0.229200006        -7.94272552E-14
  0.241200000         5.12033016E-13
  0.253199995         1.03635850E-12
  0.265199989         1.36454324E-12
  0.277200013         1.40461015E-12
  0.289200008         1.12658971E-12
  0.301200002         5.74953930E-13
  0.313199997        -1.35725212E-13
  0.325199991        -8.42930868E-13
  0.337199986        -1.37313013E-12
  0.349200010        -1.58613595E-12
  0.361200005        -1.41614823E-12
  0.373199999        -8.97492638E-13
  0.385199994        -1.65146773E-13
  0.397199988         5.74210655E-13
  0.409200013         1.09659894E-12
  0.421200007         1.22782123E-12
  0.433200002         9.04222010E-13
  0.445199996         2.07018918E-13
  0.457199991        -6.44438604E-13
  0.469199985        -1.34394796E-12
  0.481200010        -1.58379657E-12
  0.493200004        -1.15145990E-12
  0.505200028        -8.82148562E-15
  0.517199993         1.67214430E-12
  0.529200017         3.53171160E-12
  0.541199982         5.10008485E-12
  0.553200006         5.91043403E-12
  0.565199971         5.61571969E-12
  0.577199996         4.07609320E-12
  0.589200020         1.39296094E-12
  0.601199985        -2.11695570E-12
  0.613200009        -5.99476978E-12
  0.625199974        -9.73230611E-12
  0.637199998        -1.28526903E-11
  0.649200022        -1.49543000E-11
  0.661199987        -1.57111702E-11
  0.673200011        -1.48438727E-11
  0.685199976        -1.20913835E-11
  0.697200000        -7.21926208E-12
  0.709200025        -8.91456505E-14
  0.721199989         9.20925055E-12
  0.733200014         2.01927763E-11
  0.745199978         3.18420706E-11
  0.757200003         4.25498178E-11
  0.769200027         5.02196340E-11
  0.781199992         5.25436743E-11
  0.793200016         4.74391117E-11
  0.805199981         3.35713228E-11
  0.817200005         1.08501593E-11
  0.829200029        -1.92311653E-11
  0.841199994        -5.35297119E-11
  0.853200018        -8.75272840E-11
  0.865199983        -1.15945455E-10
  0.877200007        -1.33627401E-10
  0.889199972        -1.36551437E-10
  0.901199996        -1.22805807E-10
  0.913200021        -9.33531724E-11
  0.925199986        -5.24403299E-11
  0.937200010        -7.55396787E-12
  0.949199975         3.11250539E-11
  0.961199999         5.17733530E-11
  0.973200023         4.24565973E-11
  0.985199988        -6.91051123E-12
  0.997200012        -1.02243242E-10
   1.00919998        -2.42704606E-10
   1.02119994        -4.18001966E-10
   1.03320003        -6.05748174E-10
   1.04519999        -7.69100894E-10
   1.05719995        -8.54862847E-10
   1.06920004        -7.92133970E-10
   1.08120000        -4.91394536E-10
   1.09319997         1.56428537E-10
   1.10520005         1.28182720E-09
   1.11720002         3.04093262E-09
   1.12919998         5.62411762E-09
   1.14119995         9.27156929E-09
   1.15320003         1.42989425E-08
   1.16520000         2.11366284E-08
   1.17719996         3.03862571E-08
   1.18920004         4.28981757E-08
   1.20120001         5.98730665E-08
   1.21319997         8.29903115E-08
   1.22520006         1.14564529E-07
   1.23720002         1.57729801E-07
   1.24919999         2.16649426E-07
   1.26119995         2.96746379E-07
   1.27320004         4.04946377E-07
   1.28520000         5.49923357E-07
   1.29719996         7.42333100E-07
   1.30920005         9.95020059E-07
   1.32120001         1.32317666E-06
   1.33319998         1.74443721E-06
   1.34519994         2.27888745E-06
   1.35720003         2.94896699E-06
   1.36919999         3.77925448E-06
   1.38119996         4.79611890E-06
   1.39320004         6.02723367E-06
   1.40520000         7.50095205E-06
   1.41719997         9.24555206E-06
   1.42920005         1.12883736E-05
   1.44120002         1.36548615E-05
   1.45319998         1.63675522E-05
   1.46519995         1.94450531E-05
   1.47720003         2.29010311E-05
   1.48920000         2.67432915E-05
   1.50119996         3.09729694E-05
   1.51320004         3.55839002E-05
   1.52520001         4.05621649E-05
   1.53719997         4.58859213E-05
   1.54920006         5.15254833E-05
   1.56120002         5.74436490E-05
   1.57319999         6.35963734E-05
   1.58519995         6.99336524E-05
   1.59720004         7.64006545E-05
   1.60920000         8.29390774E-05
   1.62119997         8.94886180E-05
   1.63320005         9.59885874E-05
   1.64520001         1.02379490E-04
   1.65719998         1.08604589E-04
   1.66919994         1.14611401E-04
   1.68120003         1.20352925E-04
   1.69319999         1.25788793E-04
   1.70519996         1.30886008E-04
   1.71720004         1.35619528E-04
   1.72920001         1.39972413E-04
   1.74119997         1.43935817E-04
   1.75320005         1.47508545E-04
   1.76520002         1.50696491E-04
   1.77719998         1.53511777E-04
   1.78919995         1.55971822E-04
   1.80120003         1.58098163E-04
   1.81320000         1.59915522E-04
   1.82519996         1.61450531E-04
   1.83720005         1.62730910E-04
   1.84920001         1.63784469E-04
   1.86119998         1.64638492E-04
   1.87320006         1.65319158E-04
   1.88520002         1.65851277E-04
   1.89719999         1.66258149E-04
   1.90919995         1.66561527E-04
   1.92120004         1.66781843E-04
   1.93320000         1.66938480E-04
   1.94519997         1.67050021E-04
   1.95720005         1.67134669E-04
   1.96920002         1.67210470E-04
   1.98119998         1.67295628E-04
   1.99319994         1.67408551E-04
   2.00519991         1.67568054E-04
   2.01719999         1.67793100E-04
   2.02920008         1.68102764E-04
   2.04119992         1.68515879E-04
   2.05320001         1.69050632E-04
   2.06520009         1.69724197E-04
   2.07719994         1.70552215E-04
   2.08920002         1.71548250E-04
   2.10120010         1.72723419E-04
   2.11319995         1.74085842E-04
   2.12520003         1.75640293E-04
   2.13720012         1.77387861E-04
   2.14919996         1.79325696E-04
   2.16120005         1.81446871E-04
   2.17319989         1.83740325E-04
   2.18519998         1.86190839E-04
   2.19720006         1.88779319E-04
   2.20919991         1.91482948E-04
   2.22119999         1.94275635E-04
   2.23320007         1.97128538E-04
   2.24519992         2.00010632E-04
   2.25720000         2.02889481E-04
   2.26920009         2.05732067E-04
   2.28119993         2.08505793E-04
   2.29320002         2.11179358E-04
   2.30520010         2.13723950E-04
   2.31719995         2.16114247E-04
   2.32920003         2.18329413E-04
   2.34120011         2.20354152E-04
   2.35319996         2.22179442E-04
   2.36520004         2.23803305E-04
   2.37719989         2.25231153E-04
   2.38919997         2.26476113E-04
   2.40120006         2.27558878E-04
   2.41319990         2.28507386E-04
   2.42519999         2.29356170E-04
   2.43720007         2.30145364E-04
   2.44919991         2.30919526E-04
   2.46120000         2.31726197E-04
   2.47320008         2.32614228E-04
   2.48519993         2.33632119E-04
   2.49720001         2.34826104E-04
   2.50920010         2.36238382E-04
   2.52119994         2.37905435E-04
   2.53320003         2.39856410E-04
   2.54520011         2.42111608E-04
   2.55719995         2.44681491E-04
   2.56920004         2.47565709E-04
   2.58119988         2.50752521E-04
   2.59319997         2.54218612E-04
   2.60520005         2.57929147E-04
   2.61719990         2.61838170E-04
   2.62919998         2.65889423E-04
   2.64120007         2.70017219E-04
   2.65319991         2.74147926E-04
   2.66520000         2.78201274E-04
   2.67720008         2.82092224E-04
   2.68919992         2.85732676E-04
   2.70120001         2.89033487E-04
   2.71320009         2.91906472E-04
   2.72519994         2.94266414E-04
   2.73720002         2.96032988E-04
   2.74920011         2.97132647E-04
   2.76119995         2.97500548E-04
   2.77320004         2.97081890E-04
   2.78520012         2.95833539E-04
   2.79719996         2.93724966E-04
   2.80920005         2.90739117E-04
   2.82119989         2.86872935E-04
   2.83319998         2.82137480E-04
   2.84520006         2.76557956E-04
   2.85719991         2.70173012E-04
   2.86919999         2.63034046E-04
   2.88120008         2.55204213E-04
   2.89319992         2.46757088E-04
   2.90520000         2.37775166E-04
   2.91720009         2.28348203E-04
   2.92919993         2.18571440E-04
   2.94120002         2.08543861E-04
   2.95320010         1.98366281E-04
   2.96519995         1.88139529E-04
   2.97720003         1.77962604E-04
   2.98920012         1.67930906E-04
   3.00119996         1.58134528E-04
   3.01320004         1.48656589E-04
   3.02519989         1.39571755E-04
   3.03719997         1.30944638E-04
   3.04920006         1.22828613E-04
   3.06119990         1.15264564E-04
   3.07319999         1.08280001E-04
   3.08520007         1.01888349E-04
   3.09719992         9.60886464E-05
   3.10920000         9.08656220E-05
   3.12120008         8.61901935E-05
   3.13319993         8.20204878E-05
   3.14520001         7.83034411E-05
   3.15720010         7.49768224E-05
   3.16919994         7.19717791E-05
   3.18120003         6.92157773E-05
   3.19320011         6.66358246E-05
   3.20519996         6.41618026E-05
   3.21720004         6.17297701E-05
   3.22919989         5.92851175E-05
   3.24119997         5.67852403E-05
   3.25320005         5.42016714E-05
   3.26519990         5.15214815E-05
   3.27719998         4.87478610E-05
   3.28920007         4.58997711E-05
   3.30119991         4.30107139E-05
   3.31320000         4.01266407E-05
   3.32520008         3.73031180E-05
   3.33719993         3.46018824E-05
   3.34920001         3.20870604E-05
   3.36120009         2.98212162E-05
   3.37319994         2.78615007E-05
   3.38520002         2.62561480E-05
   3.39720011         2.50415360E-05
   3.40919995         2.42399747E-05
   3.42120004         2.38583998E-05
   3.43319988         2.38879857E-05
   3.44519997         2.43047307E-05
   3.45720005         2.50709563E-05
   3.46919990         2.61375753E-05
   3.48119998         2.74469967E-05
   3.49320006         2.89364471E-05
   3.50519991         3.05414542E-05
   3.51719999         3.21993430E-05
   3.52920008         3.38524078E-05
   3.54119992         3.54506410E-05
   3.55320001         3.69538138E-05
   3.56520009         3.83328479E-05
   3.57719994         3.95703428E-05
   3.58920002         4.06603467E-05
   3.60120010         4.16073672E-05
   3.61319995         4.24247373E-05
   3.62520003         4.31325207E-05
   3.63720012         4.37550880E-05
   3.64919996         4.43185672E-05
   3.66120005         4.48483879E-05
   3.67319989         4.53670182E-05
   3.68519998         4.58921604E-05
   3.69720006         4.64353834E-05
   3.70919991         4.70014056E-05
   3.72119999         4.75879606E-05
   3.73320007         4.81862589E-05
   3.74519992         4.87819925E-05
   3.75720000         4.93567713E-05
   3.76920009         4.98898989E-05
   3.78119993         5.03602823E-05
   3.79320002         5.07484147E-05
   3.80520010         5.10382124E-05
   3.81719995         5.12186016E-05
   3.82920003         5.12847764E-05
   3.84120011         5.12389706E-05
   3.85319996         5.10907994E-05
   3.86520004         5.08570447E-05
   3.87719989         5.05609969E-05
   3.88919997         5.02313451E-05
   3.90120006         4.99007256E-05
   3.91319990         4.96039793E-05
   3.92519999         4.93762782E-05
   3.93720007         4.92512117E-05
   3.94919991         4.92589716E-05
   3.96120000         4.94246706E-05
   3.97320008         4.97670044E-05
   3.98519993         5.02972107E-05
   3.99720001         5.10184400E-05
   4.00920010         5.19255591E-05
   4.02120018         5.30053730E-05
   4.03319979         5.42372218E-05
   4.04519987         5.55939732E-05
   4.05719995         5.70432785E-05
   4.06920004         5.85490961E-05
   4.08120012         6.00733292E-05
   4.09320021         6.15775352E-05
   4.10519981         6.30246359E-05
   4.11719990         6.43805251E-05
   4.12919998         6.56155171E-05
   4.14120007         6.67055865E-05
   4.15320015         6.76333148E-05
   4.16520023         6.83885519E-05
   4.17719984         6.89688168E-05
   4.18919992         6.93793190E-05
   4.20120001         6.96326970E-05
   4.21320009         6.97484938E-05
   4.22520018         6.97522919E-05
   4.23719978         6.96747229E-05
   4.24919987         6.95501221E-05
   4.26119995         6.94151968E-05
   4.27320004         6.93074253E-05
   4.28520012         6.92634640E-05
   4.29720020         6.93175389E-05
   4.30919981         6.94998671E-05
   4.32119989         6.98352087E-05
   4.33319998         7.03416081E-05
   4.34520006         7.10293898E-05
   4.35720015         7.19004165E-05
   4.36920023         7.29477979E-05
   4.38119984         7.41559779E-05
   4.39319992         7.55012661E-05
   4.40520000         7.69527687E-05
   4.41720009         7.84738149E-05
   4.42920017         8.00237322E-05
   4.44119978         8.15598687E-05
   4.45319986         8.30398712E-05
   4.46519995         8.44239330E-05
   4.47720003         8.56770785E-05
   4.48920012         8.67710769E-05
   4.50120020         8.76860504E-05
   4.51319981         8.84115652E-05
   4.52519989         8.89470830E-05
   4.53719997         8.93017714E-05
   4.54920006         8.94936093E-05
   4.56120014         8.95478879E-05
   4.57320023         8.94951008E-05
   4.58519983         8.93684701E-05
   4.59719992         8.92012395E-05
   4.60920000         8.90238880E-05
   4.62120008         8.88615687E-05
   4.63320017         8.87318893E-05
   4.64519978         8.86432972E-05
   4.65719986         8.85941554E-05
   4.66919994         8.85726113E-05
   4.68120003         8.85573245E-05
   4.69320011         8.85190238E-05
   4.70520020         8.84227338E-05
   4.71719980         8.82305758E-05
   4.72919989         8.79049476E-05
   4.74119997         8.74118123E-05
   4.75320005         8.67238268E-05
   4.76520014         8.58231433E-05
   4.77720022         8.47035917E-05
   4.78919983         8.33720915E-05
   4.80119991         8.18492263E-05
   4.81320000         8.01688220E-05
   4.82520008         7.83766518E-05
   4.83720016         7.65282894E-05
   4.84919977         7.46863443E-05
   4.86119986         7.29171152E-05
   4.87319994         7.12870751E-05
   4.88520002         6.98592921E-05
   4.89720011         6.86900821E-05
   4.90920019         6.78260330E-05
   4.92119980         6.73016984E-05
   4.93319988         6.71379312E-05
   4.94519997         6.73410759E-05
   4.95720005         6.79028890E-05
   4.96920013         6.88012296E-05
   4.98120022         7.00014498E-05
   4.99319983         7.14582566E-05
   5.00519991         7.31180480E-05
   5.01719999         7.49213868E-05
   5.02920008         7.68056270E-05
   5.04120016         7.87074678E-05
   5.05319977         8.05652526E-05
   5.06519985         8.23210867E-05
   5.07719994         8.39226195E-05
   5.08920002         8.53243910E-05
   5.10120010         8.64888862E-05
   5.11320019         8.73871977E-05
   5.12519979         8.79994186E-05
   5.13719988         8.83146786E-05
   5.14919996         8.83309694E-05
   5.16120005         8.80547377E-05
   5.17320013         8.75002806E-05
   5.18520021         8.66889895E-05
   5.19719982         8.56483894E-05
   5.20919991         8.44110691E-05
   5.22119999         8.30135250E-05
   5.23320007         8.14948362E-05
   5.24520016         7.98953333E-05
   5.25719976         7.82552379E-05
   5.26919985         7.66133671E-05
   5.28119993         7.50059116E-05
   5.29320002         7.34653950E-05
   5.30520010         7.20198732E-05
   5.31720018         7.06923820E-05
   5.32919979         6.95007184E-05
   5.34119987         6.84575425E-05
   5.35319996         6.75707706E-05
   5.36520004         6.68442663E-05
   5.37720013         6.62786988E-05
   5.38920021         6.58725839E-05
   5.40119982         6.56232733E-05
   5.41319990         6.55279728E-05
   5.42519999         6.55844633E-05
   5.43720007         6.57916826E-05
   5.44920015         6.61499071E-05
   5.46120024         6.66605920E-05
   5.47319984         6.73258837E-05
   5.48519993         6.81477613E-05
   5.49720001         6.91270034E-05
   5.50920010         7.02619291E-05
   5.52120018         7.15471979E-05
   5.53319979         7.29726235E-05
   5.54519987         7.45223224E-05
   5.55719995         7.61741248E-05
   5.56920004         7.78995018E-05
   5.58120012         7.96638633E-05
   5.59320021         8.14274972E-05
   5.60519981         8.31468278E-05
   5.61719990         8.47761912E-05
   5.62919998         8.62698216E-05
   5.64120007         8.75840196E-05
   5.65320015         8.86793568E-05
   5.66520023         8.95226913E-05
   5.67719984         9.00889572E-05
   5.68919992         9.03625041E-05
   5.70120001         9.03379841E-05
   5.71320009         9.00206724E-05
   5.72520018         8.94262485E-05
   5.73719978         8.85800036E-05
   5.74919987         8.75156329E-05
   5.76119995         8.62736779E-05
   5.77320004         8.48996060E-05
   5.78520012         8.34419625E-05
   5.79720020         8.19503693E-05
   5.80919981         8.04737501E-05
   5.82119989         7.90587874E-05
   5.83319998         7.77485620E-05
   5.84520006         7.65816658E-05
   5.85720015         7.55915025E-05
   5.86920023         7.48059538E-05
   5.88119984         7.42472694E-05
   5.89319992         7.39320967E-05
   5.90520000         7.38716553E-05
   5.91720009         7.40719042E-05
   5.92920017         7.45337602E-05
   5.94119978         7.52531269E-05
   5.95319986         7.62210038E-05
   5.96519995         7.74234140E-05
   5.97720003         7.88413381E-05
   5.98920012         8.04506271E-05
   6.00120020         8.22220463E-05
   6.01319981         8.41213696E-05
   6.02519989         8.61097142E-05
   6.03719997         8.81441447E-05
   6.04920006         9.01784588E-05
   6.06120014         9.21643441E-05
   6.07320023         9.40526734E-05
   6.08519983         9.57950688E-05
   6.09719992         9.73455462E-05
   6.10920000         9.86621162E-05
   6.12120008         9.97083844E-05
   6.13320017         1.00454898E-04
   6.14519978         1.00880214E-04
   6.15719986         1.00971694E-04
   6.16919994         1.00725854E-04
   6.18120003         1.00148332E-04
   6.19320011         9.92535133E-05
   6.20520020         9.80638506E-05
   6.21719980         9.66088919E-05
   6.22919989         9.49241585E-05
   6.24119997         9.30499227E-05
   6.25320005         9.10300441E-05
   6.26520014         8.89107832E-05
   6.27720022         8.67398121E-05
   6.28919983         8.45653121E-05
   6.30119991         8.24352028E-05
   6.31320000         8.03965522E-05
   6.32520008         7.84949589E-05
   6.33720016         7.67739766E-05
   6.34919977         7.52744600E-05
   6.36119986         7.40338364E-05
   6.37319994         7.30852043E-05
   6.38520002         7.24562778E-05
   6.39720011         7.21682227E-05
   6.40920019         7.22344193E-05
   6.42119980         7.26592480E-05
   6.43319988         7.34369678E-05
   6.44519997         7.45508441E-05
   6.45720005         7.59726463E-05
   6.46920013         7.76625748E-05
   6.48120022         7.95697633E-05
   6.49319983         8.16333340E-05
   6.50519991         8.37841362E-05
   6.51719999         8.59469219E-05
   6.52920008         8.80430816E-05
   6.54120016         8.99937077E-05
   6.55319977         9.17228026E-05
   6.56519985         9.31604591E-05
   6.57719994         9.42459155E-05
   6.58920002         9.49300957E-05
   6.60120010         9.51776528E-05
   6.61320019         9.49683599E-05
   6.62519979         9.42977204E-05
   6.63719988         9.31767936E-05
   6.64919996         9.16313656E-05
   6.66120005         8.97004575E-05
   6.67320013         8.74343023E-05
   6.68520021         8.48920608E-05
   6.69719982         8.21393332E-05
   6.70919991         7.92457577E-05
   6.72119999         7.62827040E-05
   6.73320007         7.33213237E-05
   6.74520016         7.04309787E-05
   6.75719976         6.76781056E-05
   6.76919985         6.51253868E-05
   6.78119993         6.28314010E-05
   6.79320002         6.08503069E-05
   6.80520010         5.92318029E-05
   6.81720018         5.80209235E-05
   6.82919979         5.72577192E-05
   6.84119987         5.69766416E-05
   6.85319996         5.72056306E-05
   6.86520004         5.79648513E-05
   6.87720013         5.92651340E-05
   6.88920021         6.11062787E-05
   6.90119982         6.34752359E-05
   6.91319990         6.63445826E-05
   6.92519999         6.96711577E-05
   6.93720007         7.33954366E-05
   6.94920015         7.74415093E-05
   6.96120024         8.17179316E-05
   6.97319984         8.61196022E-05
   6.98519993         9.05304696E-05
   6.99720001         9.48272136E-05
   7.00920010         9.88836327E-05
   7.02120018         1.02575577E-04
   7.03319979         1.05786152E-04
   7.04519987         1.08410830E-04
   7.05719995         1.10362285E-04
   7.06920004         1.11574511E-04
   7.08120012         1.12005997E-04
   7.09320021         1.11641762E-04
   7.10519981         1.10494111E-04
   7.11719990         1.08601984E-04
   7.12919998         1.06029060E-04
   7.14120007         1.02860613E-04
   7.15320015         9.91993948E-05
   7.16520023         9.51608235E-05
   7.17719984         9.08677175E-05
   7.18919992         8.64449248E-05
   7.20120001         8.20142013E-05
   7.21320009         7.76895831E-05
   7.22520018         7.35735666E-05
   7.23719978         6.97541618E-05
   7.24919987         6.63030296E-05
   7.26119995         6.32747178E-05
   7.27320004         6.07068650E-05
   7.28520012         5.86213282E-05
   7.29720020         5.70260236E-05
   7.30919981         5.59172331E-05
   7.32119989         5.52821803E-05
   7.33319998         5.51015946E-05
   7.34520006         5.53520222E-05
   7.35720015         5.60078042E-05
   7.36920023         5.70424418E-05
   7.38119984         5.84294175E-05
   7.39319992         6.01423671E-05
   7.40520000         6.21547370E-05
   7.41720009         6.44389511E-05
   7.42920017         6.69653382E-05
   7.44119978         6.97009309E-05
   7.45319986         7.26082872E-05
   7.46519995         7.56446461E-05
   7.47720003         7.87614335E-05
   7.48920012         8.19043489E-05
   7.50120020         8.50140277E-05
   7.51319981         8.80273219E-05
   7.52519989         9.08791262E-05
   7.53719997         9.35047792E-05
   7.54920006         9.58426244E-05
   7.56120014         9.78368262E-05
   7.57320023         9.94400834E-05
   7.58519983         1.00615995E-04
   7.59719992         1.01341066E-04
   7.60920000         1.01605903E-04
   7.62120008         1.01415804E-04
   7.63320017         1.00790407E-04
   7.64519978         9.97625684E-05
   7.65719986         9.83764548E-05
   7.66919994         9.66849984E-05
   7.68120003         9.47469307E-05
   7.69320011         9.26235225E-05
   7.70520020         9.03753462E-05
   7.71719980         8.80592488E-05
   7.72919989         8.57257692E-05
   7.74119997         8.34172388E-05
   7.75320005         8.11665450E-05
   7.76520014         7.89968035E-05
   7.77720022         7.69218459E-05
   7.78919983         7.49474057E-05
   7.80119991         7.30730317E-05
   7.81320000         7.12943292E-05
   7.82520008         6.96054703E-05
   7.83720016         6.80016965E-05
   7.84919977         6.64814797E-05
   7.86119986         6.50482980E-05
   7.87319994         6.37117191E-05
   7.88520002         6.24877139E-05
   7.89720011         6.13982265E-05
   7.90920019         6.04699453E-05
   7.92119980         5.97324579E-05
   7.93319988         5.92158722E-05
   7.94519997         5.89481751E-05
   7.95720005         5.89525880E-05
   7.96920013         5.92450851E-05
   7.98120022         5.98323932E-05
   7.99319983         6.07106231E-05
   8.00520039         6.18646518E-05
   8.01720047         6.32683950E-05
   8.02919960         6.48858477E-05
   8.04119968         6.66729757E-05
   8.05319977         6.85801206E-05
   8.06519985         7.05549173E-05
   8.07719994         7.25453065E-05
   8.08920002         7.45025536E-05
   8.10120010         7.63839344E-05
   8.11320019         7.81549024E-05
   8.12520027         7.97906032E-05
   8.13720036         8.12765938E-05
   8.14920044         8.26087635E-05
   8.16119957         8.37924672E-05
   8.17319965         8.48409545E-05
   8.18519974         8.57733976E-05
   8.19719982         8.66124465E-05
   8.20919991         8.73817917E-05
   8.22119999         8.81038795E-05
   8.23320007         8.87978167E-05
   8.24520016         8.94779005E-05
   8.25720024         9.01526728E-05
   8.26920033         9.08246438E-05
   8.28120041         9.14906268E-05
   8.29319954         9.21426763E-05
   8.30519962         9.27694127E-05
   8.31719971         9.33576957E-05
   8.32919979         9.38943267E-05
   8.34119987         9.43677442E-05
   8.35319996         9.47694498E-05
   8.36520004         9.50950052E-05
   8.37720013         9.53446142E-05
   8.38920021         9.55231153E-05
   8.40120029         9.56394579E-05
   8.41320038         9.57057418E-05
   8.42520046         9.57357843E-05
   8.43719959         9.57435623E-05
   8.44919968         9.57415104E-05
   8.46119976         9.57389202E-05
   8.47319984         9.57406228E-05
   8.48519993         9.57460506E-05
   8.49720001         9.57487646E-05
   8.50920010         9.57366210E-05
   8.52120018         9.56924414E-05
   8.53320026         9.55952128E-05
   8.54520035         9.54217467E-05
   8.55720043         9.51486363E-05
   8.56919956         9.47543595E-05
   8.58119965         9.42213301E-05
   8.59319973         9.35377757E-05
   8.60519981         9.26992434E-05
   8.61719990         9.17096186E-05
   8.62919998         9.05814595E-05
   8.64120007         8.93358665E-05
   8.65320015         8.80015068E-05
   8.66520023         8.66131959E-05
   8.67720032         8.52099693E-05
   8.68920040         8.38327542E-05
   8.70119953         8.25219322E-05
   8.71319962         8.13149454E-05
   8.72519970         8.02439899E-05
   8.73719978         7.93341824E-05
   8.74919987         7.86021919E-05
   8.76119995         7.80554474E-05
   8.77320004         7.76919842E-05
   8.78520012         7.75010121E-05
   8.79720020         7.74639775E-05
   8.80920029         7.75561566E-05
   8.82120037         7.77485693E-05
   8.83320045         7.80101473E-05
   8.84519958         7.83097785E-05
   8.85719967         7.86183664E-05
   8.86919975         7.89104015E-05
   8.88119984         7.91652419E-05
   8.89319992         7.93678191E-05
   8.90520000         7.95088636E-05
   8.91720009         7.95845772E-05
   8.92920017         7.95959131E-05
   8.94120026         7.95475135E-05
   8.95320034         7.94464431E-05
   8.96520042         7.93008730E-05
   8.97719955         7.91188577E-05
   8.98919964         7.89073310E-05
   9.00119972         7.86713936E-05
   9.01319981         7.84140284E-05
   9.02519989         7.81361596E-05
   9.03719997         7.78371032E-05
   9.04920006         7.75153094E-05
   9.06120014         7.71693376E-05
   9.07320023         7.67988458E-05
   9.08520031         7.64055658E-05