 -0.622799993       0.00000000    
 -0.610800028       0.00000000    
 -0.598800004       0.00000000    
 -0.586799979       0.00000000    
 -0.574800014       0.00000000    
 -0.562799990       0.00000000    
 -0.550800025       0.00000000    
 -0.538800001       0.00000000    
 -0.526799977       0.00000000    
 -0.514800012       0.00000000    
 -0.502799988       0.00000000    
 -0.490799993       0.00000000    
 -0.478799999      -2.22832338E-38
 -0.466800004      -2.00544644E-37
 -0.454800010      -1.01751219E-36
 -0.442799985      -3.03813130E-36
 -0.430799991      -4.86400428E-36
 -0.418799996       4.34653995E-36
 -0.406800002       5.13889855E-35
 -0.394800007       1.42006674E-34
 -0.382800013       6.39037644E-35
 -0.370799989      -1.10976420E-33
 -0.358799994      -5.64236480E-33
 -0.346799999      -1.66219971E-32
 -0.334800005      -3.31702201E-32
 -0.322800010      -3.72366283E-32
 -0.310799986       2.74977163E-32
 -0.298799992       2.67188291E-31
 -0.286799997       7.92361057E-31
 -0.274800003       1.54410972E-30
 -0.262800008       1.95618209E-30
 -0.250800014       5.86423146E-31
 -0.238800004      -4.81749446E-30
 -0.226799995      -1.60024315E-29
 -0.214800000      -3.08870714E-29
 -0.202800006      -3.85928134E-29
 -0.190799996      -1.58025621E-29
 -0.178800002       6.90864534E-29
 -0.166800007       2.35707271E-28
 -0.154799998       4.51267967E-28
 -0.142800003       5.80304359E-28
 -0.130799994       3.59480746E-28
 -0.118799999      -5.43711257E-28
 -0.106799997      -2.32855523E-27
  -9.48000029E-02  -4.70604449E-27
  -8.28000009E-02  -6.50140331E-27
  -7.07999989E-02  -5.48957596E-27
  -5.88000007E-02   1.13337876E-27
  -4.67999987E-02   1.52895511E-26
  -3.48000005E-02   3.55842150E-26
  -2.28000004E-02   5.46400747E-26
  -1.08000003E-02   5.78506214E-26
   1.20000006E-03   2.58158383E-26
   1.31999999E-02  -5.76365197E-26
   2.52000000E-02  -1.91876820E-25
   3.72000001E-02  -3.43958787E-25
   4.91999984E-02  -4.39069774E-25
   6.12000003E-02  -3.67771786E-25
   7.32000023E-02  -1.96002938E-26
   8.51999968E-02   6.55197300E-25
   9.71999988E-02   1.56850515E-24
  0.109200001       2.43224276E-24
  0.121200003       2.75530911E-24
  0.133200005       1.94291215E-24
  0.145199999      -4.81556984E-25
  0.157199994      -4.55942868E-24
  0.169200003      -9.57434801E-24
  0.181199998      -1.38709941E-23
  0.193200007      -1.49830277E-23
  0.205200002      -1.01984545E-23
  0.217199996       2.42353137E-24
  0.229200006       2.27467427E-23
  0.241200000       4.73252677E-23
  0.253199995       6.87670435E-23
  0.265199989       7.62695209E-23
  0.277200013       5.77858915E-23
  0.289200008       3.95253668E-24
  0.301200002      -8.66343202E-23
  0.313199997      -2.01919551E-22
  0.325199991      -3.12565977E-22
  0.337199986      -3.72313140E-22
  0.349200010      -3.25122396E-22
  0.361200005      -1.20853945E-22
  0.373199999       2.61005675E-22
  0.385199994       7.83758528E-22
  0.397199988       1.33091533E-21
  0.409200013       1.70164078E-21
  0.421200007       1.63847364E-21
  0.433200002       8.97083837E-22
  0.445199996      -6.44402475E-22
  0.457199991      -2.85844822E-21
  0.469199985      -5.26776281E-21
  0.481200010      -7.03205464E-21
  0.493200004      -7.08092696E-21
  0.505200028      -4.42244198E-21
  0.517199993       1.40379487E-21
  0.529200017       9.84208816E-21
  0.541199982       1.89949749E-20
  0.553200006       2.56814215E-20
  0.565199971       2.60569874E-20
  0.577199996       1.68240927E-20
  0.589200020      -3.17830923E-21
  0.601199985      -3.14816088E-20
  0.613200009      -6.12547988E-20
  0.625199974      -8.19867043E-20
  0.637199998      -8.19452484E-20
  0.649200022      -5.21993166E-20
  0.661199987       8.74903764E-21
  0.673200011       9.13246558E-20
  0.685199976       1.74087398E-19
  0.697200000       2.27229513E-19
  0.709200025       2.20633497E-19
  0.721199989       1.35033681E-19
  0.733200014      -2.69492649E-20
  0.745199978      -2.34236069E-19
  0.757200003      -4.29250955E-19
  0.769200027      -5.40495218E-19
  0.781199992      -5.04315217E-19
  0.793200016      -2.90388035E-19
  0.805199981       7.76969457E-20
  0.817200005       5.16049602E-19
  0.829200029       8.94727044E-19
  0.841199994       1.07281748E-18
  0.853200018       9.46466778E-19
  0.865199983       4.94784753E-19
  0.877200007      -1.94496218E-19
  0.889199972      -9.34327799E-19
  0.901199996      -1.48710882E-18
  0.913200021      -1.64275950E-18
  0.925199986      -1.30181033E-18
  0.937200010      -5.31521395E-19
  0.949199975       4.33333737E-19
  0.961199999       1.25711539E-18
  0.973200023       1.62421494E-18
  0.985199988       1.37512325E-18
  0.997200012       6.02889917E-19
   1.00919998      -3.41060525E-19
   1.02119994      -9.56234230E-19
   1.03320003      -7.98068198E-19
   1.04519999       2.87745969E-19
   1.05719995       1.99874609E-18
   1.06920004       3.57121995E-18
   1.08120000       3.98790556E-18
   1.09319997       2.37026392E-18
   1.10520005      -1.55961854E-18
   1.11720002      -7.12552074E-18
   1.12919998      -1.26360656E-17
   1.14119995      -1.57318023E-17
   1.15320003      -1.41217531E-17
   1.16520000      -6.52789722E-18
   1.17719996       6.47699294E-18
   1.18920004       2.20959016E-17
   1.20120001       3.56704599E-17
   1.21319997       4.18400494E-17
   1.22520006       3.62707548E-17
   1.23720002       1.74605056E-17
   1.24919999      -1.20166736E-17
   1.26119995      -4.54031795E-17
   1.27320004      -7.30765499E-17
   1.28520000      -8.51339051E-17
   1.29719996      -7.45996475E-17
   1.30920005      -4.02708017E-17
   1.32120001       1.18406099E-17
   1.33319998       6.92043785E-17
   1.34519994       1.15729106E-16
   1.35720003       1.36340488E-16
   1.36919999       1.21887419E-16
   1.38119996       7.27786127E-17
   1.39320004      -3.91421187E-20
   1.40520000      -7.74293066E-17
   1.41719997      -1.37358674E-16
   1.42920005      -1.61696274E-16
   1.44120002      -1.42388369E-16
   1.45319998      -8.48416390E-17
   1.46519995      -7.05974003E-18
   1.47720003       6.56167175E-17
   1.48920000       1.08803731E-16
   1.50119996       1.07823463E-16
   1.51320004       6.38766604E-17
   1.52520001      -4.84528985E-18
   1.53719997      -6.81071863E-17
   1.54920006      -9.36271442E-17
   1.56120002      -5.92209504E-17
   1.57319999       3.69252400E-17
   1.58519995       1.71733998E-16
   1.59720004       3.00865097E-16
   1.60920000       3.70417566E-16
   1.62119997       3.33894062E-16
   1.63320005       1.69507082E-16
   1.64520001      -1.07811770E-16
   1.65719998      -4.44287574E-16
   1.66919994      -7.57007745E-16
   1.68120003      -9.53873448E-16
   1.69319999      -9.58847543E-16
   1.70519996      -7.35448850E-16
   1.71720004      -3.01349494E-16
   1.72920001       2.70950752E-16
   1.74119997       8.68594330E-16
   1.75320005       1.36475484E-15
   1.76520002       1.64997762E-15
   1.77719998       1.65965200E-15
   1.78919995       1.38951361E-15
   1.80120003       8.94319620E-16
   1.81320000       2.69753656E-16
   1.82519996      -3.77150711E-16
   1.83720005      -9.59828196E-16
   1.84920001      -1.43560925E-15
   1.86119998      -1.81195403E-15
   1.87320006      -2.13151712E-15
   1.88520002      -2.43877345E-15
   1.89719999      -2.73778773E-15
   1.90919995      -2.95569627E-15
   1.92120004      -2.92781978E-15
   1.93320000      -2.41703393E-15
   1.94519997      -1.17207951E-15
   1.95720005       9.81748879E-16
   1.96920002       4.03827235E-15
   1.98119998       7.72103481E-15
   1.99319994       1.14416296E-14
   2.00519991       1.43344995E-14
   2.01719999       1.53835549E-14
   2.02920008       1.36345809E-14
   2.04119992       8.46170583E-15
   2.05320001      -1.67710657E-16
   2.06520009      -1.15004026E-14
   2.07719994      -2.39469631E-14
   2.08920002      -3.52245597E-14
   2.10120010      -4.27048194E-14
   2.11319995      -4.39282942E-14
   2.12520003      -3.71949277E-14
   2.13720012      -2.21007582E-14
   2.14919996       1.21324645E-16
   2.16120005       2.65758349E-14
   2.17319989       5.30536308E-14
   2.18519998       7.47293734E-14
   2.19720006       8.70882752E-14
   2.20919991       8.68876165E-14
   2.22119999       7.29250170E-14
   2.23320007       4.64098229E-14
   2.24519992       1.08174866E-14
   2.25720000      -2.87663773E-14
   2.26920009      -6.66670156E-14
   2.28119993      -9.77505566E-14
   2.29320002      -1.18360793E-13
   2.30520010      -1.26801564E-13
   2.31719995      -1.23229565E-13
   2.32920003      -1.09005585E-13
   2.34120011      -8.57396090E-14
   2.35319996      -5.43983227E-14
   2.36520004      -1.48679219E-14
   2.37719989       3.37436073E-14
   2.38919997       9.20099568E-14
   2.40120006       1.58535782E-13
   2.41319990       2.28266353E-13
   2.42519999       2.91432378E-13
   2.43720007       3.33774512E-13
   2.44919991       3.38444144E-13
   2.46120000       2.89544295E-13
   2.47320008       1.76754634E-13
   2.48519993       1.82358418E-17
   2.49720001      -2.26998040E-13
   2.50920010      -4.75909947E-13
   2.52119994      -7.05927775E-13
   2.53320003      -8.69616391E-13
   2.54520011      -9.21398374E-13
   2.55719995      -8.27307678E-13
   2.56920004      -5.73986117E-13
   2.58119988      -1.74839608E-13
   2.59319997       3.28308127E-13
   2.60520005       8.68872520E-13
   2.61719990       1.36418719E-12
   2.62919998       1.72783749E-12
   2.64120007       1.88349098E-12
   2.65319991       1.77776262E-12
   2.66520000       1.38991065E-12
   2.67720008       7.36887764E-13
   2.68919992      -1.26730806E-13
   2.70120001      -1.11345124E-12
   2.71320009      -2.11103444E-12
   2.72519994      -2.99276229E-12
   2.73720002      -3.62869305E-12
   2.74920011      -3.89736290E-12
   2.76119995      -3.69800024E-12
   2.77320004      -2.96359747E-12
   2.78520012      -1.67494350E-12
   2.79719996       1.25140702E-13
   2.80920005       2.31941181E-12
   2.82119989       4.70903264E-12
   2.83319998       7.01584190E-12
   2.84520006       8.89815478E-12
   2.85719991       9.98273946E-12
   2.86919999       9.91288475E-12
   2.88120008       8.40876240E-12
   2.89319992       5.33242287E-12
   2.90520000       7.46546488E-13
   2.91720009      -5.04547966E-12
   2.92919993      -1.14898776E-11
   2.94120002      -1.78115994E-11
   2.95320010      -2.30852074E-11
   2.96519995      -2.63435176E-11
   2.97720003      -2.67129305E-11
   2.98920012      -2.35584469E-11
   3.00119996      -1.66176638E-11
   3.01320004      -6.10255076E-12
   3.02519989       7.24951653E-12
   3.03719997       2.21884022E-11
   3.04920006       3.70329600E-11
   3.06119990       4.98189892E-11
   3.07319999       5.85025708E-11
   3.08520007       6.12012177E-11
   3.09719992       5.64504693E-11
   3.10920000       4.34506077E-11
   3.12120008       2.22768713E-11
   3.13319993      -5.97288885E-12
   3.14520001      -3.91174662E-11
   3.15720010      -7.39395489E-11
   3.16919994      -1.06356229E-10
   3.18120003      -1.31720093E-10
   3.19320011      -1.45246773E-10
   3.20519996      -1.42550013E-10
   3.21720004      -1.20248686E-10
   3.22919989      -7.65920730E-11
   3.24119997      -1.20341818E-11
   3.25320005       7.03226782E-11
   3.26519990       1.64497804E-10
   3.27719998       2.61689503E-10
   3.28920007       3.50674018E-10
   3.30119991       4.18569623E-10
   3.31320000       4.51948395E-10
   3.32520008       4.38236086E-10
   3.33719993       3.67296499E-10
   3.34920001       2.33062958E-10
   3.36120009       3.50544281E-11
   3.37319994      -2.20391302E-10
   3.38520002      -5.19325916E-10
   3.39720011      -8.39969594E-10
   3.40919995      -1.15314736E-09
   3.42120004      -1.42341405E-09
   3.43319988      -1.61083458E-09
   3.44519997      -1.67332037E-09
   3.45720005      -1.56935120E-09
   3.46919990      -1.26084998E-09
   3.48119998      -7.15910775E-10
   3.49320006       8.89654808E-11
   3.50519991       1.16751864E-09
   3.51719999       2.52367083E-09
   3.52920008       4.15316315E-09
   3.54119992       6.04726180E-09
   3.55320001       8.19882118E-09
   3.56520009       1.06108722E-08
   3.57719994       1.33077593E-08
   3.58920002       1.63486131E-08
   3.60120010       1.98427514E-08
   3.61319995       2.39663525E-08
   3.62520003       2.89794748E-08
   3.63720012       3.52423548E-08
   3.64919996       4.32296723E-08
   3.66120005       5.35414451E-08
   3.67319989       6.69091662E-08
   3.68519998       8.41957828E-08
   3.69720006       1.06388448E-07
   3.70919991       1.34582990E-07
   3.72119999       1.69959449E-07
   3.73320007       2.13748578E-07
   3.74519992       2.67189222E-07
   3.75720000       3.31477594E-07
   3.76920009       4.07709365E-07
   3.78119993       4.96816597E-07
   3.79320002       5.99501618E-07
   3.80520010       7.16170803E-07
   3.81719995       8.46871217E-07
   3.82920003       9.91233946E-07
   3.84120011       1.14842737E-06
   3.85319996       1.31712363E-06
   3.86520004       1.49548316E-06
   3.87719989       1.68115673E-06
   3.88919997       1.87131104E-06
   3.90120006       2.06267555E-06
   3.91319990       2.25161307E-06
   3.92519999       2.43421186E-06
   3.93720007       2.60639649E-06
   3.94919991       2.76405626E-06
   3.96120000       2.90318371E-06
   3.97320008       3.02002059E-06
   3.98519993       3.11120380E-06
   3.99720001       3.17390322E-06
   4.00920010       3.20594995E-06
   4.02120018       3.20594177E-06
   4.03319979       3.17332479E-06
   4.04519987       3.10844393E-06
   4.05719995       3.01256023E-06
   4.06920004       2.88783053E-06
   4.08120012       2.73725254E-06
   4.09320021       2.56457110E-06
   4.10519981       2.37415520E-06
   4.11719990       2.17084653E-06
   4.12919998       1.95978691E-06
   4.14120007       1.74623312E-06
   4.15320015       1.53536621E-06
   4.16520023       1.33210574E-06
   4.17719984       1.14093518E-06
   4.18919992       9.65748882E-07
   4.20120001       8.09724952E-07
   4.21320009       6.75231490E-07
   4.22520018       5.63767230E-07
   4.23719978       4.75940624E-07
   4.24919987       4.11484763E-07
   4.26119995       3.69307514E-07
   4.27320004       3.47572069E-07
   4.28520012       3.43802782E-07
   4.29720020       3.55010314E-07
   4.30919981       3.77828343E-07
   4.32119989       4.08656092E-07
   4.33319998       4.43798541E-07
   4.34520006       4.79599407E-07
   4.35720015       5.12560916E-07
   4.36920023       5.39447342E-07
   4.38119984       5.57369560E-07
   4.39319992       5.63849426E-07
   4.40520000       5.56864904E-07
   4.41720009       5.34877643E-07
   4.42920017       4.96844621E-07
   4.44119978       4.42217583E-07
   4.45319986       3.70934146E-07
   4.46519995       2.83402045E-07
   4.47720003       1.80480612E-07
   4.48920012       6.34611368E-08
   4.50120020      -6.59532446E-08
   4.51319981      -2.05667689E-07
   4.52519989      -3.53216734E-07
   4.53719997      -5.05788023E-07
   4.54920006      -6.60250748E-07
   4.56120014      -8.13191718E-07
   4.57320023      -9.60961415E-07
   4.58519983      -1.09973212E-06
   4.59719992      -1.22556912E-06
   4.60920000      -1.33451817E-06
   4.62120008      -1.42270346E-06
   4.63320017      -1.48643949E-06
   4.64519978      -1.52234884E-06
   4.65719986      -1.52748498E-06
   4.66919994      -1.49945026E-06
   4.68120003      -1.43650720E-06
   4.69320011      -1.33767219E-06
   4.70520020      -1.20278821E-06
   4.71719980      -1.03256878E-06
   4.72919989      -8.28610780E-07
   4.74119997      -5.93372192E-07
   4.75320005      -3.30113892E-07
   4.76520014      -4.28089564E-08
   4.77720022       2.63979274E-07
   4.78919983       5.85243129E-07
   4.80119991       9.15694045E-07
   4.81320000       1.24993505E-06
   4.82520008       1.58263401E-06
   4.83720016       1.90868900E-06
   4.84919977       2.22337735E-06
   4.86119986       2.52248242E-06
   4.87319994       2.80239487E-06
   4.88520002       3.06018183E-06
   4.89720011       3.29362729E-06
   4.90920019       3.50124060E-06
   4.92119980       3.68224278E-06
   4.93319988       3.83652514E-06
   4.94519997       3.96459245E-06
   4.95720005       4.06749632E-06
   4.96920013       4.14675651E-06
   4.98120022       4.20428478E-06
   4.99319983       4.24230620E-06
   5.00519991       4.26328370E-06
   5.01719999       4.26985162E-06
   5.02920008       4.26474708E-06
   5.04120016       4.25075132E-06
   5.05319977       4.23063284E-06
   5.06519985       4.20709239E-06
   5.07719994       4.18270929E-06
   5.08920002       4.15988870E-06
   5.10120010       4.14081478E-06
   5.11320019       4.12740110E-06
   5.12519979       4.12125519E-06
   5.13719988       4.12364489E-06
   5.14919996       4.13548196E-06
   5.16120005       4.15731711E-06
   5.17320013       4.18935497E-06
   5.18520021       4.23148322E-06
   5.19719982       4.28331987E-06
   5.20919991       4.34427966E-06
   5.22119999       4.41364091E-06
   5.23320007       4.49063145E-06
   5.24520016       4.57450278E-06
   5.25719976       4.66460233E-06
   5.26919985       4.76043124E-06
   5.28119993       4.86168710E-06
   5.29320002       4.96827533E-06
   5.30520010       5.08030553E-06
   5.31720018       5.19805690E-06
   5.32919979       5.32192053E-06
   5.34119987       5.45232888E-06
   5.35319996       5.58967076E-06
   5.36520004       5.73420448E-06
   5.37720013       5.88597550E-06
   5.38920021       6.04475053E-06
   5.40119982       6.20997025E-06
   5.41319990       6.38073516E-06
   5.42519999       6.55581880E-06
   5.43720007       6.73371687E-06
   5.44920015       6.91272680E-06
   5.46120024       7.09105370E-06
   5.47319984       7.26693634E-06
   5.48519993       7.43878309E-06
   5.49720001       7.60530747E-06
   5.50920010       7.76564957E-06
   5.52120018       7.91948241E-06
   5.53319979       8.06707885E-06
   5.54519987       8.20934656E-06
   5.55719995       8.34781167E-06
   5.56920004       8.48456602E-06
   5.58120012       8.62216893E-06
   5.59320021       8.76350077E-06
   5.60519981       8.91159380E-06
   5.61719990       9.06943569E-06
   5.62919998       9.23976950E-06
   5.64120007       9.42487804E-06
   5.65320015       9.62640479E-06
   5.66520023       9.84517828E-06
   5.67719984       1.00810939E-05
   5.68919992       1.03330322E-05
   5.70120001       1.05988238E-05
   5.71320009       1.08752874E-05
   5.72520018       1.11583122E-05
   5.73719978       1.14430086E-05
   5.74919987       1.17239060E-05
   5.76119995       1.19951974E-05
   5.77320004       1.22510164E-05
   5.78520012       1.24857479E-05
   5.79720020       1.26943369E-05
   5.80919981       1.28726097E-05
   5.82119989       1.30175640E-05
   5.83319998       1.31276302E-05
   5.84520006       1.32028817E-05
   5.85720015       1.32451842E-05
   5.86920023       1.32582636E-05
   5.88119984       1.32476953E-05
   5.89319992       1.32207879E-05
   5.90520000       1.31863881E-05
   5.91720009       1.31545748E-05
   5.92920017       1.31362794E-05
   5.94119978       1.31428123E-05
   5.95319986       1.31853503E-05
   5.96519995       1.32743653E-05
   5.97720003       1.34190541E-05
   5.98920012       1.36267690E-05
   6.00120020       1.39025115E-05
   6.01319981       1.42484751E-05
   6.02519989       1.46637149E-05
   6.03719997       1.51439317E-05
   6.04920006       1.56814112E-05
   6.06120014       1.62651213E-05
   6.07320023       1.68809838E-05
   6.08519983       1.75123041E-05
   6.09719992       1.81403739E-05
   6.10920000       1.87451806E-05
   6.12120008       1.93062515E-05
   6.13320017       1.98035486E-05
   6.14519978       2.02183874E-05
   6.15719986       2.05343658E-05
   6.16919994       2.07381945E-05
   6.18120003       2.08204510E-05
   6.19320011       2.07761659E-05
   6.20520020       2.06052464E-05
   6.21719980       2.03126801E-05
   6.22919989       1.99085371E-05
   6.24119997       1.94077347E-05
   6.25320005       1.88295999E-05
   6.26520014       1.81972155E-05
   6.27720022       1.75366113E-05
   6.28919983       1.68758143E-05
   6.30119991       1.62438064E-05
   6.31320000       1.56694241E-05
   6.32520008       1.51802769E-05
   6.33720016       1.48016907E-05
   6.34919977       1.45557588E-05
   6.36119986       1.44605065E-05
   6.37319994       1.45292333E-05
   6.38520002       1.47700230E-05
   6.39720011       1.51854638E-05
   6.40920019       1.57725808E-05
   6.42119980       1.65229540E-05
   6.43319988       1.74230481E-05
   6.44519997       1.84546952E-05
   6.45720005       1.95957400E-05
   6.46920013       2.08207784E-05
   6.48120022       2.21019927E-05
   6.49319983       2.34100135E-05
   6.50519991       2.47147909E-05
   6.51719999       2.59864210E-05
   6.52920008       2.71959234E-05
   6.54120016       2.83159061E-05
   6.55319977       2.93211342E-05
   6.56519985       3.01889504E-05
   6.57719994       3.08995695E-05
   6.58920002       3.14362369E-05
   6.60120010       3.17852464E-05
   6.61320019       3.19358442E-05
   6.62519979       3.18800412E-05
   6.63719988       3.16123405E-05
   6.64919996       3.11294098E-05
   6.66120005       3.04297319E-05
   6.67320013       2.95132686E-05
   6.68520021       2.83811332E-05
   6.69719982       2.70353248E-05
   6.70919991       2.54785355E-05
   6.72119999       2.37140212E-05
   6.73320007       2.17455654E-05
   6.74520016       1.95775556E-05
   6.75719976       1.72151085E-05
   6.76919985       1.46643006E-05
   6.78119993       1.19324350E-05
   6.79320002       9.02835836E-06
   6.80520010       5.96280006E-06
   6.81720018       2.74868262E-06
   6.82919979      -5.98580471E-07
   6.84119987      -4.06085337E-06
   6.85319996      -7.61712408E-06
   6.86520004      -1.12434427E-05
   6.87720013      -1.49129637E-05
   6.88920021      -1.85961053E-05
   6.90119982      -2.22608178E-05
   6.91319990      -2.58729742E-05
   6.92519999      -2.93968442E-05
   6.93720007      -3.27956550E-05
   6.94920015      -3.60322447E-05
   6.96120024      -3.90697132E-05
   6.97319984      -4.18721502E-05
   6.98519993      -4.44053112E-05
   6.99720001      -4.66373058E-05
   7.00920010      -4.85392375E-05
   7.02120018      -5.00857350E-05
   7.03319979      -5.12554798E-05
   7.04519987      -5.20315989E-05
   7.05719995      -5.24019779E-05
   7.06920004      -5.23594645E-05
   7.08120012      -5.19020177E-05
   7.09320021      -5.10327336E-05
   7.10519981      -4.97598267E-05
   7.11719990      -4.80965027E-05
   7.12919998      -4.60608135E-05
   7.14120007      -4.36754308E-05
   7.15320015      -4.09673994E-05
   7.16520023      -3.79678349E-05
   7.17719984      -3.47116293E-05
   7.18919992      -3.12370685E-05
   7.20120001      -2.75855018E-05
   7.21320009      -2.38009052E-05
   7.22520018      -1.99294755E-05
   7.23719978      -1.60191594E-05
   7.24919987      -1.21191451E-05
   7.26119995      -8.27932763E-06
   7.27320004      -4.54969950E-06
   7.28520012      -9.79728270E-07
   7.29720020       2.38233565E-06
   7.30919981       5.49017523E-06
   7.32119989       8.30015324E-06
   7.33319998       1.07720789E-05
   7.34520006       1.28699621E-05
   7.35720015       1.45627509E-05
   7.36920023       1.58250077E-05
   7.38119984       1.66375230E-05
   7.39319992       1.69878222E-05
   7.40520000       1.68705483E-05
   7.41720009       1.62876950E-05
   7.42920017       1.52486773E-05
   7.44119978       1.37702173E-05
   7.45319986       1.18760554E-05
   7.46519995       9.59646150E-06
   7.47720003       6.96758707E-06
   7.48920012       4.03064632E-06
   7.50120020       8.30966144E-07
   7.51319981      -2.58308455E-06
   7.52519989      -6.16122406E-06
   7.53719997      -9.85244060E-06
   7.54920006      -1.36061644E-05
   7.56120014      -1.73734134E-05
   7.57320023      -2.11078550E-05
   7.58519983      -2.47667685E-05
   7.59719992      -2.83118716E-05
   7.60920000      -3.17099875E-05
   7.62120008      -3.49335423E-05
   7.63320017      -3.79608609E-05
   7.64519978      -4.07762927E-05
   7.65719986      -4.33701280E-05
   7.66919994      -4.57383612E-05
   7.68120003      -4.78822549E-05
   7.69320011      -4.98077752E-05
   7.70520020      -5.15249012E-05
   7.71719980      -5.30468387E-05
   7.72919989      -5.43891765E-05
   7.74119997      -5.55689803E-05
   7.75320005      -5.66039271E-05
   7.76520014      -5.75114354E-05
   7.77720022      -5.83078909E-05
   7.78919983      -5.90079362E-05
   7.80119991      -5.96238933E-05
   7.81320000      -6.01653301E-05
   7.82520008      -6.06387657E-05
   7.83720016      -6.10475327E-05
   7.84919977      -6.13918455E-05
   7.86119986      -6.16689940E-05
   7.87319994      -6.18737031E-05
   7.88520002      -6.19986313E-05
   7.89720011      -6.20349601E-05
   7.90920019      -6.19731145E-05
   7.92119980      -6.18034755E-05
   7.93319988      -6.15171521E-05
   7.94519997      -6.11067153E-05
   7.95720005      -6.05668429E-05
   7.96920013      -5.98949337E-05
   7.98120022      -5.90915479E-05
   7.99319983      -5.81607128E-05
   8.00520039      -5.71100682E-05
   8.01720047      -5.59508298E-05
   8.02919960      -5.46975825E-05
   8.04119968      -5.33679158E-05
   8.05319977      -5.19818896E-05
   8.06519985      -5.05613971E-05
   8.07719994      -4.91294049E-05
   8.08920002      -4.77091635E-05
   8.10120010      -4.63233555E-05
   8.11320019      -4.49932922E-05
   8.12520027      -4.37381423E-05
   8.13720036      -4.25742437E-05
   8.14920044      -4.15145259E-05
   8.16119957      -4.05680439E-05
   8.17319965      -3.97396871E-05
   8.18519974      -3.90300120E-05
   8.19719982      -3.84352461E-05
   8.20919991      -3.79474077E-05
   8.22119999      -3.75546078E-05
   8.23320007      -3.72413997E-05
   8.24520016      -3.69893023E-05
   8.25720024      -3.67773428E-05
   8.26920033      -3.65826600E-05
   8.28120041      -3.63811923E-05
   8.29319954      -3.61483144E-05
   8.30519962      -3.58594843E-05
   8.31719971      -3.54909025E-05
   8.32919979      -3.50201153E-05
   8.34119987      -3.44265754E-05
   8.35319996      -3.36921476E-05
   8.36520004      -3.28015813E-05
   8.37720013      -3.17428930E-05
   8.38920021      -3.05076956E-05
   8.40120029      -2.90914304E-05
   8.41320038      -2.74935410E-05
   8.42520046      -2.57175525E-05
   8.43719959      -2.37710356E-05
   8.44919968      -2.16655135E-05
   8.46119976      -1.94162367E-05
   8.47319984      -1.70418843E-05
   8.48519993      -1.45641488E-05
   8.49720001      -1.20072664E-05
   8.50920010      -9.39742313E-06
   8.52120018      -6.76212949E-06
   8.53320026      -4.12952841E-06
   8.54520035      -1.52766211E-06
   8.55720043       1.01626358E-06
   8.56919956       3.47661307E-06
   8.58119965       5.83001156E-06
   8.59319973       8.05597756E-06
   8.60519981       1.01374717E-05
   8.61719990       1.20613158E-05
   8.62919998       1.38185078E-05
   8.64120007       1.54043555E-05
   8.65320015       1.68184761E-05
   8.66520023       1.80646221E-05
   8.67720032       1.91503568E-05
   8.68920040       2.00865798E-05
   8.70119953       2.08869333E-05
   8.71319962       2.15671116E-05
   8.72519970       2.21440969E-05
   8.73719978       2.26353768E-05
   8.74919987       2.30581554E-05
   8.76119995       2.34286126E-05
   8.77320004       2.37612458E-05
   8.78520012       2.40683039E-05
   8.79720020       2.43593695E-05
   8.80920029       2.46410746E-05
   8.82120037       2.49169861E-05
   8.83320045       2.51876536E-05
   8.84519958       2.54507977E-05
   8.85719967       2.57016454E-05
   8.86919975       2.59333865E-05
   8.88119984       2.61377136E-05
   8.89319992       2.63054408E-05
   8.90520000       2.64271221E-05
   8.91720009       2.64937153E-05
   8.92920017       2.64971768E-05
   8.94120026       2.64310347E-05
   8.95320034       2.62908561E-05
   8.96520042       2.60746310E-05
   8.97719955       2.57830579E-05
   8.98919964       2.54196857E-05
   9.00119972       2.49909353E-05
   9.01319981       2.45060128E-05
   9.02519989       2.39766650E-05
   9.03719997       2.34168547E-05
   9.04920006       2.28422941E-05
   9.06120014       2.22699146E-05
   9.07320023       2.17172383E-05
   9.08520031       2.12017221E-05
   9.09720039       2.07400481E-05
   9.10919952       2.03474301E-05
   9.12119961       2.00369304E-05
   9.13319969       1.98188518E-05
   9.14519978       1.97001918E-05
   9.15719986       1.96842302E-05
   9.16919994       1.97702266E-05
   9.18120003       1.99533060E-05
   9.19320011       2.02244792E-05
   9.20520020       2.05708584E-05
   9.21720028       2.09760492E-05
   9.22920036       2.14206830E-05
   9.24120045       2.18831228E-05
   9.25319958       2.23402712E-05
   9.26519966       2.27684613E-05
   9.27719975       2.31443955E-05
   9.28919983       2.34460913E-05
   9.30119991       2.36537635E-05
   9.31320000       2.37506501E-05
   9.32520008       2.37236818E-05
   9.33720016       2.35640073E-05
   9.34920025       2.32673374E-05
   9.36120033       2.28340887E-05
   9.37320042       2.22693288E-05
   9.38519955       2.15825348E-05
   9.39719963       2.07871781E-05
   9.40919971       1.99001479E-05
   9.42119980       1.89410857E-05
   9.43319988       1.79316230E-05
   9.44519997       1.68945662E-05
