 -0.622799993         1.00000002E-24
 -0.610800028         1.00000002E-24
 -0.598800004         1.00000002E-24
 -0.586799979         1.00000002E-24
 -0.574800014         1.00000012E-24
 -0.562799990         1.00000012E-24
 -0.550800025         1.00000012E-24
 -0.538800001         1.00000022E-24
 -0.526799977         1.00000022E-24
 -0.514800012         1.00000032E-24
 -0.502799988         1.00000091E-24
 -0.490799993         9.99999428E-25
 -0.478799999         9.99967873E-25
 -0.466800004         9.99780815E-25
 -0.454800010         9.99118073E-25
 -0.442799985         9.97596853E-25
 -0.430799991         9.95779416E-25
 -0.418799996         9.97621209E-25
 -0.406800002         1.01297846E-24
 -0.394800007         1.05395594E-24
 -0.382800013         1.11394250E-24
 -0.370799989         1.12347706E-24
 -0.358799994         9.08033235E-25
 -0.346799999         2.32859315E-25
 -0.334800005        -9.30583317E-25
 -0.322800010        -1.84735269E-24
 -0.310799986        -4.10943629E-25
 -0.298799992         6.71268092E-24
 -0.286799997         2.18985531E-23
 -0.274800003         4.14169614E-23
 -0.262800008         4.86035095E-23
 -0.250800014         1.08404398E-23
 -0.238800004        -1.09776432E-22
 -0.226799995        -3.22414217E-22
 -0.214800000        -5.51521361E-22
 -0.202800006        -5.85388358E-22
 -0.190799996        -8.77506783E-23
 -0.178800002         1.25304888E-21
 -0.166800007         3.39788105E-21
 -0.154799998         5.52857552E-21
 -0.142800003         5.77432450E-21
 -0.130799994         1.51378475E-21
 -0.118799999        -9.33945557E-21
 -0.106799997        -2.60278277E-20
  -9.48000029E-02    -4.23608788E-20
  -8.28000009E-02    -4.55790864E-20
  -7.07999989E-02    -1.90224351E-20
  -5.88000007E-02     4.96169201E-20
  -4.67999987E-02     1.55109031E-19
  -3.48000005E-02     2.61386256E-19
  -2.28000004E-02     2.97366054E-19
  -1.08000003E-02     1.72897111E-19
   1.20000006E-03    -1.78488309E-19
   1.31999999E-02    -7.35706121E-19
   2.52000000E-02    -1.32934035E-18
   3.72000001E-02    -1.62535562E-18
   4.91999984E-02    -1.19847997E-18
   6.12000003E-02     2.81483695E-19
   7.32000023E-02     2.77947348E-18
   8.51999968E-02     5.64190738E-18
   9.71999988E-02     7.52199502E-18
  0.109200001         6.65148876E-18
  0.121200003         1.53895216E-18
  0.133200005        -8.01631733E-18
  0.145199999        -1.99543691E-17
  0.157199994        -2.95895839E-17
  0.169200003        -3.04240139E-17
  0.181199998        -1.64194276E-17
  0.193200007         1.46057977E-17
  0.205200002         5.75725713E-17
  0.217199996         9.84773144E-17
  0.229200006         1.16278552E-16
  0.241200000         8.93107437E-17
  0.253199995         5.44176565E-18
  0.265199989        -1.27065874E-16
  0.277200013        -2.72895249E-16
  0.289200008        -3.72482342E-16
  0.301200002        -3.57534142E-16
  0.313199997        -1.77991692E-16
  0.325199991         1.66769405E-16
  0.337199986         6.04879568E-16
  0.349200010         9.91080111E-16
  0.361200005         1.13790173E-15
  0.373199999         8.78516103E-16
  0.385199994         1.46615342E-16
  0.397199988        -9.54595226E-16
  0.409200013        -2.12818341E-15
  0.421200007        -2.93130680E-15
  0.433200002        -2.90146964E-15
  0.445199996        -1.73669304E-15
  0.457199991         5.26014184E-16
  0.469199985         3.40751402E-15
  0.481200010         6.02542901E-15
  0.493200004         7.30507218E-15
  0.505200028         6.33212820E-15
  0.517199993         2.75096883E-15
  0.529200017        -2.93363000E-15
  0.541199982        -9.29559537E-15
  0.553200006        -1.42571485E-14
  0.565199971        -1.56742685E-14
  0.577199996        -1.20984901E-14
  0.589200020        -3.47407641E-15
  0.601199985         8.50327990E-15
  0.613200009         2.05758499E-14
  0.625199974         2.87134750E-14
  0.637199998         2.93452125E-14
  0.649200022         2.06811666E-14
  0.661199987         3.67182388E-15
  0.673200011        -1.78006955E-14
  0.685199976        -3.77015923E-14
  0.697200000        -4.94836783E-14
  0.709200025        -4.81590137E-14
  0.721199989        -3.21564674E-14
  0.733200014        -4.30367657E-15
  0.745199978         2.85123352E-14
  0.757200003         5.70518974E-14
  0.769200027         7.23809169E-14
  0.781199992         6.86977669E-14
  0.793200016         4.54140408E-14
  0.805199981         7.74600280E-15
  0.817200005        -3.44865839E-14
  0.829200029        -6.95817441E-14
  0.841199994        -8.74050859E-14
  0.853200018        -8.24964961E-14
  0.865199983        -5.58306453E-14
  0.877200007        -1.46357485E-14
  0.889199972         2.97074309E-14
  0.901199996         6.50427994E-14
  0.913200021         8.20354933E-14
  0.925199986         7.68658073E-14
  0.937200010         5.22022069E-14
  0.949199975         1.61986920E-14
  0.961199999        -2.01112981E-14
  0.973200023        -4.61717761E-14
  0.985199988        -5.49768090E-14
  0.997200012        -4.49772598E-14
   1.00919998        -2.03505917E-14
   1.02119994         1.03292940E-14
   1.03320003         3.65518434E-14
   1.04519999         4.87528922E-14
   1.05719995         4.09063246E-14
   1.06920004         1.22762865E-14
   1.08120000        -3.19792952E-14
   1.09319997        -8.14437222E-14
   1.10520005        -1.22245530E-13
   1.11720002        -1.39841467E-13
   1.12919998        -1.22449726E-13
   1.14119995        -6.46086375E-14
   1.15320003         2.98928498E-14
   1.16520000         1.46628694E-13
   1.17719996         2.61555480E-13
   1.18920004         3.44915773E-13
   1.20120001         3.67772029E-13
   1.21319997         3.09990992E-13
   1.22520006         1.67668261E-13
   1.23720002        -4.23995115E-14
   1.24919999        -2.83237870E-13
   1.26119995        -5.04109612E-13
   1.27320004        -6.51990831E-13
   1.28520000        -6.85464543E-13
   1.29719996        -5.87116293E-13
   1.30920005        -3.70343946E-13
   1.32120001        -7.76874021E-14
   1.33319998         2.29834354E-13
   1.34519994         4.89951233E-13
   1.35720003         6.57939740E-13
   1.36919999         7.20752884E-13
   1.38119996         7.00971182E-13
   1.39320004         6.47816273E-13
   1.40520000         6.16617001E-13
   1.41719997         6.42468554E-13
   1.42920005         7.16905051E-13
   1.44120002         7.76976357E-13
   1.45319998         7.13570533E-13
   1.46519995         4.00487830E-13
   1.47720003        -2.61022107E-13
   1.48920000        -1.29383386E-12
   1.50119996        -2.60782802E-12
   1.51320004        -3.98867831E-12
   1.52520001        -5.12181053E-12
   1.53719997        -5.65171477E-12
   1.54920006        -5.26618029E-12
   1.56120002        -3.78596893E-12
   1.57319999        -1.23588672E-12
   1.58519995         2.12489184E-12
   1.59720004         5.82678437E-12
   1.60920000         9.26811058E-12
   1.62119997         1.18329001E-11
   1.63320005         1.30213288E-11
   1.64520001         1.25604622E-11
   1.65719998         1.04664454E-11
   1.66919994         7.04104223E-12
   1.68120003         2.80280703E-12
   1.69319999        -1.62890263E-12
   1.70519996        -5.66558215E-12
   1.71720004        -8.86115313E-12
   1.72920001        -1.09741539E-11
   1.74119997        -1.19669552E-11
   1.75320005        -1.19487961E-11
   1.76520002        -1.10884791E-11
   1.77719998        -9.53391272E-12
   1.78919995        -7.37555069E-12
   1.80120003        -4.67840914E-12
   1.81320000        -1.58602786E-12
   1.82519996         1.52397322E-12
   1.83720005         3.87209058E-12
   1.84920001         4.14400285E-12
   1.86119998         4.33217617E-13
   1.87320006        -9.71899297E-12
   1.88520002        -2.91908372E-11
   1.89719999        -6.10824516E-11
   1.90919995        -1.08495601E-10
   1.92120004        -1.74328288E-10
   1.93320000        -2.61101668E-10
   1.94519997        -3.70800834E-10
   1.95720005        -5.04674857E-10
   1.96920002        -6.62912669E-10
   1.98119998        -8.44107062E-10
   1.99319994        -1.04444375E-09
   2.00519991        -1.25660948E-09
   2.01719999        -1.46849444E-09
   2.02920008        -1.66184522E-09
   2.04119992        -1.81109971E-09
   2.05320001        -1.88265270E-09
   2.06520009        -1.83476112E-09
   2.07719994        -1.61818514E-09
   2.08920002        -1.17742782E-09
   2.10120010        -4.52159837E-10
   2.11319995         6.21969476E-10
   2.12520003         2.11432516E-09
   2.13720012         4.10371870E-09
   2.14919996         6.68831746E-09
   2.16120005         1.00033990E-08
   2.17319989         1.42495873E-08
   2.18519998         1.97343510E-08
   2.19720006         2.69293281E-08
   2.20919991         3.65458668E-08
   2.22119999         4.96305255E-08
   2.23320007         6.76813130E-08
   2.24519992         9.27843260E-08
   2.25720000         1.27768644E-07
   2.26920009         1.76375792E-07
   2.28119993         2.43437597E-07
   2.29320002         3.35054239E-07
   2.30520010         4.58762571E-07
   2.31719995         6.23682240E-07
   2.32920003         8.40626058E-07
   2.34120011         1.12216082E-06
   2.35319996         1.48260358E-06
   2.36520004         1.93794108E-06
   2.37719989         2.50566086E-06
   2.38919997         3.20448544E-06
   2.40120006         4.05400579E-06
   2.41319990         5.07421782E-06
   2.42519999         6.28495764E-06
   2.43720007         7.70526276E-06
   2.44919991         9.35266416E-06
   2.46120000         1.12424314E-05
   2.47320008         1.33868080E-05
   2.48519993         1.57942686E-05
   2.49720001         1.84688088E-05
   2.50920010         2.14093398E-05
   2.52119994         2.46091895E-05
   2.53320003         2.80557633E-05
   2.54520011         3.17303711E-05
   2.55719995         3.56082746E-05
   2.56920004         3.96589276E-05
   2.58119988         4.38464267E-05
   2.59319997         4.81301977E-05
   2.60520005         5.24658753E-05
   2.61719990         5.68063006E-05
   2.62919998         6.11027353E-05
   2.64120007         6.53060997E-05
   2.65319991         6.93683032E-05
   2.66520000         7.32435437E-05
   2.67720008         7.68895698E-05
   2.68919992         8.02688228E-05
   2.70120001         8.33494414E-05
   2.71320009         8.61060616E-05
   2.72519994         8.85204208E-05
   2.73720002         9.05816705E-05
   2.74920011         9.22864565E-05
   2.76119995         9.36387441E-05
   2.77320004         9.46493965E-05
   2.78520012         9.53355047E-05
   2.79719996         9.57196025E-05
   2.80920005         9.58285891E-05
   2.82119989         9.56927252E-05
   2.83319998         9.53444105E-05
   2.84520006         9.48171000E-05
   2.85719991         9.41441394E-05
   2.86919999         9.33578340E-05
   2.88120008         9.24885317E-05
   2.89319992         9.15639466E-05
   2.90520000         9.06086498E-05
   2.91720009         8.96437850E-05
   2.92919993         8.86869238E-05
   2.94120002         8.77522107E-05
   2.95320010         8.68505958E-05
   2.96519995         8.59902284E-05
   2.97720003         8.51770019E-05
   2.98920012         8.44151145E-05
   3.00119996         8.37076368E-05
   3.01320004         8.30571225E-05
   3.02519989         8.24660892E-05
   3.03719997         8.19374545E-05
   3.04920006         8.14748419E-05
   3.06119990         8.10826750E-05
   3.07319999         8.07662291E-05
   3.08520007         8.05314412E-05
   3.09719992         8.03846415E-05
   3.10920000         8.03321309E-05
   3.12120008         8.03797084E-05
   3.13319993         8.05321251E-05
   3.14520001         8.07925098E-05
   3.15720010         8.11618884E-05
   3.16919994         8.16387183E-05
   3.18120003         8.22185466E-05
   3.19320011         8.28938500E-05
   3.20519996         8.36539548E-05
   3.21720004         8.44852038E-05
   3.22919989         8.53712845E-05
   3.24119997         8.62936868E-05
   3.25320005         8.72323581E-05
   3.26519990         8.81664528E-05
   3.27719998         8.90751689E-05
   3.28920007         8.99386214E-05
   3.30119991         9.07387293E-05
   3.31320000         9.14600532E-05
   3.32520008         9.20904859E-05
   3.33719993         9.26218781E-05
   3.34920001         9.30504393E-05
   3.36120009         9.33769043E-05
   3.37319994         9.36065844E-05
   3.38520002         9.37490404E-05
   3.39720011         9.38176745E-05
   3.40919995         9.38289450E-05
   3.42120004         9.38015655E-05
   3.43319988         9.37554432E-05
   3.44519997         9.37105287E-05
   3.45720005         9.36857250E-05
   3.46919990         9.36976503E-05
   3.48119998         9.37596706E-05
   3.49320006         9.38809244E-05
   3.50519991         9.40656246E-05
   3.51719999         9.43126142E-05
   3.52920008         9.46151922E-05
   3.54119992         9.49612586E-05
   3.55320001         9.53337949E-05
   3.56520009         9.57116717E-05
   3.57719994         9.60707184E-05
   3.58920002         9.63851126E-05
   3.60120010         9.66289226E-05
   3.61319995         9.67777814E-05
   3.62520003         9.68106251E-05
   3.63720012         9.67113810E-05
   3.64919996         9.64705396E-05
   3.66120005         9.60864345E-05
   3.67319989         9.55663127E-05
   3.68519998         9.49269597E-05
   3.69720006         9.41949111E-05
   3.70919991         9.34062336E-05
   3.72119999         9.26057692E-05
   3.73320007         9.18459846E-05
   3.74519992         9.11853713E-05
   3.75720000         9.06865098E-05
   3.76920009         9.04138360E-05
   3.78119993         9.04312255E-05
   3.79320002         9.07995418E-05
   3.80520010         9.15741621E-05
   3.81719995         9.28027002E-05
   3.82920003         9.45229040E-05
   3.84120011         9.67609813E-05
   3.85319996         9.95302253E-05
   3.86520004         1.02830214E-04
   3.87719989         1.06646439E-04
   3.88919997         1.10950430E-04
   3.90120006         1.15700437E-04
   3.91319990         1.20842502E-04
   3.92519999         1.26311963E-04
   3.93720007         1.32035362E-04
   3.94919991         1.37932511E-04
   3.96120000         1.43918805E-04
   3.97320008         1.49907646E-04
   3.98519993         1.55812784E-04
   3.99720001         1.61550779E-04
   4.00920010         1.67043065E-04
   4.02120018         1.72218046E-04
   4.03319979         1.77012800E-04
   4.04519987         1.81374577E-04
   4.05719995         1.85261742E-04
   4.06920004         1.88644743E-04
   4.08120012         1.91506202E-04
   4.09320021         1.93841071E-04
   4.10519981         1.95656132E-04
   4.11719990         1.96969195E-04
   4.12919998         1.97808011E-04
   4.14120007         1.98208756E-04
   4.15320015         1.98214402E-04
   4.16520023         1.97872767E-04
   4.17719984         1.97234433E-04
   4.18919992         1.96350637E-04
   4.20120001         1.95271190E-04
   4.21320009         1.94042368E-04
   4.22520018         1.92705163E-04
   4.23719978         1.91293599E-04
   4.24919987         1.89833518E-04
   4.26119995         1.88341728E-04
   4.27320004         1.86825520E-04
   4.28520012         1.85282624E-04
   4.29720020         1.83701792E-04
   4.30919981         1.82063595E-04
   4.32119989         1.80341740E-04
   4.33319998         1.78504706E-04
   4.34520006         1.76517613E-04
   4.35720015         1.74344110E-04
   4.36920023         1.71948632E-04
   4.38119984         1.69298219E-04
   4.39319992         1.66364363E-04
   4.40520000         1.63124612E-04
   4.41720009         1.59563715E-04
   4.42920017         1.55674425E-04
   4.44119978         1.51457891E-04
   4.45319986         1.46923529E-04
   4.46519995         1.42088524E-04
   4.47720003         1.36976974E-04
   4.48920012         1.31618697E-04
   4.50120020         1.26047817E-04
   4.51319981         1.20301280E-04
   4.52519989         1.14417351E-04
   4.53719997         1.08434157E-04
   4.54920006         1.02388512E-04
   4.56120014         9.63148850E-05
   4.57320023         9.02447719E-05
   4.58519983         8.42063891E-05
   4.59719992         7.82246279E-05
   4.60920000         7.23214689E-05
   4.62120008         6.65165135E-05
   4.63320017         6.08278206E-05
   4.64519978         5.52727397E-05
   4.65719986         4.98688751E-05
   4.66919994         4.46349186E-05
   4.68120003         3.95913157E-05
   4.69320011         3.47607202E-05
   4.70520020         3.01681848E-05
   4.71719980         2.58409909E-05
   4.72919989         2.18082278E-05
   4.74119997         1.81000378E-05
   4.75320005         1.47466062E-05
   4.76520014         1.17769969E-05
   4.77720022         9.21781975E-06
   4.78919983         7.09189180E-06
   4.80119991         5.41692225E-06
   4.81320000         4.20431297E-06
   4.82520008         3.45815261E-06
   4.83720016         3.17443732E-06
   4.84919977         3.34057722E-06
   4.86119986         3.93519940E-06
   4.87319994         4.92826348E-06
   4.88520002         6.28148155E-06
   4.89720011         7.94901916E-06
   4.90920019         9.87845669E-06
   4.92119980         1.20119685E-05
   4.93319988         1.42876797E-05
   4.94519997         1.66411573E-05
   4.95720005         1.90069713E-05
   4.96920013         2.13203311E-05
   4.98120022         2.35186635E-05
   4.99319983         2.55431860E-05
   5.00519991         2.73403421E-05
   5.01719999         2.88631163E-05
   5.02920008         3.00721604E-05
   5.04120016         3.09366915E-05
   5.05319977         3.14351346E-05
   5.06519985         3.15554935E-05
   5.07719994         3.12954107E-05
   5.08920002         3.06619113E-05
   5.10120010         2.96708695E-05
   5.11320019         2.83461650E-05
   5.12519979         2.67186242E-05
   5.13719988         2.48247343E-05
   5.14919996         2.27052369E-05
   5.16120005         2.04036478E-05
   5.17320013         1.79647868E-05
   5.18520021         1.54333866E-05
   5.19719982         1.28528509E-05
   5.20919991         1.02642116E-05
   5.22119999         7.70534461E-06
   5.23320007         5.21044421E-06
   5.24520016         2.80977133E-06
   5.25719976         5.29657711E-07
   5.26919985        -1.60728348E-06
   5.28119993        -3.58178636E-06
   5.29320002        -5.37747201E-06
   5.30520010        -6.98036456E-06
   5.31720018        -8.37846164E-06
   5.32919979        -9.56141321E-06
   5.34119987        -1.05203571E-05
   5.35319996        -1.12479511E-05
   5.36520004        -1.17385916E-05
   5.37720013        -1.19888191E-05
   5.38920021        -1.19978604E-05
   5.40119982        -1.17682639E-05
   5.41319990        -1.13065435E-05
   5.42519999        -1.06237749E-05
   5.43720007        -9.73603983E-06
   5.44920015        -8.66467508E-06
   5.46120024        -7.43625606E-06
   5.47319984        -6.08228129E-06
   5.48519993        -4.63855713E-06
   5.49720001        -3.14427302E-06
   5.50920010        -1.64083065E-06
   5.52120018        -1.70467899E-07
   5.53319979         1.22523818E-06
   5.54519987         2.50690846E-06
   5.55719995         3.63884533E-06
   5.56920004         4.59037938E-06
   5.58120012         5.33700495E-06
   5.59320021         5.86124361E-06
   5.60519981         6.15319368E-06
   5.61719990         6.21074651E-06
   5.62919998         6.03948047E-06
   5.64120007         5.65224400E-06
   5.65320015         5.06848346E-06
   5.66520023         4.31336230E-06
   5.67719984         3.41673990E-06
   5.68919992         2.41207727E-06
   5.70120001         1.33532615E-06
   5.71320009         2.23859459E-07
   5.72520018        -8.84518329E-07
   5.73719978        -1.95245525E-06
   5.74919987        -2.94382107E-06
   5.76119995        -3.82436383E-06
   5.77320004        -4.56226871E-06
   5.78520012        -5.12864153E-06
   5.79720020        -5.49793731E-06
   5.80919981        -5.64836137E-06
   5.82119989        -5.56225586E-06
   5.83319998        -5.22647861E-06
   5.84520006        -4.63278138E-06
   5.85720015        -3.77816741E-06
   5.86920023        -2.66521420E-06
   5.88119984        -1.30233025E-06
   5.89319992         2.96089382E-07
   5.90520000         2.10964299E-06
   5.91720009         4.11207702E-06
   5.92920017         6.27163990E-06
   5.94119978         8.55166672E-06
   5.95319986         1.09113944E-05
   5.96519995         1.33069989E-05
   5.97720003         1.56928418E-05
   5.98920012         1.80228708E-05
   6.00120020         2.02521314E-05
   6.01319981         2.23383104E-05
   6.02519989         2.42432452E-05
   6.03719997         2.59343142E-05
   6.04920006         2.73856294E-05
   6.06120014         2.85789774E-05
   6.07320023         2.95044374E-05
   6.08519983         3.01606378E-05
   6.09719992         3.05546455E-05
   6.10920000         3.07014816E-05
   6.12120008         3.06232832E-05
   6.13320017         3.03481374E-05
   6.14519978         2.99087296E-05
   6.15719986         2.93407447E-05
   6.16919994         2.86812574E-05
   6.18120003         2.79670730E-05
   6.19320011         2.72332127E-05
   6.20520020         2.65115414E-05
   6.21719980         2.58296513E-05
   6.22919989         2.52100490E-05
   6.24119997         2.46696545E-05
   6.25320005         2.42196311E-05
   6.26520014         2.38655393E-05
   6.27720022         2.36077703E-05
   6.28919983         2.34422168E-05
   6.30119991         2.33611172E-05
   6.31320000         2.33540195E-05
   6.32520008         2.34087765E-05
   6.33720016         2.35125335E-05
   6.34919977         2.36526430E-05
   6.36119986         2.38174653E-05
   6.37319994         2.39970068E-05
   6.38520002         2.41834059E-05
   6.39720011         2.43712329E-05
   6.40920019         2.45576357E-05
   6.42119980         2.47423177E-05
   6.43319988         2.49273980E-05
   6.44519997         2.51171605E-05
   6.45720005         2.53177222E-05
   6.46920013         2.55366413E-05
   6.48120022         2.57825122E-05
   6.49319983         2.60645047E-05
   6.50519991         2.63919264E-05
   6.51719999         2.67737687E-05
   6.52920008         2.72182679E-05
   6.54120016         2.77324707E-05
   6.55319977         2.83218396E-05
   6.56519985         2.89898799E-05
   6.57719994         2.97378265E-05
   6.58920002         3.05643916E-05
   6.60120010         3.14655990E-05
   6.61320019         3.24347129E-05
   6.62519979         3.34622928E-05
   6.63719988         3.45363733E-05
   6.64919996         3.56427408E-05
   6.66120005         3.67653774E-05
   6.67320013         3.78869845E-05
   6.68520021         3.89896195E-05
   6.69719982         4.00553727E-05
   6.70919991         4.10670909E-05
   6.72119999         4.20091055E-05
   6.73320007         4.28678541E-05
   6.74520016         4.36324808E-05
   6.75719976         4.42952587E-05
   6.76919985         4.48518658E-05
   6.78119993         4.53014945E-05
   6.79320002         4.56467751E-05
   6.80520010         4.58934883E-05
   6.81720018         4.60501542E-05
   6.82919979         4.61274867E-05
   6.84119987         4.61377422E-05
   6.85319996         4.60940464E-05
   6.86520004         4.60097108E-05
   6.87720013         4.58976101E-05
   6.88920021         4.57696551E-05
   6.90119982         4.56364105E-05
   6.91319990         4.55068257E-05
   6.92519999         4.53881767E-05
   6.93720007         4.52861095E-05
   6.94920015         4.52048807E-05
   6.96120024         4.51476626E-05
   6.97319984         4.51169399E-05
   6.98519993         4.51149317E-05
   6.99720001         4.51439519E-05
   7.00920010         4.52067434E-05
   7.02120018         4.53066496E-05
   7.03319979         4.54476685E-05
   7.04519987         4.56343187E-05
   7.05719995         4.58713330E-05
   7.06920004         4.61632226E-05
   7.08120012         4.65137309E-05
   7.09320021         4.69252191E-05
   7.10519981         4.73980326E-05
   7.11719990         4.79299706E-05
   7.12919998         4.85158598E-05
   7.14120007         4.91472892E-05
   7.15320015         4.98126064E-05
   7.16520023         5.04971358E-05
   7.17719984         5.11836297E-05
   7.18919992         5.18529923E-05
   7.20120001         5.24851421E-05
   7.21320009         5.30600373E-05
   7.22520018         5.35587606E-05
   7.23719978         5.39645662E-05
   7.24919987         5.42638518E-05
   7.26119995         5.44469040E-05
   7.27320004         5.45084622E-05
   7.28520012         5.44479517E-05
   7.29720020         5.42694324E-05
   7.30919981         5.39812354E-05
   7.32119989         5.35953295E-05
   7.33319998         5.31264923E-05
   7.34520006         5.25913129E-05
   7.35720015         5.20071444E-05
   7.36920023         5.13911000E-05
   7.38119984         5.07591249E-05
   7.39319992         5.01252616E-05
   7.40520000         4.95011554E-05
   7.41720009         4.88957849E-05
   7.42920017         4.83154945E-05
   7.44119978         4.77642388E-05
   7.45319986         4.72440406E-05
   7.46519995         4.67555874E-05
   7.47720003         4.62988864E-05
   7.48920012         4.58739378E-05
   7.50120020         4.54813126E-05
   7.51319981         4.51226042E-05
   7.52519989         4.48006867E-05
   7.53719997         4.45197766E-05
   7.54920006         4.42852797E-05
   7.56120014         4.41034354E-05
   7.57320023         4.39807991E-05
   7.58519983         4.39236246E-05
   7.59719992         4.39371943E-05
   7.60920000         4.40251461E-05
   7.62120008         4.41889206E-05
   7.63320017         4.44272882E-05
   7.64519978         4.47361199E-05
   7.65719986         4.51082742E-05
   7.66919994         4.55337686E-05
   7.68120003         4.60000956E-05
   7.69320011         4.64927252E-05
   7.70520020         4.69957376E-05
   7.71719980         4.74925255E-05
   7.72919989         4.79665287E-05
   7.74119997         4.84019547E-05
   7.75320005         4.87844263E-05
   7.76520014         4.91015599E-05
   7.77720022         4.93434054E-05
   7.78919983         4.95027816E-05
   7.80119991         4.95754393E-05
   7.81320000         4.95601453E-05
   7.82520008         4.94586093E-05
   7.83720016         4.92753534E-05
   7.84919977         4.90174571E-05
   7.86119986         4.86942263E-05
   7.87319994         4.83168769E-05
   7.88520002         4.78981055E-05
   7.89720011         4.74516783E-05
   7.90920019         4.69919942E-05
   7.92119980         4.65336416E-05
   7.93319988         4.60909614E-05
   7.94519997         4.56775888E-05
   7.95720005         4.53060566E-05
   7.96920013         4.49873623E-05
   7.98120022         4.47306193E-05
   7.99319983         4.45427468E-05
   8.00520039         4.44282196E-05
   8.01720047         4.43889185E-05
   8.02919960         4.44240904E-05
   8.04119968         4.45304213E-05
   8.05319977         4.47022394E-05
   8.06519985         4.49318140E-05
   8.07719994         4.52097920E-05
   8.08920002         4.55256850E-05
   8.10120010         4.58684226E-05
   8.11320019         4.62269381E-05
   8.12520027         4.65906778E-05
   8.13720036         4.69501210E-05
   8.14920044         4.72971478E-05
   8.16119957         4.76253517E-05
   8.17319965         4.79301416E-05
   8.18519974         4.82087635E-05
   8.19719982         4.84601369E-05
   8.20919991         4.86845674E-05
   8.22119999         4.88833721E-05
   8.23320007         4.90584025E-05
   8.24520016         4.92115541E-05
   8.25720024         4.93442822E-05
   8.26920033         4.94571650E-05
   8.28120041         4.95495988E-05
   8.29319954         4.96195789E-05
   8.30519962         4.96636821E-05
   8.31719971         4.96771754E-05
   8.32919979         4.96543216E-05
   8.34119987         4.95888016E-05
   8.35319996         4.94742890E-05
   8.36520004         4.93050502E-05
   8.37720013         4.90766215E-05
   8.38920021         4.87864017E-05
   8.40120029         4.84342345E-05
   8.41320038         4.80227936E-05
   8.42520046         4.75578381E-05
   8.43719959         4.70482373E-05
   8.44919968         4.65057819E-05
   8.46119976         4.59447438E-05
   8.47319984         4.53812609E-05
   8.48519993         4.48324936E-05
   8.49720001         4.43156787E-05
   8.50920010         4.38470670E-05
   8.52120018         4.34408939E-05
   8.53320026         4.31083645E-05
   8.54520035         4.28567946E-05
   8.55720043         4.26889455E-05
   8.56919956         4.26025872E-05
   8.58119965         4.25903527E-05
   8.59319973         4.26399492E-05
   8.60519981         4.27346058E-05
   8.61719990         4.28539133E-05
   8.62919998         4.29748688E-05
   8.64120007         4.30731779E-05
   8.65320015         4.31246954E-05
   8.66520023         4.31069311E-05
   8.67720032         4.30005493E-05
   8.68920040         4.27907107E-05
   8.70119953         4.24682912E-05
   8.71319962         4.20307479E-05
   8.72519970         4.14826536E-05
   8.73719978         4.08358865E-05
   8.74919987         4.01093348E-05
   8.76119995         3.93282317E-05
   8.77320004         3.85230924E-05
   8.78520012         3.77282995E-05
   8.79720020         3.69804402E-05
   8.80920029         3.63164581E-05
   8.82120037         3.57716963E-05
   8.83320045         3.53780233E-05
   8.84519958         3.51620474E-05
   8.85719967         3.51435956E-05
   8.86919975         3.53345349E-05
   8.88119984         3.57379540E-05
   8.89319992         3.63478393E-05
   8.90520000         3.71491988E-05
   8.91720009         3.81186765E-05
   8.92920017         3.92255606E-05
   8.94120026         4.04332131E-05
   8.95320034         4.17007323E-05
   8.96520042         4.29848405E-05
   8.97719955         4.42418386E-05
   8.98919964         4.54294968E-05
   9.00119972         4.65088560E-05
   9.01319981         4.74457192E-05
   9.02519989         4.82119067E-05
   9.03719997         4.87860525E-05
   9.04920006         4.91541141E-05
   9.06120014         4.93093903E-05
   9.07320023         4.92522377E-05
   9.08520031         4.89894592E-05