 -0.622799993       0.00000000    
 -0.610800028       0.00000000    
 -0.598800004       0.00000000    
 -0.586799979       0.00000000    
 -0.574800014       0.00000000    
 -0.562799990       0.00000000    
 -0.550800025       0.00000000    
 -0.538800001       0.00000000    
 -0.526799977       0.00000000    
 -0.514800012       0.00000000    
 -0.502799988       0.00000000    
 -0.490799993       0.00000000    
 -0.478799999       0.00000000    
 -0.466800004       2.38429729E-38
 -0.454800010       3.11749358E-37
 -0.442799985       1.73425236E-36
 -0.430799991       6.14814038E-36
 -0.418799996       1.41166999E-35
 -0.406800002       1.40191161E-35
 -0.394800007      -3.57246681E-35
 -0.382800013      -2.05643415E-34
 -0.370799989      -4.98505802E-34
 -0.358799994      -5.89416423E-34
 -0.346799999       4.57732357E-34
 -0.334800005       3.85860135E-33
 -0.322800010       9.06260447E-33
 -0.310799986       9.52452453E-33
 -0.298799992      -1.11365387E-32
 -0.286799997      -7.48620572E-32
 -0.274800003      -1.86240023E-31
 -0.262800008      -2.88890620E-31
 -0.250800014      -2.25564341E-31
 -0.238800004       2.38279100E-31
 -0.226799995       1.25943828E-30
 -0.214800000       2.63214306E-30
 -0.202800006       3.53689097E-30
 -0.190799996       2.64735076E-30
 -0.178800002      -1.13852393E-30
 -0.166800007      -7.56634906E-30
 -0.154799998      -1.45378325E-29
 -0.142800003      -1.97667383E-29
 -0.130799994      -2.49626867E-29
 -0.118799999      -3.94559249E-29
 -0.106799997      -7.55583183E-29
  -9.48000029E-02  -1.26645073E-28
  -8.28000009E-02  -1.27659749E-28
  -7.07999989E-02   7.92766872E-29
  -5.88000007E-02   7.20381481E-28
  -4.67999987E-02   1.93685940E-27
  -3.48000005E-02   3.46833367E-27
  -2.28000004E-02   4.25775617E-27
  -1.08000003E-02   2.25559041E-27
   1.20000006E-03  -5.11886449E-27
   1.31999999E-02  -1.94072802E-26
   2.52000000E-02  -3.83791800E-26
   3.72000001E-02  -5.29763978E-26
   4.91999984E-02  -4.59905507E-26
   6.12000003E-02   4.53343571E-27
   7.32000023E-02   1.14495457E-25
   8.51999968E-02   2.75459307E-25
   9.71999988E-02   4.34035362E-25
  0.109200001       4.80791641E-25
  0.121200003       2.65596525E-25
  0.133200005      -3.45250818E-25
  0.145199999      -1.36772309E-24
  0.157199994      -2.57825934E-24
  0.169200003      -3.42884585E-24
  0.181199998      -3.08319856E-24
  0.193200007      -6.55988133E-25
  0.205200002       4.31632896E-24
  0.217199996       1.12572786E-23
  0.229200006       1.80204309E-23
  0.241200000       2.08149044E-23
  0.253199995       1.49749387E-23
  0.265199989      -3.21746899E-24
  0.277200013      -3.38701626E-23
  0.289200008      -7.07920432E-23
  0.301200002      -1.00164168E-22
  0.313199997      -1.02179487E-22
  0.325199991      -5.67903364E-23
  0.337199986       4.66481379E-23
  0.349200010       1.98131403E-22
  0.361200005       3.58643708E-22
  0.373199999       4.60451976E-22
  0.385199994       4.21044348E-22
  0.397199988       1.72085033E-22
  0.409200013      -3.01509025E-22
  0.421200007      -9.24620308E-22
  0.433200002      -1.51493434E-21
  0.445199996      -1.80402760E-21
  0.457199991      -1.50695283E-21
  0.469199985      -4.34582286E-22
  0.481200010       1.37844388E-21
  0.493200004       3.57697535E-21
  0.505200028       5.47519450E-21
  0.517199993       6.17728465E-21
  0.529200017       4.83853968E-21
  0.541199982       1.02303733E-21
  0.553200006      -4.94389575E-21
  0.565199971      -1.17704732E-20
  0.577199996      -1.72818855E-20
  0.589200020      -1.88766736E-20
  0.601199985      -1.43282756E-20
  0.613200009      -2.76085585E-21
  0.625199974       1.45012694E-20
  0.637199998       3.35731350E-20
  0.649200022       4.84472641E-20
  0.661199987       5.23544194E-20
  0.673200011       3.98773821E-20
  0.685199976       9.32080524E-21
  0.697200000      -3.54135020E-20
  0.709200025      -8.42627370E-20
  0.721199989      -1.22367116E-19
  0.733200014      -1.33503177E-19
  0.745199978      -1.05064106E-19
  0.757200003      -3.33851775E-20
  0.769200027       7.22560877E-20
  0.781199992       1.88681268E-19
  0.793200016       2.82101082E-19
  0.805199981       3.15818204E-19
  0.817200005       2.61122204E-19
  0.829200029       1.08787046E-19
  0.841199994      -1.22335386E-19
  0.853200018      -3.83182010E-19
  0.865199983      -6.01302454E-19
  0.877200007      -6.96994637E-19
  0.889199972      -6.06264763E-19
  0.901199996      -3.05271134E-19
  0.913200021       1.71049719E-19
  0.925199986       7.23684808E-19
  0.937200010       1.20296897E-18
  0.949199975       1.44168864E-18
  0.961199999       1.30281112E-18
  0.973200023       7.30676139E-19
  0.985199988      -2.09756847E-19
  0.997200012      -1.32147283E-18
   1.00919998      -2.30302778E-18
   1.02119994      -2.81689699E-18
   1.03320003      -2.58734486E-18
   1.04519999      -1.50389676E-18
   1.05719995       3.01760812E-19
   1.06920004       2.43741113E-18
   1.08120000       4.31145312E-18
   1.09319997       5.27364615E-18
   1.10520005       4.80920988E-18
   1.11720002       2.73581282E-18
   1.12919998      -6.60330838E-19
   1.14119995      -4.60817563E-18
   1.15320003      -7.98849677E-18
   1.16520000      -9.61369160E-18
   1.17719996      -8.59143450E-18
   1.18920004      -4.67221306E-18
   1.20120001       1.53554407E-18
   1.21319997       8.58007401E-18
   1.22520006       1.44527991E-17
   1.23720002       1.71087321E-17
   1.24919999       1.50991961E-17
   1.26119995       8.13577379E-18
   1.27320004      -2.60696579E-18
   1.28520000      -1.45928854E-17
   1.29719996      -2.44680075E-17
   1.30920005      -2.89494289E-17
   1.32120001      -2.58360269E-17
   1.33319998      -1.48427354E-17
   1.34519994       2.02990598E-18
   1.35720003       2.07751093E-17
   1.36919999       3.63126697E-17
   1.38119996       4.38728524E-17
   1.39320004       4.04572251E-17
   1.40520000       2.59277844E-17
   1.41719997       3.33643383E-18
   1.42920005      -2.16976373E-17
   1.44120002      -4.24706389E-17
   1.45319998      -5.31530711E-17
   1.46519995      -5.06383063E-17
   1.47720003      -3.56614668E-17
   1.48920000      -1.27416420E-17
   1.50119996       1.11515213E-17
   1.51320004       2.88761671E-17
   1.52520001       3.56370948E-17
   1.53719997       3.08628697E-17
   1.54920006       1.86703978E-17
   1.56120002       6.55403696E-18
   1.57319999       2.54222691E-18
   1.58519995       1.16815058E-17
   1.59720004       3.31122120E-17
   1.60920000       5.90037460E-17
   1.62119997       7.61458003E-17
   1.63320005       7.01303774E-17
   1.64520001       3.10554605E-17
   1.65719998      -4.11188008E-17
   1.66919994      -1.33686429E-16
   1.68120003      -2.22419046E-16
   1.69319999      -2.77329863E-16
   1.70519996      -2.71808770E-16
   1.71720004      -1.92475664E-16
   1.72920001      -4.63146928E-17
   1.74119997       1.38003597E-16
   1.75320005       3.16139272E-16
   1.76520002       4.40529686E-16
   1.77719998       4.75800006E-16
   1.78919995       4.11933404E-16
   1.80120003       2.69900114E-16
   1.81320000       9.63451869E-17
   1.82519996      -5.24921637E-17
   1.83720005      -1.33232803E-16
   1.84920001      -1.36400177E-16
   1.86119998      -9.71655912E-17
   1.87320006      -8.89989098E-17
   1.88520002      -1.98581554E-16
   1.89719999      -4.87274549E-16
   1.90919995      -9.50937208E-16
   1.92120004      -1.49346795E-15
   1.93320000      -1.92816801E-15
   1.94519997      -2.01434451E-15
   1.95720005      -1.52577495E-15
   1.96920002      -3.35696362E-16
   1.98119998       1.50621495E-15
   1.99319994       3.73218598E-15
   2.00519991       5.87163239E-15
   2.01719999       7.33128107E-15
   2.02920008       7.52947492E-15
   2.04119992       6.05582055E-15
   2.05320001       2.81535985E-15
   2.06520009      -1.88486663E-15
   2.07719994      -7.33811917E-15
   2.08920002      -1.25393030E-14
   2.10120010      -1.63699095E-14
   2.11319995      -1.78280310E-14
   2.12520003      -1.62514604E-14
   2.13720012      -1.14820424E-14
   2.14919996      -3.93351047E-15
   2.16120005       5.45128213E-15
   2.17319989       1.53415980E-14
   2.18519998       2.42252389E-14
   2.19720006       3.06368226E-14
   2.20919991       3.33670368E-14
   2.22119999       3.16247713E-14
   2.23320007       2.51407426E-14
   2.24519992       1.42156049E-14
   2.25720000      -2.78462770E-16
   2.26920009      -1.69362459E-14
   2.28119993      -3.39004405E-14
   2.29320002      -4.89958517E-14
   2.30520010      -5.99288617E-14
   2.31719995      -6.45546984E-14
   2.32920003      -6.11948168E-14
   2.34120011      -4.89628513E-14
   2.35319996      -2.80380780E-14
   2.36520004       1.79309702E-16
   2.37719989       3.30827149E-14
   2.38919997       6.70630747E-14
   2.40120006       9.78809861E-14
   2.41319990       1.21149008E-13
   2.42519999       1.32845761E-13
   2.43720007       1.29787389E-13
   2.44919991       1.10007835E-13
   2.46120000       7.30372387E-14
   2.47320008       2.00997242E-14
   2.48519993      -4.57373736E-14
   2.49720001      -1.19450511E-13
   2.50920010      -1.94018412E-13
   2.52119994      -2.60544407E-13
   2.53320003      -3.08677400E-13
   2.54520011      -3.27466326E-13
   2.55719995      -3.06723153E-13
   2.56920004      -2.38851365E-13
   2.58119988      -1.20939893E-13
   2.59319997       4.32329140E-14
   2.60520005       2.41748462E-13
   2.61719990       4.54131145E-13
   2.62919998       6.52351979E-13
   2.64120007       8.03432787E-13
   2.65319991       8.73549063E-13
   2.66520000       8.33222217E-13
   2.67720008       6.62921161E-13
   2.68919992       3.58219720E-13
   2.70120001      -6.63898800E-14
   2.71320009      -5.75828339E-13
   2.72519994      -1.11548151E-12
   2.73720002      -1.61523410E-12
   2.74920011      -1.99637724E-12
   2.76119995      -2.18090867E-12
   2.77320004      -2.10239421E-12
   2.78520012      -1.71725817E-12
   2.79719996      -1.01514988E-12
   2.80920005      -2.68925354E-14
   2.82119989       1.17146971E-12
   2.83319998       2.45984700E-12
   2.84520006       3.68144664E-12
   2.85719991       4.65662188E-12
   2.86919999       5.20274752E-12
   2.88120008       5.15866343E-12
   2.89319992       4.41122486E-12
   2.90520000       2.92059779E-12
   2.91720009       7.40381552E-13
   2.92919993      -1.97144905E-12
   2.94120002      -4.95422149E-12
   2.95320010      -7.86112061E-12
   2.96519995      -1.02910319E-11
   2.97720003      -1.18339158E-11
   2.98920012      -1.21255714E-11
   3.00119996      -1.09056306E-11
   3.01320004      -8.07107506E-12
   3.02519989      -3.71704967E-12
   3.03719997       1.84274753E-12
   3.04920006       8.08207581E-12
   3.06119990       1.42978077E-11
   3.07319999       1.96748815E-11
   3.08520007       2.33762818E-11
   3.09719992       2.46499071E-11
   3.10920000       2.29409061E-11
   3.12120008       1.79957854E-11
   3.13319993       9.94381574E-12
   3.14520001      -6.57955298E-13
   3.15720010      -1.28271413E-11
   3.16919994      -2.52126358E-11
   3.18120003      -3.62065274E-11
   3.19320011      -4.41056670E-11
   3.20519996      -4.73103917E-11
   3.21720004      -4.45413290E-11
   3.22919989      -3.50501780E-11
   3.24119997      -1.87974619E-11
   3.25320005       3.42994274E-12
   3.26519990       2.99850804E-11
   3.27719998       5.84280332E-11
   3.28920007       8.57010296E-11
   3.30119991       1.08406541E-10
   3.31320000       1.23170446E-10
   3.32520008       1.27059765E-10
   3.33719993       1.18014043E-10
   3.34920001       9.52425500E-11
   3.36120009       5.95374514E-11
   3.37319994       1.34567626E-11
   3.38520002      -3.86606615E-11
   3.39720011      -9.08708803E-11
   3.40919995      -1.35996395E-10
   3.42120004      -1.66177225E-10
   3.43319988      -1.73563872E-10
   3.44519997      -1.51094498E-10
   3.45720005      -9.32821945E-11
   3.46919990       3.07134700E-12
   3.48119998       1.38322021E-10
   3.49320006       3.09667209E-10
   3.50519991       5.11127030E-10
   3.51719999       7.33853645E-10
   3.52920008       9.66760227E-10
   3.54119992       1.19741361E-09
   3.55320001       1.41308476E-09
   3.56520009       1.60179625E-09
   3.57719994       1.75315773E-09
   3.58920002       1.85873972E-09
   3.60120010       1.91170790E-09
   3.61319995       1.90542870E-09
   3.62520003       1.83076587E-09
   3.63720012       1.67183123E-09
   3.64919996       1.39999423E-09
   3.66120005       9.66057123E-10
   3.67319989       2.90589525E-10
   3.68519998      -7.47448825E-10
   3.69720006      -2.32354003E-09
   3.70919991      -4.68150096E-09
   3.72119999      -8.14788503E-09
   3.73320007      -1.31462459E-08
   3.74519992      -2.02104840E-08
   3.75720000      -2.99964320E-08
   3.76920009      -4.32907683E-08
   3.78119993      -6.10164150E-08
   3.79320002      -8.42335126E-08
   3.80520010      -1.14135332E-07
   3.81719995      -1.52038353E-07
   3.82920003      -1.99366312E-07
   3.84120011      -2.57627931E-07
   3.85319996      -3.28388154E-07
   3.86520004      -4.13233892E-07
   3.87719989      -5.13734051E-07
   3.88919997      -6.31395494E-07
   3.90120006      -7.67615859E-07
   3.91319990      -9.23634502E-07
   3.92519999      -1.10048370E-06
   3.93720007      -1.29894170E-06
   3.94919991      -1.51948950E-06
   3.96120000      -1.76227434E-06
   3.97320008      -2.02707997E-06
   3.98519993      -2.31330728E-06
   3.99720001      -2.61996593E-06
   4.00920010      -2.94567803E-06
   4.02120018      -3.28869601E-06
   4.03319979      -3.64693142E-06
   4.04519987      -4.01799980E-06
   4.05719995      -4.39927180E-06
   4.06920004      -4.78794209E-06
   4.08120012      -5.18109800E-06
   4.09320021      -5.57579688E-06
   4.10519981      -5.96915061E-06
   4.11719990      -6.35839842E-06
   4.12919998      -6.74098601E-06
   4.14120007      -7.11463053E-06
   4.15320015      -7.47737931E-06
   4.16520023      -7.82765346E-06
   4.17719984      -8.16427837E-06
   4.18919992      -8.48650052E-06
   4.20120001      -8.79398431E-06
   4.21320009      -9.08679522E-06
   4.22520018      -9.36537526E-06
   4.23719978      -9.63049206E-06
   4.24919987      -9.88319425E-06
   4.26119995      -1.01247442E-05
   4.27320004      -1.03565626E-05
   4.28520012      -1.05801573E-05
   4.29720020      -1.07970636E-05
   4.30919981      -1.10087858E-05
   4.32119989      -1.12167490E-05
   4.33319998      -1.14222548E-05
   4.34520006      -1.16264519E-05
   4.35720015      -1.18303151E-05
   4.36920023      -1.20346358E-05
   4.38119984      -1.22400234E-05
   4.39319992      -1.24469116E-05
   4.40520000      -1.26555778E-05
   4.41720009      -1.28661659E-05
   4.42920017      -1.30787112E-05
   4.44119978      -1.32931664E-05
   4.45319986      -1.35094278E-05
   4.46519995      -1.37273591E-05
   4.47720003      -1.39468111E-05
   4.48920012      -1.41676337E-05
   4.50120020      -1.43896805E-05
   4.51319981      -1.46128114E-05
   4.52519989      -1.48368827E-05
   4.53719997      -1.50617407E-05
   4.54920006      -1.52871944E-05
   4.56120014      -1.55130037E-05
   4.57320023      -1.57388604E-05
   4.58519983      -1.59643569E-05
   4.59719992      -1.61889948E-05
   4.60920000      -1.64121539E-05
   4.62120008      -1.66331065E-05
   4.63320017      -1.68510123E-05
   4.64519978      -1.70649528E-05
   4.65719986      -1.72739492E-05
   4.66919994      -1.74769957E-05
   4.68120003      -1.76731137E-05
   4.69320011      -1.78613809E-05
   4.70520020      -1.80409879E-05
   4.71719980      -1.82112890E-05
   4.72919989      -1.83718203E-05
   4.74119997      -1.85223544E-05
   4.75320005      -1.86628949E-05
   4.76520014      -1.87936967E-05
   4.77720022      -1.89152488E-05
   4.78919983      -1.90282462E-05
   4.80119991      -1.91335603E-05
   4.81320000      -1.92321822E-05
   4.82520008      -1.93251690E-05
   4.83720016      -1.94135864E-05
   4.84919977      -1.94984477E-05
   4.86119986      -1.95806570E-05
   4.87319994      -1.96609672E-05
   4.88520002      -1.97399513E-05
   4.89720011      -1.98179787E-05
   4.90920019      -1.98952202E-05
   4.92119980      -1.99716560E-05
   4.93319988      -2.00471168E-05
   4.94519997      -2.01213134E-05
   4.95720005      -2.01938856E-05
   4.96920013      -2.02644624E-05
   4.98120022      -2.03327090E-05
   4.99319983      -2.03983691E-05
   5.00519991      -2.04613098E-05
   5.01719999      -2.05215438E-05
   5.02920008      -2.05792385E-05
   5.04120016      -2.06347249E-05
   5.05319977      -2.06884706E-05
   5.06519985      -2.07410631E-05
   5.07719994      -2.07931753E-05
   5.08920002      -2.08455294E-05
   5.10120010      -2.08988495E-05
   5.11320019      -2.09538357E-05
   5.12519979      -2.10111302E-05
   5.13719988      -2.10712951E-05
   5.14919996      -2.11348015E-05
   5.16120005      -2.12020241E-05
   5.17320013      -2.12732593E-05
   5.18520021      -2.13487292E-05
   5.19719982      -2.14286138E-05
   5.20919991      -2.15130731E-05
   5.22119999      -2.16022690E-05
   5.23320007      -2.16963927E-05
   5.24520016      -2.17956858E-05
   5.25719976      -2.19004414E-05
   5.26919985      -2.20110251E-05
   5.28119993      -2.21278497E-05
   5.29320002      -2.22513881E-05
   5.30520010      -2.23821426E-05
   5.31720018      -2.25206295E-05
   5.32919979      -2.26673565E-05
   5.34119987      -2.28228000E-05
   5.35319996      -2.29873804E-05
   5.36520004      -2.31614413E-05
   5.37720013      -2.33452283E-05
   5.38920021      -2.35388707E-05
   5.40119982      -2.37423646E-05
   5.41319990      -2.39555648E-05
   5.42519999      -2.41781727E-05
   5.43720007      -2.44097228E-05
   5.44920015      -2.46495856E-05
   5.46120024      -2.48969645E-05
   5.47319984      -2.51508991E-05
   5.48519993      -2.54102742E-05
   5.49720001      -2.56738494E-05
   5.50920010      -2.59402805E-05
   5.52120018      -2.62081685E-05
   5.53319979      -2.64761075E-05
   5.54519987      -2.67427567E-05
   5.55719995      -2.70069067E-05
   5.56920004      -2.72675679E-05
   5.58120012      -2.75240491E-05
   5.59320021      -2.77760319E-05
   5.60519981      -2.80236491E-05
   5.61719990      -2.82675301E-05
   5.62919998      -2.85088299E-05
   5.64120007      -2.87492330E-05
   5.65320015      -2.89909167E-05
   5.66520023      -2.92364857E-05
   5.67719984      -2.94888669E-05
   5.68919992      -2.97511688E-05
   5.70120001      -3.00265201E-05
   5.71320009      -3.03178840E-05
   5.72520018      -3.06278598E-05
   5.73719978      -3.09584939E-05
   5.74919987      -3.13110868E-05
   5.76119995      -3.16860496E-05
   5.77320004      -3.20827967E-05
   5.78520012      -3.24996399E-05
   5.79720020      -3.29338218E-05
   5.80919981      -3.33815151E-05
   5.82119989      -3.38379359E-05
   5.83319998      -3.42974963E-05
   5.84520006      -3.47540008E-05
   5.85720015      -3.52008647E-05
   5.86920023      -3.56314013E-05
   5.88119984      -3.60390623E-05
   5.89319992      -3.64177104E-05
   5.90520000      -3.67618704E-05
   5.91720009      -3.70669586E-05
   5.92920017      -3.73294424E-05
   5.94119978      -3.75469899E-05
   5.95319986      -3.77185497E-05
   5.96519995      -3.78444056E-05
   5.97720003      -3.79261401E-05
   5.98920012      -3.79665980E-05
   6.00120020      -3.79697740E-05
   6.01319981      -3.79406956E-05
   6.02519989      -3.78852565E-05
   6.03719997      -3.78100412E-05
   6.04920006      -3.77221440E-05
   6.06120014      -3.76289281E-05
   6.07320023      -3.75378586E-05
   6.08519983      -3.74562478E-05
   6.09719992      -3.73910407E-05
   6.10920000      -3.73486000E-05
   6.12120008      -3.73344701E-05
   6.13320017      -3.73531584E-05
   6.14519978      -3.74079209E-05
   6.15719986      -3.75005875E-05
   6.16919994      -3.76313801E-05
   6.18120003      -3.77987963E-05
   6.19320011      -3.79995436E-05
   6.20520020      -3.82285034E-05
   6.21719980      -3.84788182E-05
   6.22919989      -3.87420005E-05
   6.24119997      -3.90081914E-05
   6.25320005      -3.92664624E-05
   6.26520014      -3.95052084E-05
   6.27720022      -3.97126460E-05
   6.28919983      -3.98773409E-05
   6.30119991      -3.99887831E-05
   6.31320000      -4.00380050E-05
   6.32520008      -4.00181525E-05
   6.33720016      -3.99250530E-05
   6.34919977      -3.97576696E-05
   6.36119986      -3.95184943E-05
   6.37319994      -3.92137772E-05
   6.38520002      -3.88536027E-05
   6.39720011      -3.84518135E-05
   6.40920019      -3.80257115E-05
   6.42119980      -3.75955897E-05
   6.43319988      -3.71840579E-05
   6.44519997      -3.68151741E-05
   6.45720005      -3.65134474E-05
   6.46920013      -3.63026666E-05
   6.48120022      -3.62046267E-05
   6.49319983      -3.62378196E-05
   6.50519991      -3.64160551E-05
   6.51719999      -3.67471293E-05
   6.52920008      -3.72315444E-05
   6.54120016      -3.78613549E-05
   6.55319977      -3.86191678E-05
   6.56519985      -3.94773415E-05
   6.57719994      -4.03974555E-05
   6.58920002      -4.13300113E-05
   6.60120010      -4.22145422E-05
   6.61320019      -4.29799584E-05
   6.62519979      -4.35453330E-05
   6.63719988      -4.38210336E-05
   6.64919996      -4.37101990E-05
   6.66120005      -4.31106200E-05
   6.67320013      -4.19169301E-05
   6.68520021      -4.00230929E-05
   6.69719982      -3.73251787E-05
   6.70919991      -3.37243000E-05
   6.72119999      -2.91296947E-05
   6.73320007      -2.34618510E-05
   6.74520016      -1.66555837E-05
   6.75719976      -8.66299797E-06
   6.76919985       5.43812178E-07
   6.78119993       1.09703651E-05
   6.79320002       2.25978274E-05
   6.80520010       3.53815412E-05
   6.81720018       4.92501349E-05
   6.82919979       6.41052611E-05
   6.84119987       7.98220135E-05
   6.85319996       9.62500199E-05
   6.86520004       1.13215261E-04
   6.87720013       1.30522516E-04
   6.88920021       1.47958446E-04
   6.90119982       1.65295365E-04
   6.91319990       1.82295247E-04
   6.92519999       1.98714391E-04
   6.93720007       2.14308209E-04
   6.94920015       2.28836245E-04
   6.96120024       2.42067268E-04
   6.97319984       2.53784208E-04
   6.98519993       2.63789057E-04
   6.99720001       2.71907222E-04
   7.00920010       2.77991698E-04
   7.02120018       2.81926681E-04
   7.03319979       2.83630361E-04
   7.04519987       2.83057307E-04
   7.05719995       2.80199980E-04
   7.06920004       2.75089464E-04
   7.08120012       2.67795462E-04
   7.09320021       2.58425425E-04
   7.10519981       2.47122778E-04
   7.11719990       2.34064690E-04
   7.12919998       2.19458743E-04
   7.14120007       2.03539195E-04
   7.15320015       1.86562625E-04
   7.16520023       1.68802930E-04
   7.17719984       1.50546184E-04
   7.18919992       1.32085042E-04
   7.20120001       1.13712980E-04
   7.21320009       9.57186785E-05
   7.22520018       7.83803625E-05
   7.23719978       6.19604034E-05
   7.24919987       4.67002465E-05
   7.26119995       3.28158421E-05
   7.27320004       2.04936114E-05
   7.28520012       9.88705233E-06
   7.29720020       1.11407996E-06
   7.30919981      -5.74484284E-06
   7.32119989      -1.06477783E-05
   7.33319998      -1.35915070E-05
   7.34520006      -1.46109396E-05
   7.35720015      -1.37776524E-05
   7.36920023      -1.11977051E-05
   7.38119984      -7.00871851E-06
   7.39319992      -1.37633742E-06
   7.40520000       5.50984714E-06
   7.41720009       1.34407910E-05
   7.42920017       2.21928258E-05
   7.44119978       3.15326579E-05
   7.45319986       4.12224690E-05
   7.46519995       5.10249374E-05
   7.47720003       6.07081383E-05
   7.48920012       7.00501550E-05
   7.50120020       7.88433317E-05
   7.51319981       8.68981588E-05
   7.52519989       9.40465106E-05
   7.53719997       1.00144491E-04
   7.54920006       1.05074541E-04
   7.56120014       1.08747037E-04
   7.57320023       1.11101144E-04
   7.58519983       1.12105139E-04
   7.59719992       1.11756039E-04
   7.60920000       1.10078661E-04
   7.62120008       1.07124164E-04
   7.63320017       1.02967999E-04
   7.64519978       9.77074742E-05
   7.65719986       9.14589036E-05
   7.66919994       8.43544403E-05
   7.68120003       7.65386940E-05
   7.69320011       6.81651145E-05
   7.70520020       5.93924415E-05
   7.71719980       5.03810006E-05
   7.72919989       4.12892077E-05
   7.74119997       3.22702144E-05
   7.75320005       2.34687777E-05
   7.76520014       1.50184633E-05
   7.77720022       7.03921751E-06
   7.78919983      -3.64669290E-07
   7.80119991      -7.10612312E-06
   7.81320000      -1.31163979E-05
   7.82520008      -1.83456959E-05
   7.83720016      -2.27633263E-05
   7.84919977      -2.63574148E-05
   7.86119986      -2.91341566E-05
   7.87319994      -3.11167278E-05
   7.88520002      -3.23438107E-05
   7.89720011      -3.28678580E-05
   7.90920019      -3.27531088E-05
   7.92119980      -3.20734471E-05
   7.93319988      -3.09101524E-05
   7.94519997      -2.93495759E-05
   7.95720005      -2.74808590E-05
   7.96920013      -2.53937160E-05
   7.98120022      -2.31763242E-05
   7.99319983      -2.09133977E-05
   8.00520039      -1.86844627E-05
   8.01720047      -1.65623787E-05
   8.02919960      -1.46121247E-05
   8.04119968      -1.28898582E-05
   8.05319977      -1.14422710E-05
   8.06519985      -1.03062075E-05
   8.07719994      -9.50856247E-06
   8.08920002      -9.06641890E-06
   8.10120010      -8.98740927E-06
   8.11320019      -9.27025940E-06
   8.12520027      -9.90550325E-06
   8.13720036      -1.08762997E-05
   8.14920044      -1.21593412E-05
   8.16119957      -1.37258203E-05
   8.17319965      -1.55424023E-05
   8.18519974      -1.75721998E-05
   8.19719982      -1.97756999E-05
   8.20919991      -2.21116607E-05
   8.22119999      -2.45379197E-05
   8.23320007      -2.70121382E-05
   8.24520016      -2.94924648E-05
   8.25720024      -3.19381143E-05
   8.26920033      -3.43098727E-05
   8.28120041      -3.65705091E-05
   8.29319954      -3.86851716E-05
   8.30519962      -4.06216641E-05
   8.31719971      -4.23507445E-05
   8.32919979      -4.38463176E-05
   8.34119987      -4.50856824E-05
   8.35319996      -4.60496994E-05
   8.36520004      -4.67229911E-05
   8.37720013      -4.70941231E-05
   8.38920021      -4.71557651E-05
   8.40120029      -4.69048900E-05
   8.41320038      -4.63429169E-05
   8.42520046      -4.54758447E-05
   8.43719959      -4.43143581E-05
   8.44919968      -4.28738640E-05
   8.46119976      -4.11744622E-05
   8.47319984      -3.92408620E-05
   8.48519993      -3.71021488E-05
   8.49720001      -3.47914756E-05
   8.50920010      -3.23456334E-05
   8.52120018      -2.98045052E-05
   8.53320026      -2.72103771E-05
   8.54520035      -2.46071941E-05
   8.55720043      -2.20397069E-05
   8.56919956      -1.95525536E-05
   8.58119965      -1.71893298E-05
   8.59319973      -1.49916532E-05
   8.60519981      -1.29982454E-05
   8.61719990      -1.12440975E-05
   8.62919998      -9.75972398E-06
   8.64120007      -8.57052146E-06
   8.65320015      -7.69626877E-06
   8.66520023      -7.15076476E-06
   8.67720032      -6.94159507E-06
   8.68920040      -7.07005120E-06
   8.70119953      -7.53115410E-06
   8.71319962      -8.31380385E-06
   8.72519970      -9.40100563E-06
   8.73719978      -1.07701744E-05
   8.74919987      -1.23935088E-05
   8.76119995      -1.42383951E-05
   8.77320004      -1.62678662E-05
   8.78520012      -1.84411074E-05
   8.79720020      -2.07139856E-05
   8.80920029      -2.30396618E-05
   8.82120037      -2.53692360E-05
   8.83320045      -2.76524934E-05
   8.84519958      -2.98387076E-05
   8.85719967      -3.18775565E-05
   8.86919975      -3.37201018E-05
   8.88119984      -3.53198739E-05
   8.89319992      -3.66339737E-05
   8.90520000      -3.76242642E-05
   8.91720009      -3.82584949E-05
   8.92920017      -3.85114399E-05
   8.94120026      -3.83658808E-05
   8.95320034      -3.78134937E-05
   8.96520042      -3.68554975E-05
   8.97719955      -3.55030825E-05
   8.98919964      -3.37775564E-05
   9.00119972      -3.17101767E-05
   9.01319981      -2.93416688E-05
   9.02519989      -2.67214091E-05
   9.03719997      -2.39063338E-05
   9.04920006      -2.09595310E-05
   9.06120014      -1.79486160E-05
   9.07320023      -1.49439102E-05
   9.08520031      -1.20165032E-05
   9.09720039      -9.23622247E-06
   9.10919952      -6.66961569E-06
   9.12119961      -4.37799508E-06
   9.13319969      -2.41560315E-06
   9.14519978      -8.27950942E-07
   9.15719986       3.49603482E-07
   9.16919994       1.09300788E-06
   9.18120003       1.39035649E-06
   9.19320011       1.24240137E-06
   9.20520020       6.62705133E-07
   9.21720028      -3.22565484E-07
   9.22920036      -1.67521057E-06
   9.24120045      -3.34592664E-06
   9.25319958      -5.27557086E-06
   9.26519966      -7.39674078E-06
   9.27719975      -9.63563343E-06
   9.28919983      -1.19141396E-05
   9.30119991      -1.41521095E-05
   9.31320000      -1.62697397E-05
   9.32520008      -1.81900014E-05
   9.33720016      -1.98410416E-05
   9.34920025      -2.11584629E-05
   9.36120033      -2.20874099E-05
   9.37320042      -2.25843924E-05
   9.38519955      -2.26187567E-05
   9.39719963      -2.21737537E-05
   9.40919971      -2.12471587E-05
   9.42119980      -1.98514008E-05
   9.43319988      -1.80132120E-05
   9.44519997      -1.57727773E-05
