 -0.622799993         1.00000002E-24
 -0.610800028         1.00000002E-24
 -0.598800004         1.00000002E-24
 -0.586799979         1.00000002E-24
 -0.574800014         1.00000002E-24
 -0.562799990         1.00000002E-24
 -0.550800025         1.00000002E-24
 -0.538800001         9.99999033E-25
 -0.526799977         9.99992723E-25
 -0.514800012         9.99982467E-25
 -0.502799988         1.00004222E-24
 -0.490799993         1.00049503E-24
 -0.478799999         1.00214079E-24
 -0.466800004         1.00627018E-24
 -0.454800010         1.01426085E-24
 -0.442799985         1.02741037E-24
 -0.430799991         1.04900544E-24
 -0.418799996         1.09007985E-24
 -0.406800002         1.17394424E-24
 -0.394800007         1.32186454E-24
 -0.382800013         1.49398600E-24
 -0.370799989         1.48048987E-24
 -0.358799994         8.11339398E-25
 -0.346799999        -1.13759255E-24
 -0.334800005        -4.61470889E-24
 -0.322800010        -8.48772051E-24
 -0.310799986        -9.23390562E-24
 -0.298799992        -1.12895442E-24
 -0.286799997         2.07850633E-23
 -0.274800003         5.42510373E-23
 -0.262800008         8.19550687E-23
 -0.250800014         6.85117366E-23
 -0.238800004        -2.86130610E-23
 -0.226799995        -2.27730411E-22
 -0.214800000        -4.76296039E-22
 -0.202800006        -6.13989703E-22
 -0.190799996        -3.89069682E-22
 -0.178800002         4.28372575E-22
 -0.166800007         1.82927640E-21
 -0.154799998         3.31573147E-21
 -0.142800003         3.78492282E-21
 -0.130799994         1.76745434E-21
 -0.118799999        -3.82413433E-21
 -0.106799997        -1.25176087E-20
  -9.48000029E-02    -2.11358056E-20
  -8.28000009E-02    -2.35192522E-20
  -7.07999989E-02    -1.20557963E-20
  -5.88000007E-02     1.84877226E-20
  -4.67999987E-02     6.54514673E-20
  -3.48000005E-02     1.13273376E-19
  -2.28000004E-02     1.32537211E-19
  -1.08000003E-02     8.68131223E-20
   1.20000006E-03    -5.09102719E-20
   1.31999999E-02    -2.74774329E-19
   2.52000000E-02    -5.24079561E-19
   3.72000001E-02    -6.76455484E-19
   4.91999984E-02    -5.70830310E-19
   6.12000003E-02    -6.84235983E-20
   7.32000023E-02     8.55213247E-19
   8.51999968E-02     2.01554943E-18
   9.71999988E-02     2.97057825E-18
  0.109200001         3.07501787E-18
  0.121200003         1.67696145E-18
  0.133200005        -1.55142708E-18
  0.145199999        -6.23189354E-18
  0.157199994        -1.10082139E-17
  0.169200003        -1.35913864E-17
  0.181199998        -1.12977627E-17
  0.193200007        -2.11698866E-18
  0.205200002         1.38945333E-17
  0.217199996         3.33824453E-17
  0.229200006         4.93214580E-17
  0.241200000         5.21819941E-17
  0.253199995         3.29605269E-17
  0.265199989        -1.23193944E-17
  0.277200013        -7.79511186E-17
  0.289200008        -1.45839234E-16
  0.301200002        -1.87052178E-16
  0.313199997        -1.69149713E-16
  0.325199991        -6.88901425E-17
  0.337199986         1.12766687E-16
  0.349200010         3.39017393E-16
  0.361200005         5.35787356E-16
  0.373199999         6.05988387E-16
  0.385199994         4.60424558E-16
  0.397199988         5.93399916E-17
  0.409200013        -5.48728537E-16
  0.421200007        -1.20869283E-15
  0.433200002        -1.67771943E-15
  0.445199996        -1.68838707E-15
  0.457199991        -1.04748594E-15
  0.469199985         2.56698258E-16
  0.481200010         1.97961108E-15
  0.493200004         3.62079226E-15
  0.505200028         4.52637805E-15
  0.517199993         4.08850183E-15
  0.529200017         1.99536123E-15
  0.541199982        -1.54985091E-15
  0.553200006        -5.73680211E-15
  0.565199971        -9.25813703E-15
  0.577199996        -1.06410479E-14
  0.589200020        -8.73934883E-15
  0.601199985        -3.24614175E-15
  0.613200009         4.95904883E-15
  0.625199974         1.38017658E-14
  0.637199998         2.04333976E-14
  0.649200022         2.20350387E-14
  0.661199987         1.68060891E-14
  0.673200011         4.82613200E-15
  0.685199976        -1.15445653E-14
  0.697200000        -2.79661226E-14
  0.709200025        -3.91611148E-14
  0.721199989        -4.04827539E-14
  0.733200014        -2.95692968E-14
  0.745199978        -7.53572348E-15
  0.757200003         2.07807353E-14
  0.769200027         4.77592107E-14
  0.781199992         6.49896735E-14
  0.793200016         6.58188578E-14
  0.805199981         4.76870571E-14
  0.817200005         1.34639207E-14
  0.829200029        -2.87762300E-14
  0.841199994        -6.76500753E-14
  0.853200018        -9.16065387E-14
  0.865199983        -9.24362380E-14
  0.877200007        -6.80648165E-14
  0.889199972        -2.36768003E-14
  0.901199996         2.93284311E-14
  0.913200021         7.63896392E-14
  0.925199986         1.04028528E-13
  0.937200010         1.04024746E-13
  0.949199975         7.61903764E-14
  0.961199999         2.87683729E-14
  0.973200023        -2.38260814E-14
  0.985199988        -6.53696322E-14
  0.997200012        -8.30344365E-14
   1.00919998        -7.18056663E-14
   1.02119994        -3.66196162E-14
   1.03320003         8.65542735E-15
   1.04519999         4.53339386E-14
   1.05719995         5.60684854E-14
   1.06920004         3.12468557E-14
   1.08120000        -2.64154814E-14
   1.09319997        -1.00773197E-13
   1.10520005        -1.65417091E-13
   1.11720002        -1.90661465E-13
   1.12919998        -1.52702517E-13
   1.14119995        -4.24705200E-14
   1.15320003         1.28483053E-13
   1.16520000         3.27155675E-13
   1.17719996         5.04208383E-13
   1.18920004         6.04361504E-13
   1.20120001         5.79921527E-13
   1.21319997         4.04282185E-13
   1.22520006         8.20020321E-14
   1.23720002        -3.47307578E-13
   1.24919999        -8.12702119E-13
   1.26119995        -1.22291532E-12
   1.27320004        -1.48267336E-12
   1.28520000        -1.51113247E-12
   1.29719996        -1.25882269E-12
   1.30920005        -7.19857171E-13
   1.32120001         6.27939270E-14
   1.33319998         9.99796925E-13
   1.34519994         1.96519689E-12
   1.35720003         2.81185405E-12
   1.36919999         3.39045914E-12
   1.38119996         3.56986793E-12
   1.39320004         3.25663151E-12
   1.40520000         2.41178952E-12
   1.41719997         1.06312138E-12
   1.42920005        -6.88948085E-13
   1.44120002        -2.67354324E-12
   1.45319998        -4.66113693E-12
   1.46519995        -6.38572181E-12
   1.47720003        -7.57684106E-12
   1.48920000        -7.99915949E-12
   1.50119996        -7.49517202E-12
   1.51320004        -6.02474537E-12
   1.52520001        -3.69394619E-12
   1.53719997        -7.65482783E-13
   1.54920006         2.35545893E-12
   1.56120002         5.16316460E-12
   1.57319999         7.11981082E-12
   1.58519995         7.74334676E-12
   1.59720004         6.70216964E-12
   1.60920000         3.89880272E-12
   1.62119997        -4.78228080E-13
   1.63320005        -5.95508321E-12
   1.64520001        -1.18424472E-11
   1.65719998        -1.73824115E-11
   1.66919994        -2.19673758E-11
   1.68120003        -2.54093430E-11
   1.69319999        -2.82202699E-11
   1.70519996        -3.18465913E-11
   1.71720004        -3.87888714E-11
   1.72920001        -5.25302649E-11
   1.74119997        -7.72017311E-11
   1.75320005        -1.16927593E-10
   1.76520002        -1.74821213E-10
   1.77719998        -2.51639792E-10
   1.78919995        -3.44155954E-10
   1.80120003        -4.43352022E-10
   1.81320000        -5.32594857E-10
   1.82519996        -5.85976490E-10
   1.83720005        -5.67018488E-10
   1.84920001        -4.27906238E-10
   1.86119998        -1.09323051E-10
   1.87320006         4.59203287E-10
   1.88520002         1.35877787E-09
   1.89719999         2.68110933E-09
   1.90919995         4.53008431E-09
   1.92120004         7.02656067E-09
   1.93320000         1.03185318E-08
   1.94519997         1.45993821E-08
   1.95720005         2.01374561E-08
   1.96920002         2.73204250E-08
   1.98119998         3.67181876E-08
   1.99319994         4.91677419E-08
   2.00519991         6.58830501E-08
   2.01719999         8.85914346E-08
   2.02920008         1.19697461E-07
   2.04119992         1.62472205E-07
   2.05320001         2.21264230E-07
   2.06520009         3.01726033E-07
   2.07719994         4.11046329E-07
   2.08920002         5.58175884E-07
   2.10120010         7.54032726E-07
   2.11319995         1.01167041E-06
   2.12520003         1.34638958E-06
   2.13720012         1.77577613E-06
   2.14919996         2.31964691E-06
   2.16120005         2.99988665E-06
   2.17319989         3.84016357E-06
   2.18519998         4.86551517E-06
   2.19720006         6.10180041E-06
   2.20919991         7.57502312E-06
   2.22119999         9.31053819E-06
   2.23320007         1.13321594E-05
   2.24519992         1.36611943E-05
   2.25720000         1.63154436E-05
   2.26920009         1.93081996E-05
   2.28119993         2.26472948E-05
   2.29320002         2.63342408E-05
   2.30520010         3.03635006E-05
   2.31719995         3.47219575E-05
   2.32920003         3.93885857E-05
   2.34120011         4.43343961E-05
   2.35319996         4.95226341E-05
   2.36520004         5.49092802E-05
   2.37719989         6.04438210E-05
   2.38919997         6.60703081E-05
   2.40120006         7.17286021E-05
   2.41319990         7.73558932E-05
   2.42519999         8.28882985E-05
   2.43720007         8.82626118E-05
   2.44919991         9.34179843E-05
   2.46120000         9.82976489E-05
   2.47320008         1.02850463E-04
   2.48519993         1.07032298E-04
   2.49720001         1.10807174E-04
   2.50920010         1.14148119E-04
   2.52119994         1.17037722E-04
   2.53320003         1.19468263E-04
   2.54520011         1.21441641E-04
   2.55719995         1.22968835E-04
   2.56920004         1.24069120E-04
   2.58119988         1.24769067E-04
   2.59319997         1.25101185E-04
   2.60520005         1.25102582E-04
   2.61719990         1.24813479E-04
   2.62919998         1.24275655E-04
   2.64120007         1.23531063E-04
   2.65319991         1.22620433E-04
   2.66520000         1.21582285E-04
   2.67720008         1.20451870E-04
   2.68919992         1.19260578E-04
   2.70120001         1.18035568E-04
   2.71320009         1.16799623E-04
   2.72519994         1.15571296E-04
   2.73720002         1.14365306E-04
   2.74920011         1.13193033E-04
   2.76119995         1.12063230E-04
   2.77320004         1.10982743E-04
   2.78520012         1.09957298E-04
   2.79719996         1.08992172E-04
   2.80920005         1.08092841E-04
   2.82119989         1.07265427E-04
   2.83319998         1.06517007E-04
   2.84520006         1.05855732E-04
   2.85719991         1.05290710E-04
   2.86919999         1.04831721E-04
   2.88120008         1.04488776E-04
   2.89319992         1.04271567E-04
   2.90520000         1.04188701E-04
   2.91720009         1.04247119E-04
   2.92919993         1.04451283E-04
   2.94120002         1.04802646E-04
   2.95320010         1.05299092E-04
   2.96519995         1.05934610E-04
   2.97720003         1.06699175E-04
   2.98920012         1.07578817E-04
   3.00119996         1.08555942E-04
   3.01320004         1.09609835E-04
   3.02519989         1.10717447E-04
   3.03719997         1.11854250E-04
   3.04920006         1.12995331E-04
   3.06119990         1.14116432E-04
   3.07319999         1.15195122E-04
   3.08520007         1.16211835E-04
   3.09719992         1.17150790E-04
   3.10920000         1.18000782E-04
   3.12120008         1.18755634E-04
   3.13319993         1.19414537E-04
   3.14520001         1.19981894E-04
   3.15720010         1.20466990E-04
   3.16919994         1.20883298E-04
   3.18120003         1.21247504E-04
   3.19320011         1.21578320E-04
   3.20519996         1.21895129E-04
   3.21720004         1.22216530E-04
   3.22919989         1.22558879E-04
   3.24119997         1.22934929E-04
   3.25320005         1.23352685E-04
   3.26519990         1.23814505E-04
   3.27719998         1.24316502E-04
   3.28920007         1.24848477E-04
   3.30119991         1.25394246E-04
   3.31320000         1.25932347E-04
   3.32520008         1.26437211E-04
   3.33719993         1.26880841E-04
   3.34920001         1.27234656E-04
   3.36120009         1.27471576E-04
   3.37319994         1.27568346E-04
   3.38520002         1.27507592E-04
   3.39720011         1.27279985E-04
   3.40919995         1.26885876E-04
   3.42120004         1.26336716E-04
   3.43319988         1.25655934E-04
   3.44519997         1.24879196E-04
   3.45720005         1.24054059E-04
   3.46919990         1.23239035E-04
   3.48119998         1.22501995E-04
   3.49320006         1.21918049E-04
   3.50519991         1.21566940E-04
   3.51719999         1.21530073E-04
   3.52920008         1.21887300E-04
   3.54119992         1.22713624E-04
   3.55320001         1.24075974E-04
   3.56520009         1.26030267E-04
   3.57719994         1.28618616E-04
   3.58920002         1.31867360E-04
   3.60120010         1.35785318E-04
   3.61319995         1.40363089E-04
   3.62520003         1.45572660E-04
   3.63720012         1.51368120E-04
   3.64919996         1.57686765E-04
   3.66120005         1.64451092E-04
   3.67319989         1.71571068E-04
   3.68519998         1.78947157E-04
   3.69720006         1.86473437E-04
   3.70919991         1.94040971E-04
   3.72119999         2.01541203E-04
   3.73320007         2.08869242E-04
   3.74519992         2.15926921E-04
   3.75720000         2.22625444E-04
   3.76920009         2.28887526E-04
   3.78119993         2.34649109E-04
   3.79320002         2.39860339E-04
   3.80520010         2.44486000E-04
   3.81719995         2.48505210E-04
   3.82920003         2.51910853E-04
   3.84120011         2.54708109E-04
   3.85319996         2.56912725E-04
   3.86520004         2.58549146E-04
   3.87719989         2.59648019E-04
   3.88919997         2.60243833E-04
   3.90120006         2.60372617E-04
   3.91319990         2.60069384E-04
   3.92519999         2.59366294E-04
   3.93720007         2.58290645E-04
   3.94919991         2.56863364E-04
   3.96120000         2.55098072E-04
   3.97320008         2.53000355E-04
   3.98519993         2.50567624E-04
   3.99720001         2.47789430E-04
   4.00920010         2.44648167E-04
   4.02120018         2.41120288E-04
   4.03319979         2.37177694E-04
   4.04519987         2.32789665E-04
   4.05719995         2.27924742E-04
   4.06920004         2.22552902E-04
   4.08120012         2.16647779E-04
   4.09320021         2.10188809E-04
   4.10519981         2.03163290E-04
   4.11719990         1.95568195E-04
   4.12919998         1.87411744E-04
   4.14120007         1.78714574E-04
   4.15320015         1.69510546E-04
   4.16520023         1.59847084E-04
   4.17719984         1.49784915E-04
   4.18919992         1.39397409E-04
   4.20120001         1.28769330E-04
   4.21320009         1.17995194E-04
   4.22520018         1.07177075E-04
   4.23719978         9.64221181E-05
   4.24919987         8.58397834E-05
   4.26119995         7.55389046E-05
   4.27320004         6.56246702E-05
   4.28520012         5.61957022E-05
   4.29720020         4.73413056E-05
   4.30919981         3.91390713E-05
   4.32119989         3.16528276E-05
   4.33319998         2.49311252E-05
   4.34520006         1.90062819E-05
   4.35720015         1.38940213E-05
   4.36920023         9.59370482E-06
   4.38119984         6.08916525E-06
   4.39319992         3.35004370E-06
   4.40520000         1.33358299E-06
   4.41720009        -1.32236515E-08
   4.42920017        -7.51266668E-07
   4.44119978        -9.46836451E-07
   4.45319986        -6.69162262E-07
   4.46519995         1.19223529E-08
   4.47720003         1.02807030E-06
   4.48920012         2.31419904E-06
   4.50120020         3.80988286E-06
   4.51319981         5.46033471E-06
   4.52519989         7.21696051E-06
   4.53719997         9.03751697E-06
   4.54920006         1.08858994E-05
   4.56120014         1.27316334E-05
   4.57320023         1.45491422E-05
   4.58519983         1.63168697E-05
   4.59719992         1.80163515E-05
   4.60920000         1.96313176E-05
   4.62120008         2.11468850E-05
   4.63320017         2.25489257E-05
   4.64519978         2.38236280E-05
   4.65719986         2.49572786E-05
   4.66919994         2.59362787E-05
   4.68120003         2.67473642E-05
   4.69320011         2.73780133E-05
   4.70520020         2.78169737E-05
   4.71719980         2.80548902E-05
   4.72919989         2.80849490E-05
   4.74119997         2.79035048E-05
   4.75320005         2.75106086E-05
   4.76520014         2.69104348E-05
   4.77720022         2.61115420E-05
   4.78919983         2.51269703E-05
   4.80119991         2.39741312E-05
   4.81320000         2.26745597E-05
   4.82520008         2.12534633E-05
   4.83720016         1.97391582E-05
   4.84919977         1.81623927E-05
   4.86119986         1.65555848E-05
   4.87319994         1.49520156E-05
   4.88520002         1.33850244E-05
   4.89720011         1.18872085E-05
   4.90920019         1.04896553E-05
   4.92119980         9.22123763E-06
   4.93319988         8.10795882E-06
   4.94519997         7.17236844E-06
   4.95720005         6.43304884E-06
   4.96920013         5.90416266E-06
   4.98120022         5.59507862E-06
   4.99319983         5.51006133E-06
   5.00519991         5.64804350E-06
   5.01719999         6.00248222E-06
   5.02920008         6.56132397E-06
   5.04120016         7.30707961E-06
   5.05319977         8.21704089E-06
   5.06519985         9.26364646E-06
   5.07719994         1.04150149E-05
   5.08920002         1.16356523E-05
   5.10120010         1.28873398E-05
   5.11320019         1.41301753E-05
   5.12519979         1.53237743E-05
   5.13719988         1.64285702E-05
   5.14919996         1.74071902E-05
   5.16120005         1.82258555E-05
   5.17320013         1.88557260E-05
   5.18520021         1.92741518E-05
   5.19719982         1.94657478E-05
   5.20919991         1.94232434E-05
   5.22119999         1.91480431E-05
   5.23320007         1.86504803E-05
   5.24520016         1.79496874E-05
   5.25719976         1.70731491E-05
   5.26919985         1.60558629E-05
   5.28119993         1.49391972E-05
   5.29320002         1.37694660E-05
   5.30520010         1.25962770E-05
   5.31720018         1.14707354E-05
   5.32919979         1.04435749E-05
   5.34119987         9.56330678E-06
   5.35319996         8.87446458E-06
   5.36520004         8.41602559E-06
   5.37720013         8.22006677E-06
   5.38920021         8.31072339E-06
   5.40119982         8.70346958E-06
   5.41319990         9.40474729E-06
   5.42519999         1.04119445E-05
   5.43720007         1.17137015E-05
   5.44920015         1.32905225E-05
   5.46120024         1.51156355E-05
   5.47319984         1.71560514E-05
   5.48519993         1.93737869E-05
   5.49720001         2.17271627E-05
   5.50920010         2.41721300E-05
   5.52120018         2.66635998E-05
   5.53319979         2.91567012E-05
   5.54519987         3.16079386E-05
   5.55719995         3.39762446E-05
   5.56920004         3.62238716E-05
   5.58120012         3.83171864E-05
   5.59320021         4.02272490E-05
   5.60519981         4.19303142E-05
   5.61719990         4.34081594E-05
   5.62919998         4.46482845E-05
   5.64120007         4.56440284E-05
   5.65320015         4.63945216E-05
   5.66520023         4.69045881E-05
   5.67719984         4.71845233E-05
   5.68919992         4.72497777E-05
   5.70120001         4.71205713E-05
   5.71320009         4.68214130E-05
   5.72520018         4.63805300E-05
   5.73719978         4.58292161E-05
   5.74919987         4.52011373E-05
   5.76119995         4.45315163E-05
   5.77320004         4.38563111E-05
   5.78520012         4.32112720E-05
   5.79720020         4.26310071E-05
   5.80919981         4.21480036E-05
   5.82119989         4.17916053E-05
   5.83319998         4.15870527E-05
   5.84520006         4.15545146E-05
   5.85720015         4.17082592E-05
   5.86920023         4.20558827E-05
   5.88119984         4.25977414E-05
   5.89319992         4.33265741E-05
   5.90520000         4.42273740E-05
   5.91720009         4.52774948E-05
   5.92920017         4.64471123E-05
   5.94119978         4.76999376E-05
   5.95319986         4.89942358E-05
   5.96519995         5.02841467E-05
   5.97720003         5.15212232E-05
   5.98920012         5.26561998E-05
   6.00120020         5.36408406E-05
   6.01319981         5.44299037E-05
   6.02519989         5.49830584E-05
   6.03719997         5.52666970E-05
   6.04920006         5.52555466E-05
   6.06120014         5.49340257E-05
   6.07320023         5.42972557E-05
   6.08519983         5.33516722E-05
   6.09719992         5.21151960E-05
   6.10920000         5.06169818E-05
   6.12120008         4.88966871E-05
   6.13320017         4.70033774E-05
   6.14519978         4.49939871E-05
   6.15719986         4.29315478E-05
   6.16919994         4.08830892E-05
   6.18120003         3.89174384E-05
   6.19320011         3.71029164E-05
   6.20520020         3.55050215E-05
   6.21719980         3.41842278E-05
   6.22919989         3.31938973E-05
   6.24119997         3.25784749E-05
   6.25320005         3.23719214E-05
   6.26520014         3.25965084E-05
   6.27720022         3.32619493E-05
   6.28919983         3.43649626E-05
   6.30119991         3.58891848E-05
   6.31320000         3.78054974E-05
   6.32520008         4.00727367E-05
   6.33720016         4.26387633E-05
   6.34919977         4.54418259E-05
   6.36119986         4.84122756E-05
   6.37319994         5.14744788E-05
   6.38520002         5.45489274E-05
   6.39720011         5.75545237E-05
   6.40920019         6.04109118E-05
   6.42119980         6.30408467E-05
   6.43319988         6.53725074E-05
   6.44519997         6.73417017E-05
   6.45720005         6.88938962E-05
   6.46920013         6.99860175E-05
   6.48120022         7.05879065E-05
   6.49319983         7.06835126E-05
   6.50519991         7.02715915E-05
   6.51719999         6.93660404E-05
   6.52920008         6.79957520E-05
   6.54120016         6.62040184E-05
   6.55319977         6.40473882E-05
   6.56519985         6.15941826E-05
   6.57719994         5.89225165E-05
   6.58920002         5.61179295E-05
   6.60120010         5.32708073E-05
   6.61320019         5.04734853E-05
   6.62519979         4.78172660E-05
   6.63719988         4.53894172E-05
   6.64919996         4.32702363E-05
   6.66120005         4.15303184E-05
   6.67320013         4.02281257E-05
   6.68520021         3.94079434E-05
   6.69719982         3.90983369E-05
   6.70919991         3.93111441E-05
   6.72119999         4.00410863E-05
   6.73320007         4.12659938E-05
   6.74520016         4.29476531E-05
   6.75719976         4.50332518E-05
   6.76919985         4.74573499E-05
   6.78119993         5.01443210E-05
   6.79320002         5.30111247E-05
   6.80520010         5.59703221E-05
   6.81720018         5.89332012E-05
   6.82919979         6.18128834E-05
   6.84119987         6.45272376E-05
   6.85319996         6.70016234E-05
   6.86520004         6.91711321E-05
   6.87720013         7.09824817E-05
   6.88920021         7.23953999E-05
   6.90119982         7.33833949E-05
   6.91319990         7.39340467E-05
   6.92519999         7.40487958E-05
   6.93720007         7.37421724E-05
   6.94920015         7.30407119E-05
   6.96120024         7.19814270E-05
   6.97319984         7.06101273E-05
   6.98519993         6.89795634E-05
   6.99720001         6.71474336E-05
   7.00920010         6.51744995E-05
   7.02120018         6.31227667E-05
   7.03319979         6.10537172E-05
   7.04519987         5.90268610E-05
   7.05719995         5.70983320E-05
   7.06920004         5.53198224E-05
   7.08120012         5.37376436E-05
   7.09320021         5.23919553E-05
   7.10519981         5.13162267E-05
   7.11719990         5.05367643E-05
   7.12919998         5.00724200E-05
   7.14120007         4.99343660E-05
   7.15320015         5.01259710E-05
   7.16520023         5.06427859E-05
   7.17719984         5.14725871E-05
   7.18919992         5.25955656E-05
   7.20120001         5.39846078E-05
   7.21320009         5.56057530E-05
   7.22520018         5.74187543E-05
   7.23719978         5.93779041E-05
   7.24919987         6.14329547E-05
   7.26119995         6.35302786E-05
   7.27320004         6.56142001E-05
   7.28520012         6.76284690E-05
   7.29720020         6.95178242E-05
   7.30919981         7.12296533E-05
   7.32119989         7.27156730E-05
   7.33319998         7.39335082E-05
   7.34520006         7.48481616E-05
   7.35720015         7.54333159E-05
   7.36920023         7.56723821E-05
   7.38119984         7.55591100E-05
   7.39319992         7.50980034E-05
   7.40520000         7.43041746E-05
   7.41720009         7.32028784E-05
   7.42920017         7.18285446E-05
   7.44119978         7.02235120E-05
   7.45319986         6.84362967E-05
   7.46519995         6.65196858E-05
   7.47720003         6.45285982E-05
   7.48920012         6.25177927E-05
   7.50120020         6.05396926E-05
   7.51319981         5.86422648E-05
   7.52519989         5.68671458E-05
   7.53719997         5.52481324E-05
   7.54920006         5.38100649E-05
   7.56120014         5.25682080E-05
   7.57320023         5.15281608E-05
   7.58519983         5.06863071E-05
   7.59719992         5.00307797E-05
   7.60920000         4.95428576E-05
   7.62120008         4.91987885E-05
   7.63320017         4.89718223E-05
   7.64519978         4.88344267E-05
   7.65719986         4.87604557E-05
   7.66919994         4.87272082E-05
   7.68120003         4.87171892E-05
   7.69320011         4.87194557E-05
   7.70520020         4.87304787E-05
   7.71719980         4.87544457E-05
   7.72919989         4.88029364E-05
   7.74119997         4.88940750E-05
   7.75320005         4.90510865E-05
   7.76520014         4.93004409E-05
   7.77720022         4.96696703E-05
   7.78919983         5.01849790E-05
   7.80119991         5.08688572E-05
   7.81320000         5.17378066E-05
   7.82520008         5.28003984E-05
   7.83720016         5.40557521E-05
   7.84919977         5.54925682E-05
   7.86119986         5.70888151E-05
   7.87319994         5.88121002E-05
   7.88520002         6.06206813E-05
   7.89720011         6.24651220E-05
   7.90920019         6.42904779E-05
   7.92119980         6.60388687E-05
   7.93319988         6.76523268E-05
   7.94519997         6.90756569E-05
   7.95720005         7.02593316E-05
   7.96920013         7.11619723E-05
   7.98120022         7.17525545E-05
   7.99319983         7.20119424E-05
   8.00520039         7.19339077E-05
   8.01720047         7.15253627E-05
   8.02919960         7.08060325E-05
   8.04119968         6.98073418E-05
   8.05319977         6.85708219E-05
   8.06519985         6.71459929E-05
   8.07719994         6.55879121E-05
   8.08920002         6.39545760E-05
   8.10120010         6.23042433E-05
   8.11320019         6.06928807E-05
   8.12520027         5.91718563E-05
   8.13720036         5.77859682E-05
   8.14920044         5.65719420E-05
   8.16119957         5.55573788E-05
   8.17319965         5.47602176E-05
   8.18519974         5.41887093E-05
   8.19719982         5.38418280E-05
   8.20919991         5.37100714E-05
   8.22119999         5.37765918E-05
   8.23320007         5.40185283E-05
   8.24520016         5.44084942E-05
   8.25720024         5.49160868E-05
   8.26920033         5.55093793E-05
   8.28120041         5.61562665E-05
   8.29319954         5.68256910E-05
   8.30519962         5.74886108E-05
   8.31719971         5.81188287E-05
   8.32919979         5.86935203E-05
   8.34119987         5.91936223E-05
   8.35319996         5.96039972E-05
   8.36520004         5.99134619E-05
   8.37720013         6.01146930E-05
   8.38920021         6.02040309E-05
   8.40120029         6.01812317E-05
   8.41320038         6.00491876E-05
   8.42520046         5.98136030E-05
   8.43719959         5.94827034E-05
   8.44919968         5.90668787E-05
   8.46119976         5.85783928E-05
   8.47319984         5.80310552E-05
   8.48519993         5.74398473E-05
   8.49720001         5.68205869E-05
   8.50920010         5.61895395E-05
   8.52120018         5.55630068E-05
   8.53320026         5.49568904E-05
   8.54520035         5.43862552E-05
   8.55720043         5.38648819E-05
   8.56919956         5.34048631E-05
   8.58119965         5.30162215E-05
   8.59319973         5.27066368E-05
   8.60519981         5.24812494E-05
   8.61719990         5.23425988E-05
   8.62919998         5.22906594E-05
   8.64120007         5.23230228E-05
   8.65320015         5.24351963E-05
   8.66520023         5.26209878E-05
   8.67720032         5.28729324E-05
   8.68920040         5.31827754E-05
   8.70119953         5.35419385E-05
   8.71319962         5.39418797E-05
   8.72519970         5.43744500E-05
   8.73719978         5.48320386E-05
   8.74919987         5.53076679E-05
   8.76119995         5.57949315E-05
   8.77320004         5.62877904E-05
   8.78520012         5.67803436E-05
   8.79720020         5.72664867E-05
   8.80920029         5.77396095E-05
   8.82120037         5.81923450E-05
   8.83320045         5.86163842E-05
   8.84519958         5.90024356E-05
   8.85719967         5.93403711E-05
   8.86919975         5.96195059E-05
   8.88119984         5.98290426E-05
   8.89319992         5.99586929E-05
   8.90520000         5.99993436E-05
   8.91720009         5.99437808E-05
   8.92920017         5.97873877E-05
   8.94120026         5.95287420E-05
   8.95320034         5.91700518E-05
   8.96520042         5.87174000E-05
   8.97719955         5.81807508E-05
   8.98919964         5.75737031E-05
   9.00119972         5.69130061E-05
   9.01319981         5.62178757E-05
   9.02519989         5.55091574E-05
   9.03719997         5.48083699E-05
   9.04920006         5.41367517E-05
   9.06120014         5.35143408E-05
   9.07320023         5.29591489E-05
   9.08520031         5.24865172E-05