 -0.622799993         1.00000002E-24
 -0.610800028         1.00000002E-24
 -0.598800004         1.00000002E-24
 -0.586799979         1.00000002E-24
 -0.574800014         1.00000002E-24
 -0.562799990         1.00000002E-24
 -0.550800025         1.00000002E-24
 -0.538800001         1.00000022E-24
 -0.526799977         1.00000061E-24
 -0.514800012         9.99998738E-25
 -0.502799988         9.99998836E-25
 -0.490799993         1.00013077E-24
 -0.478799999         1.00109328E-24
 -0.466800004         1.00506303E-24
 -0.454800010         1.01645083E-24
 -0.442799985         1.04034858E-24
 -0.430799991         1.07552083E-24
 -0.418799996         1.10151587E-24
 -0.406800002         1.06846960E-24
 -0.394800007         9.10058142E-25
 -0.382800013         6.01149727E-25
 -0.370799989         2.53046980E-25
 -0.358799994         1.76471328E-25
 -0.346799999         7.82073201E-25
 -0.334800005         2.21317155E-24
 -0.322800010         3.79775902E-24
 -0.310799986         3.74535972E-24
 -0.298799992        -2.22951394E-25
 -0.286799997        -8.83329760E-24
 -0.274800003        -1.83342855E-23
 -0.262800008        -1.88362456E-23
 -0.250800014         2.72943724E-24
 -0.238800004         5.25580282E-23
 -0.226799995         1.14655076E-22
 -0.214800000         1.39171005E-22
 -0.202800006         4.93537856E-23
 -0.190799996        -2.19306007E-22
 -0.178800002        -6.48648945E-22
 -0.166800007        -1.06410525E-21
 -0.154799998        -1.11402023E-21
 -0.142800003        -3.66992482E-22
 -0.130799994         1.44130507E-21
 -0.118799999         4.06310107E-21
 -0.106799997         6.45551420E-21
  -9.48000029E-02     6.79808693E-21
  -8.28000009E-02     3.02491811E-21
  -7.07999989E-02    -6.09044563E-21
  -5.88000007E-02    -1.95676440E-20
  -4.67999987E-02    -3.31714418E-20
  -3.48000005E-02    -3.94624703E-20
  -2.28000004E-02    -2.95792065E-20
  -1.08000003E-02     3.15754186E-21
   1.20000006E-03     5.85553982E-20
   1.31999999E-02     1.25357658E-19
   2.52000000E-02     1.79633734E-19
   3.72000001E-02     1.87723341E-19
   4.91999984E-02     1.14861175E-19
   6.12000003E-02    -6.08754395E-20
   7.32000023E-02    -3.31584499E-19
   8.51999968E-02    -6.43987817E-19
   9.71999988E-02    -8.91922592E-19
  0.109200001        -9.25052519E-19
  0.121200003        -5.81743045E-19
  0.133200005         2.49859029E-19
  0.145199999         1.54798032E-18
  0.157199994         3.07143266E-18
  0.169200003         4.31084018E-18
  0.181199998         4.52858721E-18
  0.193200007         2.93458121E-18
  0.205200002        -9.88476903E-19
  0.217199996        -7.06246311E-18
  0.229200006        -1.40317013E-17
  0.241200000        -1.94327093E-17
  0.253199995        -1.99415147E-17
  0.265199989        -1.23345360E-17
  0.277200013         5.01290725E-18
  0.289200008         3.04658924E-17
  0.301200002         5.79731650E-17
  0.313199997         7.72167212E-17
  0.325199991         7.57065210E-17
  0.337199986         4.29193348E-17
  0.349200010        -2.42718929E-17
  0.361200005        -1.16564280E-16
  0.373199999        -2.09906252E-16
  0.385199994        -2.68137729E-16
  0.397199988        -2.51773423E-16
  0.409200013        -1.32098653E-16
  0.421200007         9.27667307E-17
  0.433200002         3.85373918E-16
  0.445199996         6.66398142E-16
  0.457199991         8.27063881E-16
  0.469199985         7.57736722E-16
  0.481200010         3.88153589E-16
  0.493200004        -2.71321938E-16
  0.505200028        -1.10229247E-15
  0.517199993        -1.87985622E-15
  0.529200017        -2.31289144E-15
  0.541199982        -2.12229272E-15
  0.553200006        -1.14248672E-15
  0.565199971         5.81553128E-16
  0.577199996         2.73709612E-15
  0.589200020         4.75900464E-15
  0.601199985         5.93568926E-15
  0.613200009         5.59828342E-15
  0.625199974         3.35511529E-15
  0.637199998        -6.93097891E-16
  0.649200022        -5.83440487E-15
  0.661199987        -1.07904832E-14
  0.673200011        -1.39575148E-14
  0.685199976        -1.38200939E-14
  0.697200000        -9.45251161E-15
  0.709200025        -9.70659629E-16
  0.721199989         1.02219529E-14
  0.733200014         2.15245590E-14
  0.745199978         2.96219483E-14
  0.757200003         3.13054704E-14
  0.769200027         2.44593469E-14
  0.781199992         8.94826104E-15
  0.793200016        -1.28856878E-14
  0.805199981        -3.63514117E-14
  0.817200005        -5.52556454E-14
  0.829200029        -6.33623742E-14
  0.841199994        -5.61549234E-14
  0.853200018        -3.24430864E-14
  0.865199983         4.67819981E-15
  0.877200007         4.79063031E-14
  0.889199972         8.69944782E-14
  0.901199996         1.11033626E-13
  0.913200021         1.11269006E-13
  0.925199986         8.37501184E-14
  0.937200010         3.10655161E-14
  0.949199975        -3.74253580E-14
  0.961199999        -1.07108170E-13
  0.973200023        -1.61175503E-13
  0.985199988        -1.84596316E-13
  0.997200012        -1.68053180E-13
   1.00919998        -1.10832377E-13
   1.02119994        -2.18392910E-14
   1.03320003         8.16701917E-14
   1.04519999         1.77500904E-13
   1.05719995         2.43384089E-13
   1.06920004         2.62204619E-13
   1.08120000         2.26345391E-13
   1.09319997         1.40050596E-13
   1.10520005         1.91313707E-14
   1.11720002        -1.12058678E-13
   1.12919998        -2.25801122E-13
   1.14119995        -2.97224105E-13
   1.15320003        -3.10124295E-13
   1.16520000        -2.60996357E-13
   1.17719996        -1.60220429E-13
   1.18920004        -2.99870128E-14
   1.20120001         1.00693942E-13
   1.21319997         2.02821362E-13
   1.22520006         2.54475450E-13
   1.23720002         2.46393482E-13
   1.24919999         1.84587859E-13
   1.26119995         8.92181159E-14
   1.27320004        -1.01627115E-14
   1.28520000        -8.19440476E-14
   1.29719996        -1.00650093E-13
   1.30920005        -5.40133937E-14
   1.32120001         5.27882147E-14
   1.33319998         1.96748732E-13
   1.34519994         3.40604498E-13
   1.35720003         4.39579877E-13
   1.36919999         4.49956858E-13
   1.38119996         3.37962920E-13
   1.39320004         8.76959977E-14
   1.40520000        -2.92791724E-13
   1.41719997        -7.67811487E-13
   1.42920005        -1.27328118E-12
   1.44120002        -1.71967703E-12
   1.45319998        -1.99981763E-12
   1.46519995        -2.00263395E-12
   1.47720003        -1.63339145E-12
   1.48920000        -8.39212489E-13
   1.50119996         3.63625959E-13
   1.51320004         1.86670102E-12
   1.52520001         3.45859712E-12
   1.53719997         4.83404723E-12
   1.54920006         5.62844736E-12
   1.56120002         5.47812750E-12
   1.57319999         4.09999942E-12
   1.58519995         1.37713712E-12
   1.59720004        -2.56863628E-12
   1.60920000        -7.33816740E-12
   1.62119997        -1.22689541E-11
   1.63320005        -1.65131121E-11
   1.64520001        -1.91797377E-11
   1.65719998        -1.95292445E-11
   1.66919994        -1.71945617E-11
   1.68120003        -1.23938455E-11
   1.69319999        -6.09348769E-12
   1.70519996        -7.87938101E-14
   1.71720004         3.10591201E-12
   1.72920001         3.77304904E-13
   1.74119997        -1.14903512E-11
   1.75320005        -3.52920020E-11
   1.76520002        -7.26614671E-11
   1.77719998        -1.23223501E-10
   1.78919995        -1.83690757E-10
   1.80120003        -2.46984072E-10
   1.81320000        -3.01470821E-10
   1.82519996        -3.30418831E-10
   1.83720005        -3.11750875E-10
   1.84920001        -2.18159060E-10
   1.86119998        -1.75852024E-11
   1.87320006         3.26013799E-10
   1.88520002         8.51800019E-10
   1.89719999         1.60142510E-09
   1.90919995         2.61916178E-09
   1.92120004         3.95351085E-09
   1.93320000         5.66125546E-09
   1.94519997         7.81514942E-09
   1.95720005         1.05166142E-08
   1.96920002         1.39150398E-08
   1.98119998         1.82352586E-08
   1.99319994         2.38147457E-08
   2.00519991         3.11517390E-08
   2.01719999         4.09651904E-08
   2.02920008         5.42666569E-08
   2.04119992         7.24432923E-08
   2.05320001         9.73503518E-08
   2.06520009         1.31410047E-07
   2.07719994         1.77712593E-07
   2.08920002         2.40114161E-07
   2.10120010         3.23324883E-07
   2.11319995         4.32979704E-07
   2.12520003         5.75683771E-07
   2.13720012         7.59024374E-07
   2.14919996         9.91540446E-07
   2.16120005         1.28264446E-06
   2.17319989         1.64248740E-06
   2.18519998         2.08176607E-06
   2.19720006         2.61147193E-06
   2.20919991         3.24257894E-06
   2.22119999         3.98568091E-06
   2.23320007         4.85058445E-06
   2.24519992         5.84587224E-06
   2.25720000         6.97845007E-06
   2.26920009         8.25309871E-06
   2.28119993         9.67205233E-06
   2.29320002         1.12346224E-05
   2.30520010         1.29368946E-05
   2.31719995         1.47715036E-05
   2.32920003         1.67275339E-05
   2.34120011         1.87905262E-05
   2.35319996         2.09426162E-05
   2.36520004         2.31628164E-05
   2.37719989         2.54274237E-05
   2.38919997         2.77105319E-05
   2.40120006         2.99846761E-05
   2.41319990         3.22215383E-05
   2.42519999         3.43927204E-05
   2.43720007         3.64705302E-05
   2.44919991         3.84287850E-05
   2.46120000         4.02435326E-05
   2.47320008         4.18937598E-05
   2.48519993         4.33619425E-05
   2.49720001         4.46345039E-05
   2.50920010         4.57021160E-05
   2.52119994         4.65598714E-05
   2.53320003         4.72072425E-05
   2.54520011         4.76479581E-05
   2.55719995         4.78896654E-05
   2.56920004         4.79435148E-05
   2.58119988         4.78236288E-05
   2.59319997         4.75464658E-05
   2.60520005         4.71301755E-05
   2.61719990         4.65939156E-05
   2.62919998         4.59571820E-05
   2.64120007         4.52392014E-05
   2.65319991         4.44583566E-05
   2.66520000         4.36317459E-05
   2.67720008         4.27748237E-05
   2.68919992         4.19011485E-05
   2.70120001         4.10222856E-05
   2.71320009         4.01477701E-05
   2.72519994         3.92852489E-05
   2.73720002         3.84406558E-05
   2.74920011         3.76184980E-05
   2.76119995         3.68221663E-05
   2.77320004         3.60543017E-05
   2.78520012         3.53171090E-05
   2.79719996         3.46127163E-05
   2.80920005         3.39434264E-05
   2.82119989         3.33119278E-05
   2.83319998         3.27214220E-05
   2.84520006         3.21756561E-05
   2.85719991         3.16788755E-05
   2.86919999         3.12356751E-05
   2.88120008         3.08507952E-05
   2.89319992         3.05288231E-05
   2.90520000         3.02739099E-05
   2.91720009         3.00894171E-05
   2.92919993         2.99775984E-05
   2.94120002         2.99393087E-05
   2.95320010         2.99737731E-05
   2.96519995         3.00784141E-05
   2.97720003         3.02487933E-05
   2.98920012         3.04786226E-05
   3.00119996         3.07598930E-05
   3.01320004         3.10830983E-05
   3.02519989         3.14375466E-05
   3.03719997         3.18117272E-05
   3.04920006         3.21937732E-05
   3.06119990         3.25718938E-05
   3.07319999         3.29348659E-05
   3.08520007         3.32724703E-05
   3.09719992         3.35759141E-05
   3.10920000         3.38381578E-05
   3.12120008         3.40541774E-05
   3.13319993         3.42211315E-05
   3.14520001         3.43383945E-05
   3.15720010         3.44075124E-05
   3.16919994         3.44320288E-05
   3.18120003         3.44172295E-05
   3.19320011         3.43697611E-05
   3.20519996         3.42972235E-05
   3.21720004         3.42076928E-05
   3.22919989         3.41092091E-05
   3.24119997         3.40093175E-05
   3.25320005         3.39145590E-05
   3.26519990         3.38300997E-05
   3.27719998         3.37593920E-05
   3.28920007         3.37039637E-05
   3.30119991         3.36633020E-05
   3.31320000         3.36348821E-05
   3.32520008         3.36143203E-05
   3.33719993         3.35956502E-05
   3.34920001         3.35717305E-05
   3.36120009         3.35347322E-05
   3.37319994         3.34767319E-05
   3.38520002         3.33903554E-05
   3.39720011         3.32694181E-05
   3.40919995         3.31096162E-05
   3.42120004         3.29091272E-05
   3.43319988         3.26692061E-05
   3.44519997         3.23946260E-05
   3.45720005         3.20940417E-05
   3.46919990         3.17801896E-05
   3.48119998         3.14699282E-05
   3.49320006         3.11840922E-05
   3.50519991         3.09471543E-05
   3.51719999         3.07867049E-05
   3.52920008         3.07327136E-05
   3.54119992         3.08166454E-05
   3.55320001         3.10703799E-05
   3.56520009         3.15250327E-05
   3.57719994         3.22096603E-05
   3.58920002         3.31499214E-05
   3.60120010         3.43667634E-05
   3.61319995         3.58751568E-05
   3.62520003         3.76829594E-05
   3.63720012         3.97899494E-05
   3.64919996         4.21871337E-05
   3.66120005         4.48563223E-05
   3.67319989         4.77700596E-05
   3.68519998         5.08918747E-05
   3.69720006         5.41769659E-05
   3.70919991         5.75731938E-05
   3.72119999         6.10224561E-05
   3.73320007         6.44623506E-05
   3.74519992         6.78280994E-05
   3.75720000         7.10546301E-05
   3.76920009         7.40787291E-05
   3.78119993         7.68413156E-05
   3.79320002         7.92894425E-05
   3.80520010         8.13783117E-05
   3.81719995         8.30729405E-05
   3.82920003         8.43495654E-05
   3.84120011         8.51966397E-05
   3.85319996         8.56154875E-05
   3.86520004         8.56205297E-05
   3.87719989         8.52390513E-05
   3.88919997         8.45106770E-05
   3.90120006         8.34863458E-05
   3.91319990         8.22270595E-05
   3.92519999         8.08023251E-05
   3.93720007         7.92883220E-05
   3.94919991         7.77659443E-05
   3.96120000         7.63187563E-05
   3.97320008         7.50308536E-05
   3.98519993         7.39847383E-05
   3.99720001         7.32592162E-05
   4.00920010         7.29274834E-05
   4.02120018         7.30552201E-05
   4.03319979         7.36989750E-05
   4.04519987         7.49046594E-05
   4.05719995         7.67063320E-05
   4.06920004         7.91252023E-05
   4.08120012         8.21689391E-05
   4.09320021         8.58312487E-05
   4.10519981         9.00917512E-05
   4.11719990         9.49161840E-05
   4.12919998         1.00256926E-04
   4.14120007         1.06053798E-04
   4.15320015         1.12235182E-04
   4.16520023         1.18719356E-04
   4.17719984         1.25416176E-04
   4.18919992         1.32228772E-04
   4.20120001         1.39055599E-04
   4.21320009         1.45792335E-04
   4.22520018         1.52334149E-04
   4.23719978         1.58577561E-04
   4.24919987         1.64422527E-04
   4.26119995         1.69774343E-04
   4.27320004         1.74545261E-04
   4.28520012         1.78656031E-04
   4.29720020         1.82037256E-04
   4.30919981         1.84630364E-04
   4.32119989         1.86388526E-04
   4.33319998         1.87277241E-04
   4.34520006         1.87274665E-04
   4.35720015         1.86371908E-04
   4.36920023         1.84573029E-04
   4.38119984         1.81894822E-04
   4.39319992         1.78366579E-04
   4.40520000         1.74029614E-04
   4.41720009         1.68936705E-04
   4.42920017         1.63151388E-04
   4.44119978         1.56746944E-04
   4.45319986         1.49805492E-04
   4.46519995         1.42416611E-04
   4.47720003         1.34676011E-04
   4.48920012         1.26683895E-04
   4.50120020         1.18543183E-04
   4.51319981         1.10357541E-04
   4.52519989         1.02229365E-04
   4.53719997         9.42576735E-05
   4.54920006         8.65359470E-05
   4.56120014         7.91501079E-05
   4.57320023         7.21765609E-05
   4.58519983         6.56805569E-05
   4.59719992         5.97147555E-05
   4.60920000         5.43182177E-05
   4.62120008         4.95157910E-05
   4.63320017         4.53179273E-05
   4.64519978         4.17209812E-05
   4.65719986         3.87079490E-05
   4.66919994         3.62496176E-05
   4.68120003         3.43060929E-05
   4.69320011         3.28285896E-05
   4.70520020         3.17614322E-05
   4.71719980         3.10441683E-05
   4.72919989         3.06136790E-05
   4.74119997         3.04062269E-05
   4.75320005         3.03592988E-05
   4.76520014         3.04132627E-05
   4.77720022         3.05126996E-05
   4.78919983         3.06074289E-05
   4.80119991         3.06532165E-05
   4.81320000         3.06121401E-05
   4.82520008         3.04526893E-05
   4.83720016         3.01496002E-05
   4.84919977         2.96835115E-05
   4.86119986         2.90404896E-05
   4.87319994         2.82114870E-05
   4.88520002         2.71917870E-05
   4.89720011         2.59805038E-05
   4.90920019         2.45801621E-05
   4.92119980         2.29963680E-05
   4.93319988         2.12376162E-05
   4.94519997         1.93151900E-05
   4.95720005         1.72431519E-05
   4.96920013         1.50384030E-05
   4.98120022         1.27207477E-05
   4.99319983         1.03129414E-05
   5.00519991         7.84066924E-06
   5.01719999         5.33243156E-06
   5.02920008         2.81929374E-06
   5.04120016         3.34486373E-07
   5.05319977        -2.08714368E-06
   5.06519985        -4.40982467E-06
   5.07719994        -6.59768011E-06
   5.08920002        -8.61563331E-06
   5.10120010        -1.04303717E-05
   5.11320019        -1.20113036E-05
   5.12519979        -1.33314797E-05
   5.13719988        -1.43684210E-05
   5.14919996        -1.51048134E-05
   5.16120005        -1.55290345E-05
   5.17320013        -1.56354981E-05
   5.18520021        -1.54247846E-05
   5.19719982        -1.49035968E-05
   5.20919991        -1.40844941E-05
   5.22119999        -1.29854934E-05
   5.23320007        -1.16295078E-05
   5.24520016        -1.00437092E-05
   5.25719976        -8.25880761E-06
   5.26919985        -6.30831073E-06
   5.28119993        -4.22779203E-06
   5.29320002        -2.05418064E-06
   5.30520010         1.74902894E-07
   5.31720018         2.42175179E-06
   5.32919979         4.64912864E-06
   5.34119987         6.82077643E-06
   5.35319996         8.90189949E-06
   5.36520004         1.08596332E-05
   5.37720013         1.26635186E-05
   5.38920021         1.42860054E-05
   5.40119982         1.57029754E-05
   5.41319990         1.68943079E-05
   5.42519999         1.78444607E-05
   5.43720007         1.85430672E-05
   5.44920015         1.89854873E-05
   5.46120024         1.91733252E-05
   5.47319984         1.91148101E-05
   5.48519993         1.88250488E-05
   5.49720001         1.83260672E-05
   5.50920010         1.76466110E-05
   5.52120018         1.68216829E-05
   5.53319979         1.58917937E-05
   5.54519987         1.49019170E-05
   5.55719995         1.39001677E-05
   5.56920004         1.29362497E-05
   5.58120012         1.20597097E-05
   5.59320021         1.13180558E-05
   5.60519981         1.07548531E-05
   5.61719990         1.04078490E-05
   5.62919998         1.03072380E-05
   5.64120007         1.04741557E-05
   5.65320015         1.09194852E-05
   5.66520023         1.16430483E-05
   5.67719984         1.26332243E-05
   5.68919992         1.38670594E-05
   5.70120001         1.53108504E-05
   5.71320009         1.69212071E-05
   5.72520018         1.86465513E-05
   5.73719978         2.04290009E-05
   5.74919987         2.22065391E-05
   5.76119995         2.39154051E-05
   5.77320004         2.54925726E-05
   5.78520012         2.68782333E-05
   5.79720020         2.80181357E-05
   5.80919981         2.88657448E-05
   5.82119989         2.93840476E-05
   5.83319998         2.95470290E-05
   5.84520006         2.93406592E-05
   5.85720015         2.87634739E-05
   5.86920023         2.78266361E-05
   5.88119984         2.65535728E-05
   5.89319992         2.49791701E-05
   5.90520000         2.31486065E-05
   5.91720009         2.11158676E-05
   5.92920017         1.89420207E-05
   5.94119978         1.66933150E-05
   5.95319986         1.44391934E-05
   5.96519995         1.22502379E-05
   5.97720003         1.01961659E-05
   5.98920012         8.34387720E-06
   6.00120020         6.75559522E-06
   6.01319981         5.48714797E-06
   6.02519989         4.58639943E-06
   6.03719997         4.09185213E-06
   6.04920006         4.03143713E-06
   6.06120014         4.42152214E-06
   6.07320023         5.26615486E-06
   6.08519983         6.55656595E-06
   6.09719992         8.27096937E-06
   6.10920000         1.03746861E-05
   6.12120008         1.28206266E-05
   6.13320017         1.55501457E-05
   6.14519978         1.84942928E-05
   6.15719986         2.15754571E-05
   6.16919994         2.47093813E-05
   6.18120003         2.78075240E-05
   6.19320011         3.07797018E-05
   6.20520020         3.35369332E-05
   6.21719980         3.59943879E-05
   6.22919989         3.80743404E-05
   6.24119997         3.97089862E-05
   6.25320005         4.08429951E-05
   6.26520014         4.14357164E-05
   6.27720022         4.14628958E-05
   6.28919983         4.09178210E-05
   6.30119991         3.98118573E-05
   6.31320000         3.81743157E-05
   6.32520008         3.60516642E-05
   6.33720016         3.35061413E-05
   6.34919977         3.06137845E-05
   6.36119986         2.74619924E-05
   6.37319994         2.41467169E-05
   6.38520002         2.07693920E-05
   6.39720011         1.74337292E-05
   6.40920019         1.42424933E-05
   6.42119980         1.12943790E-05
   6.43319988         8.68107145E-06
   6.44519997         6.48459809E-06
   6.45720005         4.77502726E-06
   6.46920013         3.60856689E-06
   6.48120022         3.02609806E-06
   6.49319983         3.05215531E-06
   6.50519991         3.69435975E-06
   6.51719999         4.94330061E-06
   6.52920008         6.77283970E-06
   6.54120016         9.14083284E-06
   6.55319977         1.19902297E-05
   6.56519985         1.52505399E-05
   6.57719994         1.88396280E-05
   6.58920002         2.26658176E-05
   6.60120010         2.66302541E-05
   6.61320019         3.06294969E-05
   6.62519979         3.45582848E-05
   6.63719988         3.83124134E-05
   6.64919996         4.17916381E-05
   6.66120005         4.49025574E-05
   6.67320013         4.75613379E-05
   6.68520021         4.96962130E-05
   6.69719982         5.12497027E-05
   6.70919991         5.21803631E-05
   6.72119999         5.24640891E-05
   6.73320007         5.20948561E-05
   6.74520016         5.10848404E-05
   6.75719976         4.94639935E-05
   6.76919985         4.72789143E-05
   6.78119993         4.45912628E-05
   6.79320002         4.14755887E-05
   6.80520010         3.80168058E-05
   6.81720018         3.43073443E-05
   6.82919979         3.04441528E-05
   6.84119987         2.65256513E-05
   6.85319996         2.26487700E-05
   6.86520004         1.89062121E-05
   6.87720013         1.53840247E-05
   6.88920021         1.21595676E-05
   6.90119982         9.29990983E-06
   6.91319990         6.86070780E-06
   6.92519999         4.88552450E-06
   6.93720007         3.40558290E-06
   6.94920015         2.43988916E-06
   6.96120024         1.99566944E-06
   6.97319984         2.06903655E-06
   6.98519993         2.64582468E-06
   6.99720001         3.70252451E-06
   7.00920010         5.20726189E-06
   7.02120018         7.12078145E-06
   7.03319979         9.39741130E-06
   7.04519987         1.19860051E-05
   7.05719995         1.48308618E-05
   7.06920004         1.78726405E-05
   7.08120012         2.10493035E-05
   7.09320021         2.42970873E-05
   7.10519981         2.75515540E-05
   7.11719990         3.07486880E-05
   7.12919998         3.38260907E-05
   7.14120007         3.67242028E-05
   7.15320015         3.93875562E-05
   7.16520023         4.17660340E-05
   7.17719984         4.38160241E-05
   7.18919992         4.55014779E-05
   7.20120001         4.67947975E-05
   7.21320009         4.76774803E-05
   7.22520018         4.81405186E-05
   7.23719978         4.81845054E-05
   7.24919987         4.78194524E-05
   7.26119995         4.70643099E-05
   7.27320004         4.59462062E-05
   7.28520012         4.44994985E-05
   7.29720020         4.27645973E-05
   7.30919981         4.07867010E-05
   7.32119989         3.86144820E-05
   7.33319998         3.62987194E-05
   7.34520006         3.38910504E-05
   7.35720015         3.14427853E-05
   7.36920023         2.90038497E-05
   7.38119984         2.66219176E-05
   7.39319992         2.43416562E-05
   7.40520000         2.22041435E-05
   7.41720009         2.02464034E-05
   7.42920017         1.85010522E-05
   7.44119978         1.69959912E-05
   7.45319986         1.57541635E-05
   7.46519995         1.47933160E-05
   7.47720003         1.41257524E-05
   7.48920012         1.37580755E-05
   7.50120020         1.36909439E-05
   7.51319981         1.39188332E-05
   7.52519989         1.44298456E-05
   7.53719997         1.52056236E-05
   7.54920006         1.62213782E-05
   7.56120014         1.74461020E-05
   7.57320023         1.88429985E-05
   7.58519983         2.03701493E-05
   7.59719992         2.19814447E-05
   7.60920000         2.36277665E-05
   7.62120008         2.52584123E-05
   7.63320017         2.68227232E-05
   7.64519978         2.82718302E-05
   7.65719986         2.95604950E-05
   7.66919994         3.06488946E-05
   7.68120003         3.15043180E-05
   7.69320011         3.21026127E-05
   7.70520020         3.24293578E-05
   7.71719980         3.24806460E-05
   7.72919989         3.22634078E-05
   7.74119997         3.17952472E-05
   7.75320005         3.11037984E-05
   7.76520014         3.02255976E-05
   7.77720022         2.92045042E-05
   7.78919983         2.80897584E-05
   7.80119991         2.69337725E-05
   7.81320000         2.57897318E-05
   7.82520008         2.47091575E-05
   7.83720016         2.37395288E-05
   7.84919977         2.29221132E-05
   7.86119986         2.22900744E-05
   7.87319994         2.18670066E-05
   7.88520002         2.16659173E-05
   7.89720011         2.16887674E-05
   7.90920019         2.19265276E-05
   7.92119980         2.23598090E-05
   7.93319988         2.29599955E-05
   7.94519997         2.36908181E-05
   7.95720005         2.45103038E-05
   7.96920013         2.53729959E-05
   7.98120022         2.62322974E-05
   7.99319983         2.70428518E-05
   8.00520039         2.77628114E-05
   8.01720047         2.83558693E-05
   8.02919960         2.87929779E-05
   8.04119968         2.90536318E-05
   8.05319977         2.91266915E-05
   8.06519985         2.90106564E-05
   8.07719994         2.87134662E-05
   8.08920002         2.82517576E-05
   8.10120010         2.76497176E-05
   8.11320019         2.69375450E-05
   8.12520027         2.61496698E-05
   8.13720036         2.53227936E-05
   8.14920044         2.44939038E-05
   8.16119957         2.36983851E-05
   8.17319965         2.29682973E-05
   8.18519974         2.23309653E-05
   8.19719982         2.18079185E-05
   8.20919991         2.14142547E-05
   8.22119999         2.11584338E-05
   8.23320007         2.10425169E-05
   8.24520016         2.10627768E-05
   8.25720024         2.12106734E-05
   8.26920033         2.14740721E-05
   8.28120041         2.18386267E-05
   8.29319954         2.22892231E-05
   8.30519962         2.28113731E-05
   8.31719971         2.33924657E-05
   8.32919979         2.40227891E-05
   8.34119987         2.46962427E-05
   8.35319996         2.54107235E-05
   8.36520004         2.61681453E-05
   8.37720013         2.69740867E-05
   8.38920021         2.78371372E-05
   8.40120029         2.87679431E-05
   8.41320038         2.97780825E-05
   8.42520046         3.08787967E-05
   8.43719959         3.20796935E-05
   8.44919968         3.33875250E-05
   8.46119976         3.48050780E-05
   8.47319984         3.63303188E-05
   8.48519993         3.79557860E-05
   8.49720001         3.96682881E-05
   8.50920010         4.14489768E-05
   8.52120018         4.32737033E-05
   8.53320026         4.51137203E-05
   8.54520035         4.69366205E-05
   8.55720043         4.87075267E-05
   8.56919956         5.03903866E-05
   8.58119965         5.19493660E-05
   8.59319973         5.33502280E-05
   8.60519981         5.45616385E-05
   8.61719990         5.55563456E-05
   8.62919998         5.63121430E-05
   8.64120007         5.68126052E-05
   8.65320015         5.70475895E-05
   8.66520023         5.70134325E-05
   8.67720032         5.67128627E-05
   8.68920040         5.61547349E-05
   8.70119953         5.53534483E-05
   8.71319962         5.43282549E-05
   8.72519970         5.31023688E-05
   8.73719978         5.17020417E-05
   8.74919987         5.01555623E-05
   8.76119995         4.84922821E-05
   8.77320004         4.67416903E-05
   8.78520012         4.49326035E-05
   8.79720020         4.30924629E-05
   8.80920029         4.12468180E-05
   8.82120037         3.94189337E-05
   8.83320045         3.76296084E-05
   8.84519958         3.58970865E-05
   8.85719967         3.42371532E-05
   8.86919975         3.26633090E-05
   8.88119984         3.11870062E-05
   8.89319992         2.98179420E-05
   8.90520000         2.85643364E-05
   8.91720009         2.74331724E-05
   8.92920017         2.64303872E-05
   8.94120026         2.55609757E-05
   8.95320034         2.48290216E-05
   8.96520042         2.42376209E-05
   8.97719955         2.37887398E-05
   8.98919964         2.34830222E-05
   9.00119972         2.33195497E-05
   9.01319981         2.32956008E-05
   9.02519989         2.34064355E-05
   9.03719997         2.36451524E-05
   9.04920006         2.40025947E-05
   9.06120014         2.44673902E-05
   9.07320023         2.50260837E-05
   9.08520031         2.56633975E-05