 -0.622799993       0.00000000    
 -0.610800028       0.00000000    
 -0.598800004       0.00000000    
 -0.586799979       0.00000000    
 -0.574800014       0.00000000    
 -0.562799990      -1.53723029E-26
 -0.550800025       7.38917228E-27
 -0.538800001       1.03392400E-24
 -0.526799977       8.12893789E-24
 -0.514800012       3.81606540E-23
 -0.502799988       1.33302688E-22
 -0.490799993       3.78690746E-22
 -0.478799999       9.18578719E-22
 -0.466800004       1.96195831E-21
 -0.454800010       3.76611213E-21
 -0.442799985       6.58294121E-21
 -0.430799991       1.05487435E-20
 -0.418799996       1.55065960E-20
 -0.406800002       2.08015422E-20
 -0.394800007       2.52090740E-20
 -0.382800013       2.73194750E-20
 -0.370799989       2.67674499E-20
 -0.358799994       2.64302365E-20
 -0.346799999       3.49239435E-20
 -0.334800005       6.75326279E-20
 -0.322800010       1.42810212E-19
 -0.310799986       2.72727109E-19
 -0.298799992       4.47516447E-19
 -0.286799997       6.22179769E-19
 -0.274800003       7.17445178E-19
 -0.262800008       6.48931876E-19
 -0.250800014       3.89045764E-19
 -0.238800004       4.49432398E-20
 -0.226799995      -9.10533341E-20
 -0.214800000       4.20706360E-19
 -0.202800006       1.99378921E-18
 -0.190799996       4.71719679E-18
 -0.178800002       8.03706716E-18
 -0.166800007       1.06167498E-17
 -0.154799998       1.06000912E-17
 -0.142800003       6.40000228E-18
 -0.130799994      -2.11703539E-18
 -0.118799999      -1.25151368E-17
 -0.106799997      -1.94674360E-17
  -9.48000029E-02  -1.59344764E-17
  -8.28000009E-02   3.90751436E-18
  -7.07999989E-02   4.06103594E-17
  -5.88000007E-02   8.59020515E-17
  -4.67999987E-02   1.21912724E-16
  -3.48000005E-02   1.25162565E-16
  -2.28000004E-02   7.57548350E-17
  -1.08000003E-02  -3.03555102E-17
   1.20000006E-03  -1.70861117E-16
   1.31999999E-02  -2.94677389E-16
   2.52000000E-02  -3.32761340E-16
   3.72000001E-02  -2.23011864E-16
   4.91999984E-02   5.66027583E-17
   6.12000003E-02   4.59204566E-16
   7.32000023E-02   8.60229244E-16
   8.51999968E-02   1.08134333E-15
   9.71999988E-02   9.49158757E-16
  0.109200001       3.75208305E-16
  0.121200003      -5.71463960E-16
  0.133200005      -1.63492828E-15
  0.145199999      -2.41508660E-15
  0.157199994      -2.48865310E-15
  0.169200003      -1.58138097E-15
  0.181199998       2.67262876E-16
  0.193200007       2.62113435E-15
  0.205200002       4.70720476E-15
  0.217199996       5.63487567E-15
  0.229200006       4.72694656E-15
  0.241200000       1.85239223E-15
  0.253199995      -2.37972234E-15
  0.265199989      -6.68343554E-15
  0.277200013      -9.45440812E-15
  0.289200008      -9.34456319E-15
  0.301200002      -5.86115290E-15
  0.313199997       2.58245787E-16
  0.325199991       7.10539517E-15
  0.337199986       1.21670489E-14
  0.349200010       1.32639811E-14
  0.361200005       9.53657285E-15
  0.373199999       2.05398332E-15
  0.385199994      -6.30742788E-15
  0.397199988      -1.18280206E-14
  0.409200013      -1.15105340E-14
  0.421200007      -4.67568878E-15
  0.433200002       6.14197693E-15
  0.445199996       1.55975832E-14
  0.457199991       1.74045433E-14
  0.469199985       7.21101001E-15
  0.481200010      -1.45596578E-14
  0.493200004      -4.12289831E-14
  0.505200028      -6.08397677E-14
  0.517199993      -5.99091699E-14
  0.529200017      -2.91471220E-14
  0.541199982       3.07691359E-14
  0.553200006       1.05859704E-13
  0.565199971       1.70132558E-13
  0.577199996       1.92376429E-13
  0.589200020       1.47301103E-13
  0.601199985       2.77662601E-14
  0.613200009      -1.46502791E-13
  0.625199974      -3.28163711E-13
  0.637199998      -4.51975615E-13
  0.649200022      -4.54083142E-13
  0.661199987      -2.96075881E-13
  0.673200011       1.39438928E-14
  0.685199976       4.11779253E-13
  0.697200000       7.85264269E-13
  0.709200025       1.00126244E-12
  0.721199989       9.46185296E-13
  0.733200014       5.68793764E-13
  0.745199978      -8.89466452E-14
  0.757200003      -8.85708932E-13
  0.769200027      -1.60591657E-12
  0.781199992      -2.01324829E-12
  0.793200016      -1.91975732E-12
  0.805199981      -1.25084567E-12
  0.817200005      -8.50548812E-14
  0.829200029       1.34680017E-12
  0.841199994       2.70734823E-12
  0.853200018       3.63368233E-12
  0.865199983       3.83232118E-12
  0.877200007       3.16102721E-12
  0.889199972       1.67310480E-12
  0.901199996      -3.89427097E-13
  0.913200021      -2.65180499E-12
  0.925199986      -4.69434344E-12
  0.937200010      -6.14506840E-12
  0.949199975      -6.74952672E-12
  0.961199999      -6.39912819E-12
  0.973200023      -5.11500781E-12
  0.985199988      -3.00107573E-12
  0.997200012      -1.91478655E-13
   1.00919998       3.18056280E-12
   1.02119994       6.97479531E-12
   1.03320003       1.09965327E-11
   1.04519999       1.49288342E-11
   1.05719995       1.82774421E-11
   1.06920004       2.03643508E-11
   1.08120000       2.03950815E-11
   1.09319997       1.76028150E-11
   1.10520005       1.14463916E-11
   1.11720002       1.81791561E-12
   1.12919998      -1.07921606E-11
   1.14119995      -2.52154825E-11
   1.15320003      -3.96281445E-11
   1.16520000      -5.16545140E-11
   1.17719996      -5.84957707E-11
   1.18920004      -5.69985968E-11
   1.20120001      -4.35711987E-11
   1.21319997      -1.38648459E-11
   1.22520006       3.78374623E-11
   1.23720002       1.19550328E-10
   1.24919999       2.42837112E-10
   1.26119995       4.24390662E-10
   1.27320004       6.87983059E-10
   1.28520000       1.06690223E-09
   1.29719996       1.60709790E-09
   1.30920005       2.37141906E-09
   1.32120001       3.44551343E-09
   1.33319998       4.94614527E-09
   1.34519994       7.03296221E-09
   1.35720003       9.92492843E-09
   1.36919999       1.39230005E-08
   1.38119996       1.94408170E-08
   1.39320004       2.70453757E-08
   1.40520000       3.75099525E-08
   1.41719997       5.18816243E-08
   1.42920005       7.15650899E-08
   1.44120002       9.84252821E-08
   1.45319998       1.34909300E-07
   1.46519995       1.84187755E-07
   1.47720003       2.50314827E-07
   1.48920000       3.38403225E-07
   1.50119996       4.54809026E-07
   1.51320004       6.07319635E-07
   1.52520001       8.05332775E-07
   1.53719997       1.06001596E-06
   1.54920006       1.38443022E-06
   1.56120002       1.79360120E-06
   1.57319999       2.30452110E-06
   1.58519995       2.93606354E-06
   1.59720004       3.70879411E-06
   1.60920000       4.64466484E-06
   1.62119997       5.76658158E-06
   1.63320005       7.09783762E-06
   1.64520001       8.66143182E-06
   1.65719998       1.04792553E-05
   1.66919994       1.25711940E-05
   1.68120003       1.49541665E-05
   1.69319999       1.76411268E-05
   1.70519996       2.06400800E-05
   1.71720004       2.39531782E-05
   1.72920001       2.75759103E-05
   1.74119997       3.14964964E-05
   1.75320005       3.56954552E-05
   1.76520002       4.01454963E-05
   1.77719998       4.48116298E-05
   1.78919995       4.96516623E-05
   1.80120003       5.46169540E-05
   1.81320000       5.96534992E-05
   1.82519996       6.47032793E-05
   1.83720005       6.97058131E-05
   1.84920001       7.45998987E-05
   1.86119998       7.93253785E-05
   1.87320006       8.38249907E-05
   1.88520002       8.80460357E-05
   1.89719999       9.19419399E-05
   1.90919995       9.54735588E-05
   1.92120004       9.86101732E-05
   1.93320000       1.01330115E-04
   1.94519997       1.03621016E-04
   1.95720005       1.05479732E-04
   1.96920002       1.06911815E-04
   1.98119998       1.07930740E-04
   1.99319994       1.08556822E-04
   2.00519991       1.08815977E-04
   2.01719999       1.08738379E-04
   2.02920008       1.08357053E-04
   2.04119992       1.07706554E-04
   2.05320001       1.06821804E-04
   2.06520009       1.05737039E-04
   2.07719994       1.04485072E-04
   2.08920002       1.03096740E-04
   2.10120010       1.01600577E-04
   2.11319995       1.00022800E-04
   2.12520003       9.83873324E-05
   2.13720012       9.67161250E-05
   2.14919996       9.50294198E-05
   2.16120005       9.33461051E-05
   2.17319989       9.16840145E-05
   2.18519998       9.00601663E-05
   2.19720006       8.84908586E-05
   2.20919991       8.69917276E-05
   2.22119999       8.55775797E-05
   2.23320007       8.42621957E-05
   2.24519992       8.30580466E-05
   2.25720000       8.19759662E-05
   2.26920009       8.10248166E-05
   2.28119993       8.02112554E-05
   2.29320002       7.95394881E-05
   2.30520010       7.90112172E-05
   2.31719995       7.86256933E-05
   2.32920003       7.83798678E-05
   2.34120011       7.82686620E-05
   2.35319996       7.82853531E-05
   2.36520004       7.84219956E-05
   2.37719989       7.86698583E-05
   2.38919997       7.90198610E-05
   2.40120006       7.94629377E-05
   2.41319990       7.99903137E-05
   2.42519999       8.05936579E-05
   2.43720007       8.12651633E-05
   2.44919991       8.19974011E-05
   2.46120000       8.27831682E-05
   2.47320008       8.36151594E-05
   2.48519993       8.44856258E-05
   2.49720001       8.53859528E-05
   2.50920010       8.63062814E-05
   2.52119994       8.72351666E-05
   2.53320003       8.81593005E-05
   2.54520011       8.90633819E-05
   2.55719995       8.99301231E-05
   2.56920004       9.07403883E-05
   2.58119988       9.14735792E-05
   2.59319997       9.21081446E-05
   2.60520005       9.26222929E-05
   2.61719990       9.29948656E-05
   2.62919998       9.32063194E-05
   2.64120007       9.32398543E-05
   2.65319991       9.30825772E-05
   2.66520000       9.27266228E-05
   2.67720008       9.21703177E-05
   2.68919992       9.14191187E-05
   2.70120001       9.04864937E-05
   2.71320009       8.93944816E-05
   2.72519994       8.81740125E-05
   2.73720002       8.68649295E-05
   2.74920011       8.55156759E-05
   2.76119995       8.41825604E-05
   2.77320004       8.29287965E-05
   2.78520012       8.18231638E-05
   2.79719996       8.09384364E-05
   2.80920005       8.03495786E-05
   2.82119989       8.01318602E-05
   2.83319998       8.03588991E-05
   2.84520006       8.11006830E-05
   2.85719991       8.24218077E-05
   2.86919999       8.43797970E-05
   2.88120008       8.70236763E-05
   2.89319992       9.03928885E-05
   2.90520000       9.45163483E-05
   2.91720009       9.94119837E-05
   2.92919993       1.05086430E-04
   2.94120002       1.11535061E-04
   2.95320010       1.18742209E-04
   2.96519995       1.26681625E-04
   2.97720003       1.35317052E-04
   2.98920012       1.44602978E-04
   3.00119996       1.54485388E-04
   3.01320004       1.64902667E-04
   3.02519989       1.75786452E-04
   3.03719997       1.87062557E-04
   3.04920006       1.98651920E-04
   3.06119990       2.10471437E-04
   3.07319999       2.22434886E-04
   3.08520007       2.34453808E-04
   3.09719992       2.46438402E-04
   3.10920000       2.58298329E-04
   3.12120008       2.69943383E-04
   3.13319993       2.81284330E-04
   3.14520001       2.92233482E-04
   3.15720010       3.02705361E-04
   3.16919994       3.12616990E-04
   3.18120003       3.21888510E-04
   3.19320011       3.30443465E-04
   3.20519996       3.38208949E-04
   3.21720004       3.45115957E-04
   3.22919989       3.51099559E-04
   3.24119997       3.56099044E-04
   3.25320005       3.60058359E-04
   3.26519990       3.62926396E-04
   3.27719998       3.64657375E-04
   3.28920007       3.65211512E-04
   3.30119991       3.64555628E-04
   3.31320000       3.62664112E-04
   3.32520008       3.59519676E-04
   3.33719993       3.55114462E-04
   3.34920001       3.49450827E-04
   3.36120009       3.42542626E-04
   3.37319994       3.34415905E-04
   3.38520002       3.25109635E-04
   3.39720011       3.14676494E-04
   3.40919995       3.03182984E-04
   3.42120004       2.90709548E-04
   3.43319988       2.77350337E-04
   3.44519997       2.63212598E-04
   3.45720005       2.48415483E-04
   3.46919990       2.33089027E-04
   3.48119998       2.17372159E-04
   3.49320006       2.01410832E-04
   3.50519991       1.85355704E-04
   3.51719999       1.69359570E-04
   3.52920008       1.53574700E-04
   3.54119992       1.38150048E-04
   3.55320001       1.23228412E-04
   3.56520009       1.08943677E-04
   3.57719994       9.54182033E-05
   3.58920002       8.27604454E-05
   3.60120010       7.10628374E-05
   3.61319995       6.04001252E-05
   3.62520003       5.08280864E-05
   3.63720012       4.23827478E-05
   3.64919996       3.50801674E-05
   3.66120005       2.89166928E-05
   3.67319989       2.38698121E-05
   3.68519998       1.98994803E-05
   3.69720006       1.69499217E-05
   3.70919991       1.49518091E-05
   3.72119999       1.38247742E-05
   3.73320007       1.34800866E-05
   3.74519992       1.38234591E-05
   3.75720000       1.47578248E-05
   3.76920009       1.61859898E-05
   3.78119993       1.80130482E-05
   3.79320002       2.01484836E-05
   3.80520010       2.25078984E-05
   3.81719995       2.50142893E-05
   3.82920003       2.75988750E-05
   3.84120011       3.02014814E-05
   3.85319996       3.27704984E-05
   3.86520004       3.52624556E-05
   3.87719989       3.76413045E-05
   3.88919997       3.98774719E-05
   3.90120006       4.19467870E-05
   3.91319990       4.38293828E-05
   3.92519999       4.55086411E-05
   3.93720007       4.69703118E-05
   3.94919991       4.82018077E-05
   3.96120000       4.91918254E-05
   3.97320008       4.99302259E-05
   3.98519993       5.04082600E-05
   3.99720001       5.06190772E-05
   4.00920010       5.05584903E-05
   4.02120018       5.02259390E-05
   4.03319979       4.96255489E-05
   4.04519987       4.87671969E-05
   4.05719995       4.76674832E-05
   4.06920004       4.63504985E-05
   4.08120012       4.48482861E-05
   4.09320021       4.32009219E-05
   4.10519981       4.14561437E-05
   4.11719990       3.96684918E-05
   4.12919998       3.78979676E-05
   4.14120007       3.62082174E-05
   4.15320015       3.46643283E-05
   4.16520023       3.33303069E-05
   4.17719984       3.22663800E-05
   4.18919992       3.15262405E-05
   4.20120001       3.11544172E-05
   4.21320009       3.11839176E-05
   4.22520018       3.16342885E-05
   4.23719978       3.25102446E-05
   4.24919987       3.38009377E-05
   4.26119995       3.54799740E-05
   4.27320004       3.75061682E-05
   4.28520012       3.98250268E-05
   4.29720020       4.23708952E-05
   4.30919981       4.50696789E-05
   4.32119989       4.78419606E-05
   4.33319998       5.06064098E-05
   4.34520006       5.32832273E-05
   4.35720015       5.57975181E-05
   4.36920023       5.80823835E-05
   4.38119984       6.00815620E-05
   4.39319992       6.17515325E-05
   4.40520000       6.30629584E-05
   4.41720009       6.40014114E-05
   4.42920017       6.45674154E-05
   4.44119978       6.47757697E-05
   4.45319986       6.46543413E-05
   4.46519995       6.42422237E-05
   4.47720003       6.35876277E-05
   4.48920012       6.27454137E-05
   4.50120020       6.17746191E-05
   4.51319981       6.07358561E-05
   4.52519989       5.96889950E-05
   4.53719997       5.86909300E-05
   4.54920006       5.77937608E-05
   4.56120014       5.70432785E-05
   4.57320023       5.64778529E-05
   4.58519983       5.61276829E-05
   4.59719992       5.60144617E-05
   4.60920000       5.61513407E-05
   4.62120008       5.65431983E-05
   4.63320017       5.71871424E-05
   4.64519978       5.80732012E-05
   4.65719986       5.91850949E-05
   4.66919994       6.05011373E-05
   4.68120003       6.19951024E-05
   4.69320011       6.36370969E-05
   4.70520020       6.53944444E-05
   4.71719980       6.72324750E-05
   4.72919989       6.91152818E-05
   4.74119997       7.10064414E-05
   4.75320005       7.28696905E-05
   4.76520014       7.46695587E-05
   4.77720022       7.63720091E-05
   4.78919983       7.79450420E-05
   4.80119991       7.93592262E-05
   4.81320000       8.05883101E-05
   4.82520008       8.16097308E-05
   4.83720016       8.24051167E-05
   4.84919977       8.29606797E-05
   4.86119986       8.32676087E-05
   4.87319994       8.33223457E-05
   4.88520002       8.31267316E-05
   4.89720011       8.26880350E-05
   4.90920019       8.20189016E-05
   4.92119980       8.11371210E-05
   4.93319988       8.00652488E-05
   4.94519997       7.88301040E-05
   4.95720005       7.74621803E-05
   4.96920013       7.59948452E-05
   4.98120022       7.44635618E-05
   4.99319983       7.29049571E-05
   5.00519991       7.13558329E-05
   5.01719999       6.98522636E-05
   5.02920008       6.84285696E-05
   5.04120016       6.71164235E-05
   5.05319977       6.59439538E-05
   5.06519985       6.49350186E-05
   5.07719994       6.41085207E-05
   5.08920002       6.34779717E-05
   5.10120010       6.30511422E-05
   5.11320019       6.28299676E-05
   5.12519979       6.28106645E-05
   5.13719988       6.29840215E-05
   5.14919996       6.33359668E-05
   5.16120005       6.38482816E-05
   5.17320013       6.44994798E-05
   5.18520021       6.52658928E-05
   5.19719982       6.61227532E-05
   5.20919991       6.70453592E-05
   5.22119999       6.80101512E-05
   5.23320007       6.89957014E-05
   5.24520016       6.99835800E-05
   5.25719976       7.09588785E-05
   5.26919985       7.19105883E-05
   5.28119993       7.28315936E-05
   5.29320002       7.37183800E-05
   5.30520010       7.45704965E-05
   5.31720018       7.53896966E-05
   5.32919979       7.61789488E-05
   5.34119987       7.69413091E-05
   5.35319996       7.76787710E-05
   5.36520004       7.83911601E-05
   5.37720013       7.90752529E-05
   5.38920021       7.97240791E-05
   5.40119982       8.03265866E-05
   5.41319990       8.08676632E-05
   5.42519999       8.13285078E-05
   5.43720007       8.16874453E-05
   5.44920015       8.19210327E-05
   5.46120024       8.20054338E-05
   5.47319984       8.19179913E-05
   5.48519993       8.16389002E-05
   5.49720001       8.11527352E-05
   5.50920010       8.04499214E-05
   5.52120018       7.95278465E-05
   5.53319979       7.83916403E-05
   5.54519987       7.70545303E-05
   5.55719995       7.55376823E-05
   5.56920004       7.38696326E-05
   5.58120012       7.20851749E-05
   5.59320021       7.02239340E-05
   5.60519981       6.83286271E-05
   5.61719990       6.64431427E-05
   5.62919998       6.46105109E-05
   5.64120007       6.28710477E-05
   5.65320015       6.12605945E-05
   5.66520023       5.98091174E-05
   5.67719984       5.85397211E-05
   5.68919992       5.74680525E-05
   5.70120001       5.66022209E-05
   5.71320009       5.59431428E-05
   5.72520018       5.54853068E-05
   5.73719978       5.52178681E-05
   5.74919987       5.51259509E-05
   5.76119995       5.51920421E-05
   5.77320004       5.53974205E-05
   5.78520012       5.57233943E-05
   5.79720020       5.61523666E-05
   5.80919981       5.66685776E-05
   5.82119989       5.72584795E-05
   5.83319998       5.79107982E-05
   5.84520006       5.86162314E-05
   5.85720015       5.93668228E-05
   5.86920023       6.01552056E-05
   5.88119984       6.09736635E-05
   5.89319992       6.18132399E-05
   5.90520000       6.26628898E-05
   5.91720009       6.35089382E-05
   5.92920017       6.43347448E-05
   5.94119978       6.51207811E-05
   5.95319986       6.58450590E-05
   5.96519995       6.64839390E-05
   5.97720003       6.70132649E-05
   5.98920012       6.74097537E-05
   6.00120020       6.76525524E-05
   6.01319981       6.77248172E-05
   6.02519989       6.76152267E-05
   6.03719997       6.73192626E-05
   6.04920006       6.68401917E-05
   6.06120014       6.61896629E-05
   6.07320023       6.53877869E-05
   6.08519983       6.44627944E-05
   6.09719992       6.34501193E-05
   6.10920000       6.23911110E-05
   6.12120008       6.13313532E-05
   6.13320017       6.03186272E-05
   6.14519978       5.94008270E-05
   6.15719986       5.86237402E-05
   6.16919994       5.80289998E-05
   6.18120003       5.76521998E-05
   6.19320011       5.75213271E-05
   6.20520020       5.76556668E-05
   6.21719980       5.80650594E-05
   6.22919989       5.87497489E-05
   6.24119997       5.97005965E-05
   6.25320005       6.08997980E-05
   6.26520014       6.23218875E-05
   6.27720022       6.39351128E-05
   6.28919983       6.57028286E-05
   6.30119991       6.75851479E-05
   6.31320000       6.95404233E-05
   6.32520008       7.15266870E-05
   6.33720016       7.35028952E-05
   6.34919977       7.54299617E-05
   6.36119986       7.72715139E-05
   6.37319994       7.89944315E-05
   6.38520002       8.05691525E-05
   6.39720011       8.19697598E-05
   6.40920019       8.31739671E-05
   6.42119980       8.41630172E-05
   6.43319988       8.49215139E-05
   6.44519997       8.54373793E-05
   6.45720005       8.57018240E-05
   6.46920013       8.57093837E-05
   6.48120022       8.54581740E-05
   6.49319983       8.49501885E-05
   6.50519991       8.41916844E-05
   6.51719999       8.31936050E-05
   6.52920008       8.19720372E-05
   6.54120016       8.05485106E-05
   6.55319977       7.89502301E-05
   6.56519985       7.72100757E-05
   6.57719994       7.53663408E-05
   6.58920002       7.34622445E-05
   6.60120010       7.15450660E-05
   6.61320019       6.96651114E-05
   6.62519979       6.78742945E-05
   6.63719988       6.62246384E-05
   6.64919996       6.47665147E-05
   6.66120005       6.35469551E-05
   6.67320013       6.26079200E-05
   6.68520021       6.19847269E-05
   6.69719982       6.17046462E-05
   6.70919991       6.17858605E-05
   6.72119999       6.22367006E-05
   6.73320007       6.30552822E-05
   6.74520016       6.42295490E-05
   6.75719976       6.57376440E-05
   6.76919985       6.75487317E-05
   6.78119993       6.96240240E-05
   6.79320002       7.19180462E-05
   6.80520010       7.43801138E-05
   6.81720018       7.69558465E-05
   6.82919979       7.95886372E-05
   6.84119987       8.22211150E-05
   6.85319996       8.47965275E-05
   6.86520004       8.72598466E-05
   6.87720013       8.95588091E-05
   6.88920021       9.16447680E-05
   6.90119982       9.34734271E-05
   6.91319990       9.50053945E-05
   6.92519999       9.62067497E-05
   6.93720007       9.70495603E-05
   6.94920015       9.75122894E-05
   6.96120024       9.75803341E-05
   6.97319984       9.72465641E-05
   6.98519993       9.65117652E-05
   6.99720001       9.53851486E-05
   7.00920010       9.38846933E-05
   7.02120018       9.20374077E-05
   7.03319979       8.98793223E-05
   7.04519987       8.74552352E-05
   7.05719995       8.48180935E-05
   7.06920004       8.20280839E-05
   7.08120012       7.91512284E-05
   7.09320021       7.62576965E-05
   7.10519981       7.34197674E-05
   7.11719990       7.07095169E-05
   7.12919998       6.81963938E-05
   7.14120007       6.59446814E-05
   7.15320015       6.40111175E-05
   7.16520023       6.24426903E-05
   7.17719984       6.12747608E-05
   7.18919992       6.05297137E-05
   7.20120001       6.02160399E-05
   7.21320009       6.03280714E-05
   7.22520018       6.08463197E-05
   7.23719978       6.17383921E-05
   7.24919987       6.29604401E-05
   7.26119995       6.44590109E-05
   7.27320004       6.61733065E-05
   7.28520012       6.80375815E-05
   7.29720020       6.99836382E-05
   7.30919981       7.19432501E-05
   7.32119989       7.38503877E-05
   7.33319998       7.56432346E-05
   7.34520006       7.72657804E-05
   7.35720015       7.86691089E-05
   7.36920023       7.98122710E-05
   7.38119984       8.06627941E-05
   7.39319992       8.11969003E-05
   7.40520000       8.13994557E-05
   7.41720009       8.12637081E-05
   7.42920017       8.07909819E-05
   7.44119978       7.99902336E-05
   7.45319986       7.88777106E-05
   7.46519995       7.74765431E-05
   7.47720003       7.58165115E-05
   7.48920012       7.39336974E-05
   7.50120020       7.18703013E-05
   7.51319981       6.96742209E-05
   7.52519989       6.73987524E-05
   7.53719997       6.51018927E-05
   7.54920006       6.28455164E-05
   7.56120014       6.06943177E-05
   7.57320023       5.87143186E-05
   7.58519983       5.69711592E-05
   7.59719992       5.55280858E-05
   7.60920000       5.44437025E-05
   7.62120008       5.37696178E-05
   7.63320017       5.35480431E-05
   7.64519978       5.38095301E-05
   7.65719986       5.45709336E-05
   7.66919994       5.58337633E-05
   7.68120003       5.75830636E-05
   7.69320011       5.97869148E-05
   7.70520020       6.23966189E-05
   7.71719980       6.53476745E-05
   7.72919989       6.85614359E-05
   7.74119997       7.19475574E-05
   7.75320005       7.54069988E-05
   7.76520014       7.88355537E-05
   7.77720022       8.21277281E-05
   7.78919983       8.51807417E-05
   7.80119991       8.78985447E-05
   7.81320000       9.01955718E-05
   7.82520008       9.20000675E-05
   7.83720016       9.32568364E-05
   7.84919977       9.39293022E-05
   7.86119986       9.40007012E-05
   7.87319994       9.34744385E-05
   7.88520002       9.23735788E-05
   7.89720011       9.07394715E-05
   7.90920019       8.86297057E-05
   7.92119980       8.61154112E-05
   7.93319988       8.32781370E-05
   7.94519997       8.02064460E-05
   7.95720005       7.69924372E-05
   7.96920013       7.37283117E-05
   7.98120022       7.05032580E-05
   7.99319983       6.74006296E-05
   8.00520039       6.44956817E-05
   8.01720047       6.18537742E-05
   8.02919960       5.95292149E-05
   8.04119968       5.75646081E-05
   8.05319977       5.59907603E-05
   8.06519985       5.48270073E-05
   8.07719994       5.40819165E-05
   8.08920002       5.37542801E-05
   8.10120010       5.38342101E-05
   8.11320019       5.43043498E-05
   8.12520027       5.51410703E-05
   8.13720036       5.63155409E-05
   8.14920044       5.77947176E-05
   8.16119957       5.95421625E-05
   8.17319965       6.15187309E-05
   8.18519974       6.36831101E-05
   8.19719982       6.59923171E-05
   8.20919991       6.84021215E-05
   8.22119999       7.08674779E-05
   8.23320007       7.33430352E-05
   8.24520016       7.57836970E-05
   8.25720024       7.81453055E-05
   8.26920033       8.03854855E-05
   8.28120041       8.24644521E-05
   8.29319954       8.43460293E-05
   8.30519962       8.59986030E-05
   8.31719971       8.73960453E-05
   8.32919979       8.85186018E-05
   8.34119987       8.93535544E-05
   8.35319996       8.98957223E-05
   8.36520004       9.01477106E-05
   8.37720013       9.01198073E-05
   8.38920021       8.98296421E-05
   8.40120029       8.93015313E-05
   8.41320038       8.85654736E-05
   8.42520046       8.76559861E-05
   8.43719959       8.66107002E-05
   8.44919968       8.54688769E-05
   8.46119976       8.42698719E-05
   8.47319984       8.30517019E-05
   8.48519993       8.18496555E-05
   8.49720001       8.06952085E-05
   8.50920010       7.96151362E-05
   8.52120018       7.86309538E-05
   8.53320026       7.77587047E-05
   8.54520035       7.70090046E-05
   8.55720043       7.63874632E-05
   8.56919956       7.58953247E-05
   8.58119965       7.55302681E-05
   8.59319973       7.52874112E-05
   8.60519981       7.51603075E-05
   8.61719990       7.51418847E-05
   8.62919998       7.52252963E-05
   8.64120007       7.54045395E-05
   8.65320015       7.56748341E-05
   8.66520023       7.60326948E-05
   8.67720032       7.64757278E-05
   8.68920040       7.70020706E-05
   8.70119953       7.76096640E-05
   8.71319962       7.82953357E-05
   8.72519970       7.90536869E-05
   8.73719978       7.98761248E-05
   8.74919987       8.07498873E-05
   8.76119995       8.16572938E-05
   8.77320004       8.25753232E-05
   8.78520012       8.34754392E-05
   8.79720020       8.43239832E-05
   8.80920029       8.50828001E-05
   8.82120037       8.57104169E-05
   8.83320045       8.61635344E-05
   8.84519958       8.63988171E-05
   8.85719967       8.63749592E-05
   8.86919975       8.60547734E-05
   8.88119984       8.54073442E-05
   8.89319992       8.44099704E-05
   8.90520000       8.30498757E-05
   8.91720009       8.13255683E-05
   8.92920017       7.92476931E-05
   8.94120026       7.68393875E-05
   8.95320034       7.41360855E-05
   8.96520042       7.11847824E-05
   8.97719955       6.80427765E-05
   8.98919964       6.47759589E-05
   9.00119972       6.14567471E-05
   9.01319981       5.81617096E-05
   9.02519989       5.49691104E-05
   9.03719997       5.19562964E-05
   9.04920006       4.91972423E-05
   9.06120014       4.67601967E-05
   9.07320023       4.47055863E-05
   9.08520031       4.30842665E-05
   9.09720039       4.19361168E-05
   9.10919952       4.12890404E-05
   9.12119961       4.11584260E-05
   9.13319969       4.15469876E-05
   9.14519978       4.24449754E-05
   9.15719986       4.38307834E-05
   9.16919994       4.56717971E-05
   9.18120003       4.79255323E-05
   9.19320011       5.05409444E-05
   9.20520020       5.34598439E-05
   9.21720028       5.66184717E-05
   9.22920036       5.99490486E-05
   9.24120045       6.33813688E-05
   9.25319958       6.68443899E-05
   9.26519966       7.02677789E-05
   9.27719975       7.35833455E-05
   9.28919983       7.67265228E-05
   9.30119991       7.96375971E-05
   9.31320000       8.22629445E-05
   9.32520008       8.45560862E-05
   9.33720016       8.64785980E-05
   9.34920025       8.80008156E-05
   9.36120033       8.91024029E-05
   9.37320042       8.97726713E-05
   9.38519955       9.00106534E-05
   9.39719963       8.98250000E-05
   9.40919971       8.92335593E-05
   9.42119980       8.82627501E-05
   9.43319988       8.69466894E-05
   9.44519997       8.53261226E-05
