 -0.622799993       0.00000000    
 -0.610800028       0.00000000    
 -0.598800004       0.00000000    
 -0.586799979       0.00000000    
 -0.574800014       0.00000000    
 -0.562799990      -4.52217226E-25
 -0.550800025      -4.14806375E-24
 -0.538800001      -2.32273294E-23
 -0.526799977      -1.08493151E-22
 -0.514800012      -4.50049716E-22
 -0.502799988      -1.62933326E-21
 -0.490799993      -5.06407443E-21
 -0.478799999      -1.34891735E-20
 -0.466800004      -3.09600035E-20
 -0.454800010      -6.15965730E-20
 -0.442799985      -1.06620692E-19
 -0.430799991      -1.60649500E-19
 -0.418799996      -2.10489381E-19
 -0.406800002      -2.41323921E-19
 -0.394800007      -2.53592147E-19
 -0.382800013      -2.86866521E-19
 -0.370799989      -4.35747838E-19
 -0.358799994      -8.33736432E-19
 -0.346799999      -1.58525421E-18
 -0.334800005      -2.65291091E-18
 -0.322800010      -3.75450373E-18
 -0.310799986      -4.36985373E-18
 -0.298799992      -3.96111484E-18
 -0.286799997      -2.43183469E-18
 -0.274800003      -6.83205381E-19
 -0.262800008      -9.27874342E-19
 -0.250800014      -6.31775364E-18
 -0.238800004      -1.95813900E-17
 -0.226799995      -4.08296350E-17
 -0.214800000      -6.53847628E-17
 -0.202800006      -8.31044803E-17
 -0.190799996      -8.07431245E-17
 -0.178800002      -4.80126630E-17
 -0.166800007       1.38680072E-17
 -0.154799998       8.46627893E-17
 -0.142800003       1.23783780E-16
 -0.130799994       7.98018459E-17
 -0.118799999      -8.79693214E-17
 -0.106799997      -3.80654859E-16
  -9.48000029E-02  -7.35288390E-16
  -8.28000009E-02  -1.02002842E-15
  -7.07999989E-02  -1.06227990E-15
  -5.88000007E-02  -7.12551856E-16
  -4.67999987E-02   6.98641576E-17
  -3.48000005E-02   1.14084284E-15
  -2.28000004E-02   2.14633278E-15
  -1.08000003E-02   2.58367919E-15
   1.20000006E-03   1.95953131E-15
   1.31999999E-02   1.40812941E-17
   2.52000000E-02  -3.06114743E-15
   3.72000001E-02  -6.51065226E-15
   4.91999984E-02  -9.09774287E-15
   6.12000003E-02  -9.42211668E-15
   7.32000023E-02  -6.42600148E-15
   8.51999968E-02   5.21430008E-17
   9.71999988E-02   8.88416012E-15
  0.109200001       1.76294001E-14
  0.121200003       2.30115863E-14
  0.133200005       2.18679834E-14
  0.145199999       1.23536079E-14
  0.157199994      -4.97479941E-15
  0.169200003      -2.66280172E-14
  0.181199998      -4.65509419E-14
  0.193200007      -5.74939334E-14
  0.205200002      -5.31650055E-14
  0.217199996      -3.06115844E-14
  0.229200006       7.92603034E-15
  0.241200000       5.44372049E-14
  0.253199995       9.63212122E-14
  0.265199989       1.19327034E-13
  0.277200013       1.11680962E-13
  0.289200008       6.83339087E-14
  0.301200002      -5.98667005E-15
  0.313199997      -9.61119205E-14
  0.325199991      -1.78830122E-13
  0.337199986      -2.28211710E-13
  0.349200010      -2.22810973E-13
  0.361200005      -1.52938683E-13
  0.373199999      -2.58503512E-14
  0.385199994       1.33081575E-13
  0.397199988       2.84314645E-13
  0.409200013       3.83007943E-13
  0.421200007       3.91147753E-13
  0.433200002       2.89991691E-13
  0.445199996       8.92384175E-14
  0.457199991      -1.70409937E-13
  0.469199985      -4.23350835E-13
  0.481200010      -5.93775463E-13
  0.493200004      -6.16331530E-13
  0.505200028      -4.57827136E-13
  0.517199993      -1.33705614E-13
  0.529200017       2.86740819E-13
  0.541199982       6.90371100E-13
  0.553200006       9.45642544E-13
  0.565199971       9.39149474E-13
  0.577199996       6.14614479E-13
  0.589200020       3.09281163E-15
  0.601199985      -7.66628026E-13
  0.613200009      -1.48486887E-12
  0.625199974      -1.90600595E-12
  0.637199998      -1.81421479E-12
  0.649200022      -1.09503476E-12
  0.661199987       2.06942116E-13
  0.673200011       1.86381206E-12
  0.685199976       3.48717171E-12
  0.697200000       4.60072432E-12
  0.709200025       4.75181353E-12
  0.721199989       3.63826981E-12
  0.733200014       1.21891017E-12
  0.745199978      -2.22438777E-12
  0.757200003      -6.09663839E-12
  0.769200027      -9.57929916E-12
  0.781199992      -1.17869924E-11
  0.793200016      -1.19601291E-11
  0.805199981      -9.64993710E-12
  0.817200005      -4.85074654E-12
  0.829200029       1.95538355E-12
  0.841199994       9.85644552E-12
  0.853200018       1.76603853E-11
  0.865199983       2.41037103E-11
  0.877200007       2.80707662E-11
  0.889199972       2.87742278E-11
  0.901199996       2.58598941E-11
  0.913200021       1.94222138E-11
  0.925199986       9.94456253E-12
  0.937200010      -1.79815657E-12
  0.949199975      -1.48246623E-11
  0.961199999      -2.79728185E-11
  0.973200023      -3.98351803E-11
  0.985199988      -4.85993919E-11
  0.997200012      -5.18132065E-11
   1.00919998      -4.61079161E-11
   1.02119994      -2.69111192E-11
   1.03320003       1.18440882E-11
   1.04519999       7.80456394E-11
   1.05719995       1.81845580E-10
   1.06920004       3.36348838E-10
   1.08120000       5.58711577E-10
   1.09319997       8.71841932E-10
   1.10520005       1.30691746E-09
   1.11720002       1.90696903E-09
   1.12919998       2.73184608E-09
   1.14119995       3.86500831E-09
   1.15320003       5.42279377E-09
   1.16520000       7.56709539E-09
   1.17719996       1.05227560E-08
   1.18920004       1.46014294E-08
   1.20120001       2.02341113E-08
   1.21319997       2.80149539E-08
   1.22520006       3.87593460E-08
   1.23720002       5.35793951E-08
   1.24919999       7.39799901E-08
   1.26119995       1.01978202E-07
   1.27320004       1.40248190E-07
   1.28520000       1.92292916E-07
   1.29719996       2.62642061E-07
   1.30920005       3.57073958E-07
   1.32120001       4.82857047E-07
   1.33319998       6.49002970E-07
   1.34519994       8.66521418E-07
   1.35720003       1.14866225E-06
   1.36919999       1.51112829E-06
   1.38119996       1.97223881E-06
   1.39320004       2.55302189E-06
   1.40520000       3.27721318E-06
   1.41719997       4.17113688E-06
   1.42920005       5.26344866E-06
   1.44120002       6.58472709E-06
   1.45319998       8.16689681E-06
   1.46519995       1.00424832E-05
   1.47720003       1.22437050E-05
   1.48920000       1.48014215E-05
   1.50119996       1.77439615E-05
   1.51320004       2.10958697E-05
   1.52520001       2.48766355E-05
   1.53719997       2.90994321E-05
   1.54920006       3.37699712E-05
   1.56120002       3.88854896E-05
   1.57319999       4.44339894E-05
   1.58519995       5.03937445E-05
   1.59720004       5.67331408E-05
   1.60920000       6.34109238E-05
   1.62119997       7.03767655E-05
   1.63320005       7.75723092E-05
   1.64520001       8.49325079E-05
   1.65719998       9.23873522E-05
   1.66919994       9.98637552E-05
   1.68120003       1.07287742E-04
   1.69319999       1.14586575E-04
   1.70519996       1.21690930E-04
   1.71720004       1.28536907E-04
   1.72920001       1.35067865E-04
   1.74119997       1.41235781E-04
   1.75320005       1.47002400E-04
   1.76520002       1.52339810E-04
   1.77719998       1.57230577E-04
   1.78919995       1.61667529E-04
   1.80120003       1.65652964E-04
   1.81320000       1.69197679E-04
   1.82519996       1.72319633E-04
   1.83720005       1.75042471E-04
   1.84920001       1.77393915E-04
   1.86119998       1.79404407E-04
   1.87320006       1.81105628E-04
   1.88520002       1.82529402E-04
   1.89719999       1.83706841E-04
   1.90919995       1.84667791E-04
   1.92120004       1.85440498E-04
   1.93320000       1.86051708E-04
   1.94519997       1.86526799E-04
   1.95720005       1.86890320E-04
   1.96920002       1.87166297E-04
   1.98119998       1.87378813E-04
   1.99319994       1.87552345E-04
   2.00519991       1.87711979E-04
   2.01719999       1.87883503E-04
   2.02920008       1.88093167E-04
   2.04119992       1.88367267E-04
   2.05320001       1.88731588E-04
   2.06520009       1.89210608E-04
   2.07719994       1.89826751E-04
   2.08920002       1.90599458E-04
   2.10120010       1.91544459E-04
   2.11319995       1.92673178E-04
   2.12520003       1.93992208E-04
   2.13720012       1.95503191E-04
   2.14919996       1.97202840E-04
   2.16120005       1.99083195E-04
   2.17319989       2.01132192E-04
   2.18519998       2.03334377E-04
   2.19720006       2.05671633E-04
   2.20919991       2.08124053E-04
   2.22119999       2.10670798E-04
   2.23320007       2.13290754E-04
   2.24519992       2.15963184E-04
   2.25720000       2.18668065E-04
   2.26920009       2.21386304E-04
   2.28119993       2.24099771E-04
   2.29320002       2.26791133E-04
   2.30520010       2.29443540E-04
   2.31719995       2.32040387E-04
   2.32920003       2.34564883E-04
   2.34120011       2.36999811E-04
   2.35319996       2.39327506E-04
   2.36520004       2.41529779E-04
   2.37719989       2.43588409E-04
   2.38919997       2.45485600E-04
   2.40120006       2.47204880E-04
   2.41319990       2.48732074E-04
   2.42519999       2.50056764E-04
   2.43720007       2.51173566E-04
   2.44919991       2.52083526E-04
   2.46120000       2.52795668E-04
   2.47320008       2.53328035E-04
   2.48519993       2.53708829E-04
   2.49720001       2.53976788E-04
   2.50920010       2.54181476E-04
   2.52119994       2.54382496E-04
   2.53320003       2.54648534E-04
   2.54520011       2.55055435E-04
   2.55719995       2.55683670E-04
   2.56920004       2.56615109E-04
   2.58119988       2.57929205E-04
   2.59319997       2.59698951E-04
   2.60520005       2.61985988E-04
   2.61719990       2.64836184E-04
   2.62919998       2.68274947E-04
   2.64120007       2.72303034E-04
   2.65319991       2.76892912E-04
   2.66520000       2.81985966E-04
   2.67720008       2.87490868E-04
   2.68919992       2.93282879E-04
   2.70120001       2.99205101E-04
   2.71320009       3.05070425E-04
   2.72519994       3.10665899E-04
   2.73720002       3.15757672E-04
   2.74920011       3.20097752E-04
   2.76119995       3.23431683E-04
   2.77320004       3.25507019E-04
   2.78520012       3.26082227E-04
   2.79719996       3.24935972E-04
   2.80920005       3.21875879E-04
   2.82119989       3.16746649E-04
   2.83319998       3.09437397E-04
   2.84520006       2.99887412E-04
   2.85719991       2.88090232E-04
   2.86919999       2.74096063E-04
   2.88120008       2.58012238E-04
   2.89319992       2.40001289E-04
   2.90520000       2.20277405E-04
   2.91720009       1.99100788E-04
   2.92919993       1.76770438E-04
   2.94120002       1.53615591E-04
   2.95320010       1.29986001E-04
   2.96519995       1.06241772E-04
   2.97720003       8.27427575E-05
   2.98920012       5.98383158E-05
   3.00119996       3.78575569E-05
   3.01320004       1.71005959E-05
   3.02519989      -2.16894318E-06
   3.03719997      -1.97298759E-05
   3.04920006      -3.54077274E-05
   3.06119990      -4.90771708E-05
   3.07319999      -6.06627073E-05
   3.08520007      -7.01375975E-05
   3.09719992      -7.75212029E-05
   3.10920000      -8.28749689E-05
   3.12120008      -8.62973684E-05
   3.13319993      -8.79179279E-05
   3.14520001      -8.78908904E-05
   3.15720010      -8.63886526E-05
   3.16919994      -8.35952815E-05
   3.18120003      -7.97005050E-05
   3.19320011      -7.48941748E-05
   3.20519996      -6.93615584E-05
   3.21720004      -6.32793963E-05
   3.22919989      -5.68128889E-05
   3.24119997      -5.01135146E-05
   3.25320005      -4.33176174E-05
   3.26519990      -3.65457272E-05
   3.27719998      -2.99024559E-05
   3.28920007      -2.34768158E-05
   3.30119991      -1.73428671E-05
   3.31320000      -1.15605699E-05
   3.32520008      -6.17673595E-06
   3.33719993      -1.22600136E-06
   3.34920001       3.26819941E-06
   3.36120009       7.29271596E-06
   3.37319994       1.08437962E-05
   3.38520002       1.39262347E-05
   3.39720011       1.65525216E-05
   3.40919995       1.87420010E-05
   3.42120004       2.05200013E-05
   3.43319988       2.19169233E-05
   3.44519997       2.29673224E-05
   3.45720005       2.37089971E-05
   3.46919990       2.41820708E-05
   3.48119998       2.44281528E-05
   3.49320006       2.44895782E-05
   3.50519991       2.44087514E-05
   3.51719999       2.42276164E-05
   3.52920008       2.39872497E-05
   3.54119992       2.37275599E-05
   3.55320001       2.34870604E-05
   3.56520009       2.33026822E-05
   3.57719994       2.32095426E-05
   3.58920002       2.32406710E-05
   3.60120010       2.34265790E-05
   3.61319995       2.37947188E-05
   3.62520003       2.43687427E-05
   3.63720012       2.51676647E-05
   3.64919996       2.62048634E-05
   3.66120005       2.74870981E-05
   3.67319989       2.90135358E-05
   3.68519998       3.07749615E-05
   3.69720006       3.27531925E-05
   3.70919991       3.49209004E-05
   3.72119999       3.72417962E-05
   3.73320007       3.96713658E-05
   3.74519992       4.21580589E-05
   3.75720000       4.46449958E-05
   3.76920009       4.70721134E-05
   3.78119993       4.93786501E-05
   3.79320002       5.15058819E-05
   3.80520010       5.33998864E-05
   3.81719995       5.50142977E-05
   3.82920003       5.63127905E-05
   3.84120011       5.72711324E-05
   3.85319996       5.78787840E-05
   3.86520004       5.81397908E-05
   3.87719989       5.80730411E-05
   3.88919997       5.77117426E-05
   3.90120006       5.71021992E-05
   3.91319990       5.63019385E-05
   3.92519999       5.53772734E-05
   3.93720007       5.44004142E-05
   3.94919991       5.34462779E-05
   3.96120000       5.25891919E-05
   3.97320008       5.18995876E-05
   3.98519993       5.14409439E-05
   3.99720001       5.12670049E-05
   4.00920010       5.14194871E-05
   4.02120018       5.19263522E-05
   4.03319979       5.28006822E-05
   4.04519987       5.40402143E-05
   4.05719995       5.56275736E-05
   4.06920004       5.75310587E-05
   4.08120012       5.97060971E-05
   4.09320021       6.20971259E-05
   4.10519981       6.46398912E-05
   4.11719990       6.72640526E-05
   4.12919998       6.98959193E-05
   4.14120007       7.24612619E-05
   4.15320015       7.48880702E-05
   4.16520023       7.71090781E-05
   4.17719984       7.90641716E-05
   4.18919992       8.07023171E-05
   4.20120001       8.19832203E-05
   4.21320009       8.28785342E-05
   4.22520018       8.33726517E-05
   4.23719978       8.34630555E-05
   4.24919987       8.31602447E-05
   4.26119995       8.24873059E-05
   4.27320004       8.14790401E-05
   4.28520012       8.01808710E-05
   4.29720020       7.86473320E-05
   4.30919981       7.69403705E-05
   4.32119989       7.51274056E-05
   4.33319998       7.32792396E-05
   4.34520006       7.14677881E-05
   4.35720015       6.97637442E-05
   4.36920023       6.82342652E-05
   4.38119984       6.69405636E-05
   4.39319992       6.59357684E-05
   4.40520000       6.52628369E-05
   4.41720009       6.49528156E-05
   4.42920017       6.50234215E-05
   4.44119978       6.54780670E-05
   4.45319986       6.63054670E-05
   4.46519995       6.74797702E-05
   4.47720003       6.89613953E-05
   4.48920012       7.06984283E-05
   4.50120020       7.26287981E-05
   4.51319981       7.46828227E-05
   4.52519989       7.67863821E-05
   4.53719997       7.88643156E-05
   4.54920006       8.08440600E-05
   4.56120014       8.26591568E-05
   4.57320023       8.42525915E-05
   4.58519983       8.55796534E-05
   4.59719992       8.66102127E-05
   4.60920000       8.73301396E-05
   4.62120008       8.77419006E-05
   4.63320017       8.78642022E-05
   4.64519978       8.77305793E-05
   4.65719986       8.73872777E-05
   4.66919994       8.68902134E-05
   4.68120003       8.63014429E-05
   4.69320011       8.56852203E-05
   4.70520020       8.51040168E-05
   4.71719980       8.46146140E-05
   4.72919989       8.42646114E-05
   4.74119997       8.40896100E-05
   4.75320005       8.41111541E-05
   4.76520014       8.43355956E-05
   4.77720022       8.47539777E-05
   4.78919983       8.53428719E-05
   4.80119991       8.60661312E-05
   4.81320000       8.68774441E-05
   4.82520008       8.77233761E-05
   4.83720016       8.85468908E-05
   4.84919977       8.92909447E-05
   4.86119986       8.99019287E-05
   4.87319994       9.03328691E-05
   4.88520002       9.05460038E-05
   4.89720011       9.05147244E-05
   4.90920019       9.02247193E-05
   4.92119980       8.96743222E-05
   4.93319988       8.88740688E-05
   4.94519997       8.78454739E-05
   4.95720005       8.66193004E-05
   4.96920013       8.52332960E-05
   4.98120022       8.37296975E-05
   4.99319983       8.21526482E-05
   5.00519991       8.05456730E-05
   5.01719999       7.89494297E-05
   5.02920008       7.73998327E-05
   5.04120016       7.59266259E-05
   5.05319977       7.45525758E-05
   5.06519985       7.32931003E-05
   5.07719994       7.21565375E-05
   5.08920002       7.11448156E-05
   5.10120010       7.02545003E-05
   5.11320019       6.94781920E-05
   5.12519979       6.88059517E-05
   5.13719988       6.82268437E-05
   5.14919996       6.77302887E-05
   5.16120005       6.73072354E-05
   5.17320013       6.69510482E-05
   5.18520021       6.66580090E-05
   5.19719982       6.64274048E-05
   5.20919991       6.62613165E-05
   5.22119999       6.61639933E-05
   5.23320007       6.61409576E-05
   5.24520016       6.61979429E-05
   5.25719976       6.63397150E-05
   5.26919985       6.65689149E-05
   5.28119993       6.68849825E-05
   5.29320002       6.72833194E-05
   5.30520010       6.77547723E-05
   5.31720018       6.82853206E-05
   5.32919979       6.88563014E-05
   5.34119987       6.94448536E-05
   5.35319996       7.00248202E-05
   5.36520004       7.05678467E-05
   5.37720013       7.10447566E-05
   5.38920021       7.14270645E-05
   5.40119982       7.16884460E-05
   5.41319990       7.18062875E-05
   5.42519999       7.17629227E-05
   5.43720007       7.15468123E-05
   5.44920015       7.11532921E-05
   5.46120024       7.05850762E-05
   5.47319984       6.98523509E-05
   5.48519993       6.89725639E-05
   5.49720001       6.79698569E-05
   5.50920010       6.68741923E-05
   5.52120018       6.57202618E-05
   5.53319979       6.45462133E-05
   5.54519987       6.33922682E-05
   5.55719995       6.22993030E-05
   5.56920004       6.13074226E-05
   5.58120012       6.04546804E-05
   5.59320021       5.97758590E-05
   5.60519981       5.93014702E-05
   5.61719990       5.90568852E-05
   5.62919998       5.90617310E-05
   5.64120007       5.93294135E-05
   5.65320015       5.98668848E-05
   5.66520023       6.06745416E-05
   5.67719984       6.17463156E-05
   5.68919992       6.30698560E-05
   5.70120001       6.46268527E-05
   5.71320009       6.63934188E-05
   5.72520018       6.83406033E-05
   5.73719978       7.04349659E-05
   5.74919987       7.26391736E-05
   5.76119995       7.49127576E-05
   5.77320004       7.72129133E-05
   5.78520012       7.94953812E-05
   5.79720020       8.17154214E-05
   5.80919981       8.38289416E-05
   5.82119989       8.57935374E-05
   5.83319998       8.75697806E-05
   5.84520006       8.91223390E-05
   5.85720015       9.04211483E-05
   5.86920023       9.14424672E-05
   5.88119984       9.21698011E-05
   5.89319992       9.25945205E-05
   5.90520000       9.27163273E-05
   5.91720009       9.25433342E-05
   5.92920017       9.20917810E-05
   5.94119978       9.13855038E-05
   5.95319986       9.04549161E-05
   5.96519995       8.93358956E-05
   5.97720003       8.80682419E-05
   5.98920012       8.66941336E-05
   6.00120020       8.52564553E-05
   6.01319981       8.37972111E-05
   6.02519989       8.23560258E-05
   6.03719997       8.09688863E-05
   6.04920006       7.96671811E-05
   6.06120014       7.84770382E-05
   6.07320023       7.74189975E-05
   6.08519983       7.65080549E-05
   6.09719992       7.57539383E-05
   6.10920000       7.51615880E-05
   6.12120008       7.47318554E-05
   6.13320017       7.44621575E-05
   6.14519978       7.43472192E-05
   6.15719986       7.43795681E-05
   6.16919994       7.45499856E-05
   6.18120003       7.48477396E-05
   6.19320011       7.52605629E-05
   6.20520020       7.57745584E-05
   6.21719980       7.63738353E-05
   6.22919989       7.70402403E-05
   6.24119997       7.77529640E-05
   6.25320005       7.84883232E-05
   6.26520014       7.92196879E-05
   6.27720022       7.99176196E-05
   6.28919983       8.05503514E-05
   6.30119991       8.10845595E-05
   6.31320000       8.14863452E-05
   6.32520008       8.17226173E-05
   6.33720016       8.17625623E-05
   6.34919977       8.15792810E-05
   6.36119986       8.11513964E-05
   6.37319994       8.04645606E-05
   6.38520002       7.95127635E-05
   6.39720011       7.82993011E-05
   6.40920019       7.68373357E-05
   6.42119980       7.51500193E-05
   6.43319988       7.32701301E-05
   6.44519997       7.12391920E-05
   6.45720005       6.91062087E-05
   6.46920013       6.69259171E-05
   6.48120022       6.47568886E-05
   6.49319983       6.26592737E-05
   6.50519991       6.06925787E-05
   6.51719999       5.89134143E-05
   6.52920008       5.73734069E-05
   6.54120016       5.61173110E-05
   6.55319977       5.51814883E-05
   6.56519985       5.45926850E-05
   6.57719994       5.43672977E-05
   6.58920002       5.45109797E-05
   6.60120010       5.50187069E-05
   6.61320019       5.58751963E-05
   6.62519979       5.70556476E-05
   6.63719988       5.85267990E-05
   6.64919996       6.02481377E-05
   6.66120005       6.21732761E-05
   6.67320013       6.42514351E-05
   6.68520021       6.64289473E-05
   6.69719982       6.86507556E-05
   6.70919991       7.08618536E-05
   6.72119999       7.30086613E-05
   6.73320007       7.50402833E-05
   6.74520016       7.69097387E-05
   6.75719976       7.85749289E-05
   6.76919985       7.99996633E-05
   6.78119993       8.11543505E-05
   6.79320002       8.20167261E-05
   6.80520010       8.25722309E-05
   6.81720018       8.28144111E-05
   6.82919979       8.27449694E-05
   6.84119987       8.23736700E-05
   6.85319996       8.17179825E-05
   6.86520004       8.08025507E-05
   6.87720013       7.96583554E-05
   6.88920021       7.83217183E-05
   6.90119982       7.68331010E-05
   6.91319990       7.52357300E-05
   6.92519999       7.35741633E-05
   6.93720007       7.18928131E-05
   6.94920015       7.02345351E-05
   6.96120024       6.86392887E-05
   6.97319984       6.71430607E-05
   6.98519993       6.57769488E-05
   6.99720001       6.45666805E-05
   7.00920010       6.35322795E-05
   7.02120018       6.26882102E-05
   7.03319979       6.20437495E-05
   7.04519987       6.16036123E-05
   7.05719995       6.13687880E-05
   7.06920004       6.13374868E-05
   7.08120012       6.15061144E-05
   7.09320021       6.18701524E-05
   7.10519981       6.24249296E-05
   7.11719990       6.31661533E-05
   7.12919998       6.40901708E-05
   7.14120007       6.51939627E-05
   7.15320015       6.64747931E-05
   7.16520023       6.79297082E-05
   7.17719984       6.95546987E-05
   7.18919992       7.13438494E-05
   7.20120001       7.32883054E-05
   7.21320009       7.53754575E-05
   7.22520018       7.75881053E-05
   7.23719978       7.99038971E-05
   7.24919987       8.22950678E-05
   7.26119995       8.47284682E-05
   7.27320004       8.71659722E-05
   7.28520012       8.95651829E-05
   7.29720020       9.18805308E-05
   7.30919981       9.40645332E-05
   7.32119989       9.60694015E-05
   7.33319998       9.78486423E-05
   7.34520006       9.93588255E-05
   7.35720015       1.00561228E-04
   7.36920023       1.01423379E-04
   7.38119984       1.01920406E-04
   7.39319992       1.02036131E-04
   7.40520000       1.01763791E-04
   7.41720009       1.01106467E-04
   7.42920017       1.00077159E-04
   7.44119978       9.86984087E-05
   7.45319986       9.70016845E-05
   7.46519995       9.50264221E-05
   7.47720003       9.28187656E-05
   7.48920012       9.04301269E-05
   7.50120020       8.79155705E-05
   7.51319981       8.53321253E-05
   7.52519989       8.27370168E-05
   7.53719997       8.01859642E-05
   7.54920006       7.77315727E-05
   7.56120014       7.54217908E-05
   7.57320023       7.32986664E-05
   7.58519983       7.13972258E-05
   7.59719992       6.97447103E-05
   7.60920000       6.83600592E-05
   7.62120008       6.72536989E-05
   7.63320017       6.64276304E-05
   7.64519978       6.58758654E-05
   7.65719986       6.55850599E-05
   7.66919994       6.55354816E-05
   7.68120003       6.57020937E-05
   7.69320011       6.60558289E-05
   7.70520020       6.65650077E-05
   7.71719980       6.71967136E-05
   7.72919989       6.79182122E-05
   7.74119997       6.86982530E-05
   7.75320005       6.95082927E-05
   7.76520014       7.03234473E-05
   7.77720022       7.11233515E-05
   7.78919983       7.18926531E-05
   7.80119991       7.26213402E-05
   7.81320000       7.33047418E-05
   7.82520008       7.39432653E-05
   7.83720016       7.45419457E-05
   7.84919977       7.51097323E-05
   7.86119986       7.56586160E-05
   7.87319994       7.62026539E-05
   7.88520002       7.67568781E-05
   7.89720011       7.73362262E-05
   7.90920019       7.79544935E-05
   7.92119980       7.86233359E-05
   7.93319988       7.93514409E-05
   7.94519997       8.01438437E-05
   7.95720005       8.10014390E-05
   7.96920013       8.19207271E-05
   7.98120022       8.28937846E-05
   7.99319983       8.39084387E-05
   8.00520039       8.49487042E-05
   8.01720047       8.59953943E-05
   8.02919960       8.70269141E-05
   8.04119968       8.80202570E-05
   8.05319977       8.89519506E-05
   8.06519985       8.97992359E-05
   8.07719994       9.05411143E-05
   8.08920002       9.11594252E-05
   8.10120010       9.16397985E-05
   8.11320019       9.19724553E-05
   8.12520027       9.21528408E-05
   8.13720036       9.21820174E-05
   8.14920044       9.20668172E-05
   8.16119957       9.18197038E-05
   8.17319965       9.14583579E-05
   8.18519974       9.10050148E-05
   8.19719982       9.04855260E-05
   8.20919991       8.99282313E-05
   8.22119999       8.93626202E-05
   8.23320007       8.88179202E-05
   8.24520016       8.83215980E-05
   8.25720024       8.78979336E-05
   8.26920033       8.75666519E-05
   8.28120041       8.73417375E-05
   8.29319954       8.72304663E-05
   8.30519962       8.72327801E-05
   8.31719971       8.73409153E-05
   8.32919979       8.75394981E-05
   8.34119987       8.78059145E-05
   8.35319996       8.81111337E-05
   8.36520004       8.84208130E-05
   8.37720013       8.86967391E-05
   8.38920021       8.88984141E-05
   8.40120029       8.89849107E-05
   8.41320038       8.89166477E-05
   8.42520046       8.86572452E-05
   8.43719959       8.81752130E-05
   8.44919968       8.74454636E-05
   8.46119976       8.64505710E-05
   8.47319984       8.51816440E-05
   8.48519993       8.36389881E-05
   8.49720001       8.18322369E-05
   8.50920010       7.97803004E-05
   8.52120018       7.75107692E-05
   8.53320026       7.50592371E-05
   8.54520035       7.24680867E-05
   8.55720043       6.97853247E-05
   8.56919956       6.70630252E-05
   8.58119965       6.43558378E-05
   8.59319973       6.17193000E-05
   8.60519981       5.92082506E-05
   8.61719990       5.68752293E-05
   8.62919998       5.47689706E-05
   8.64120007       5.29330100E-05
   8.65320015       5.14044586E-05
   8.66520023       5.02129369E-05
   8.67720032       4.93797379E-05
   8.68920040       4.89172235E-05
   8.70119953       4.88284641E-05
   8.71319962       4.91071805E-05
   8.72519970       4.97379806E-05
   8.73719978       5.06968972E-05
   8.74919987       5.19522255E-05
   8.76119995       5.34656392E-05
   8.77320004       5.51935627E-05
   8.78520012       5.70887387E-05
   8.79720020       5.91019234E-05
   8.80920029       6.11836585E-05
   8.82120037       6.32860101E-05
   8.83320045       6.53642055E-05
   8.84519958       6.73780960E-05
   8.85719967       6.92933172E-05
   8.86919975       7.10821914E-05
   8.88119984       7.27241932E-05
   8.89319992       7.42060656E-05
   8.90520000       7.55216097E-05
   8.91720009       7.66710291E-05
   8.92920017       7.76600718E-05
   8.94120026       7.84988952E-05
   8.95320034       7.92008141E-05
   8.96520042       7.97810790E-05
   8.97719955       8.02555805E-05
   8.98919964       8.06398311E-05
   9.00119972       8.09481135E-05
   9.01319981       8.11928694E-05
   9.02519989       8.13844599E-05
   9.03719997       8.15310996E-05
   9.04920006       8.16391985E-05
   9.06120014       8.17137552E-05
   9.07320023       8.17590044E-05
   9.08520031       8.17790278E-05
   9.09720039       8.17783948E-05
   9.10919952       8.17626787E-05
   9.12119961       8.17388063E-05
   9.13319969       8.17151304E-05
   9.14519978       8.17013861E-05
   9.15719986       8.17082837E-05
   9.16919994       8.17469409E-05
   9.18120003       8.18281260E-05
   9.19320011       8.19613342E-05
   9.20520020       8.21538779E-05
   9.21720028       8.24099407E-05
   9.22920036       8.27298136E-05
   9.24120045       8.31092111E-05
   9.25319958       8.35389146E-05
   9.26519966       8.40046850E-05
   9.27719975       8.44874303E-05
   9.28919983       8.49637872E-05
   9.30119991       8.54069731E-05
   9.31320000       8.57878476E-05
   9.32520008       8.60762884E-05
   9.33720016       8.62426241E-05
   9.34920025       8.62592278E-05
   9.36120033       8.61019653E-05
   9.37320042       8.57517152E-05
   9.38519955       8.51955410E-05
   9.39719963       8.44277383E-05
   9.40919971       8.34505117E-05
   9.42119980       8.22743532E-05
   9.43319988       8.09179692E-05
   9.44519997       7.94078660E-05
