 -0.622799993         9.99999921E-25
 -0.610800028         9.99999921E-25
 -0.598800004         9.99999921E-25
 -0.586799979         9.99999921E-25
 -0.574800014         9.99999921E-25
 -0.562799990         9.99999921E-25
 -0.550800025         9.36208487E-25
 -0.538800001        -4.30715497E-26
 -0.526799977        -7.08912929E-24
 -0.514800012        -3.98004056E-23
 -0.502799988        -1.51255054E-22
 -0.490799993        -4.49175531E-22
 -0.478799999        -1.09832016E-21
 -0.466800004        -2.27841770E-21
 -0.454800010        -4.09723358E-21
 -0.442799985        -6.51741057E-21
 -0.430799991        -9.40965687E-21
 -0.418799996        -1.28162968E-20
 -0.406800002        -1.73411646E-20
 -0.394800007        -2.43301445E-20
 -0.382800013        -3.53876009E-20
 -0.370799989        -5.10696819E-20
 -0.358799994        -6.93998912E-20
 -0.346799999        -8.57940164E-20
 -0.334800005        -9.61948109E-20
 -0.322800010        -1.03788045E-19
 -0.310799986        -1.26498779E-19
 -0.298799992        -1.99020780E-19
 -0.286799997        -3.62353912E-19
 -0.274800003        -6.38612798E-19
 -0.262800008        -9.99521625E-19
 -0.250800014        -1.34906623E-18
 -0.238800004        -1.54538411E-18
 -0.226799995        -1.47506724E-18
 -0.214800000        -1.16243288E-18
 -0.202800006        -8.57811162E-19
 -0.190799996        -1.02635971E-18
 -0.178800002        -2.17924413E-18
 -0.166800007        -4.56419071E-18
 -0.154799998        -7.84178470E-18
 -0.142800003        -1.09604062E-17
 -0.130799994        -1.24324477E-17
 -0.118799999        -1.10594073E-17
 -0.106799997        -6.87838647E-18
  -9.48000029E-02    -1.82769940E-18
  -8.28000009E-02     4.60986515E-19
  -7.07999989E-02    -3.91651491E-18
  -5.88000007E-02    -1.67745925E-17
  -4.67999987E-02    -3.55617485E-17
  -3.48000005E-02    -5.26844435E-17
  -2.28000004E-02    -5.77088642E-17
  -1.08000003E-02    -4.25450918E-17
   1.20000006E-03    -7.87786467E-18
   1.31999999E-02     3.25753023E-17
   2.52000000E-02     5.37953570E-17
   3.72000001E-02     2.92279108E-17
   4.91999984E-02    -5.32880008E-17
   6.12000003E-02    -1.76032094E-16
   7.32000023E-02    -2.86042312E-16
   8.51999968E-02    -3.08367638E-16
   9.71999988E-02    -1.79590493E-16
  0.109200001         1.07853499E-16
  0.121200003         4.71031528E-16
  0.133200005         7.36511718E-16
  0.145199999         6.92376537E-16
  0.157199994         1.88668820E-16
  0.169200003        -7.46051056E-16
  0.181199998        -1.82856372E-15
  0.193200007        -2.54624308E-15
  0.205200002        -2.31829953E-15
  0.217199996        -7.71026404E-16
  0.229200006         1.96484814E-15
  0.241200000         5.07905646E-15
  0.253199995         7.17383459E-15
  0.265199989         6.69503735E-15
  0.277200013         2.63457062E-15
  0.289200008        -4.72689447E-15
  0.301200002        -1.33833349E-14
  0.313199997        -1.98117889E-14
  0.325199991        -1.99904638E-14
  0.337199986        -1.10712390E-14
  0.349200010         6.81679792E-15
  0.361200005         2.94165903E-14
  0.373199999         4.86217918E-14
  0.385199994         5.45951562E-14
  0.397199988         3.94541848E-14
  0.409200013         1.45360415E-15
  0.421200007        -5.19992612E-14
  0.433200002        -1.04216921E-13
  0.445199996        -1.33034425E-13
  0.457199991        -1.18232423E-13
  0.469199985        -5.06218636E-14
  0.481200010         6.04957843E-14
  0.493200004         1.85120948E-13
  0.505200028         2.78146728E-13
  0.517199993         2.92829237E-13
  0.529200017         1.99002110E-13
  0.541199982         5.54274769E-17
  0.553200006        -2.58502340E-13
  0.565199971        -4.94701990E-13
  0.577199996        -6.11707462E-13
  0.589200020        -5.31202307E-13
  0.601199985        -2.28683825E-13
  0.613200009         2.42542694E-13
  0.625199974         7.50864973E-13
  0.637199998         1.11555806E-12
  0.649200022         1.16202772E-12
  0.661199987         7.88670507E-13
  0.673200011         2.31023730E-14
  0.685199976        -9.55706000E-13
  0.697200000        -1.84553783E-12
  0.709200025        -2.30053303E-12
  0.721199989        -2.04497031E-12
  0.733200014        -9.87815624E-13
  0.745199978         7.02625891E-13
  0.757200003         2.59866521E-12
  0.769200027         4.10299485E-12
  0.781199992         4.61491912E-12
  0.793200016         3.73069154E-12
  0.805199981         1.41628202E-12
  0.817200005        -1.91029527E-12
  0.829200029        -5.42976471E-12
  0.841199994        -8.11019828E-12
  0.853200018        -8.99302334E-12
  0.865199983        -7.49804992E-12
  0.877200007        -3.65237268E-12
  0.889199972         1.83916857E-12
  0.901199996         7.72255784E-12
  0.913200021         1.25028885E-11
  0.925199986         1.48530962E-11
  0.937200010         1.40040375E-11
  0.949199975         9.99244611E-12
  0.961199999         3.67921318E-12
  0.973200023        -3.48179016E-12
  0.985199988        -9.86445561E-12
  0.997200012        -1.41551597E-11
   1.00919998        -1.57470963E-11
   1.02119994        -1.49104964E-11
   1.03320003        -1.26716181E-11
   1.04519999        -1.04266292E-11
   1.05719995        -9.40723367E-12
   1.06920004        -1.01719614E-11
   1.08120000        -1.23004202E-11
   1.09319997        -1.44125371E-11
   1.10520005        -1.45374728E-11
   1.11720002        -1.07461965E-11
   1.12919998        -1.87721106E-12
   1.14119995         1.18475681E-11
   1.15320003         2.84835298E-11
   1.16520000         4.43738345E-11
   1.17719996         5.44536777E-11
   1.18920004         5.26767727E-11
   1.20120001         3.23114036E-11
   1.21319997        -1.41433896E-11
   1.22520006        -9.56229332E-11
   1.23720002        -2.23818630E-10
   1.24919999        -4.15125795E-10
   1.26119995        -6.93089863E-10
   1.27320004        -1.09119003E-09
   1.28520000        -1.65591174E-09
   1.29719996        -2.45017961E-09
   1.30920005        -3.55751162E-09
   1.32120001        -5.08755482E-09
   1.33319998        -7.18400317E-09
   1.34519994        -1.00363247E-08
   1.35720003        -1.38970426E-08
   1.36919999        -1.91067500E-08
   1.38119996        -2.61293760E-08
   1.39320004        -3.56004968E-08
   1.40520000        -4.83916693E-08
   1.41719997        -6.56939605E-08
   1.42920005        -8.91233114E-08
   1.44120002        -1.20849919E-07
   1.45319998        -1.63753569E-07
   1.46519995        -2.21603457E-07
   1.47720003        -2.99262751E-07
   1.48920000        -4.02911041E-07
   1.50119996        -5.40279984E-07
   1.51320004        -7.20890455E-07
   1.52520001        -9.56279223E-07
   1.53719997        -1.26019677E-06
   1.54920006        -1.64875746E-06
   1.56120002        -2.14052375E-06
   1.57319999        -2.75649427E-06
   1.58519995        -3.51997892E-06
   1.59720004        -4.45633987E-06
   1.60920000        -5.59257433E-06
   1.62119997        -6.95673862E-06
   1.63320005        -8.57719806E-06
   1.64520001        -1.04817154E-05
   1.65719998        -1.26963942E-05
   1.66919994        -1.52444909E-05
   1.68120003        -1.81451542E-05
   1.69319999        -2.14121155E-05
   1.70519996        -2.50524045E-05
   1.71720004        -2.90651496E-05
   1.72920001        -3.34405195E-05
   1.74119997        -3.81588834E-05
   1.75320005        -4.31902372E-05
   1.76520002        -4.84939956E-05
   1.77719998        -5.40191322E-05
   1.78919995        -5.97047219E-05
   1.80120003        -6.54809410E-05
   1.81320000        -7.12704641E-05
   1.82519996        -7.69901962E-05
   1.83720005        -8.25534153E-05
   1.84920001        -8.78720748E-05
   1.86119998        -9.28593508E-05
   1.87320006        -9.74322029E-05
   1.88520002        -1.01513870E-04
   1.89719999        -1.05036292E-04
   1.90919995        -1.07942207E-04
   1.92120004        -1.10186869E-04
   1.93320000        -1.11739442E-04
   1.94519997        -1.12583817E-04
   1.95720005        -1.12718983E-04
   1.96920002        -1.12158828E-04
   1.98119998        -1.10931498E-04
   1.99319994        -1.09078246E-04
   2.00519991        -1.06651954E-04
   2.01719999        -1.03715254E-04
   2.02920008        -1.00338504E-04
   2.04119992        -9.65976287E-05
   2.05320001        -9.25718705E-05
   2.06520009        -8.83416942E-05
   2.07719994        -8.39867062E-05
   2.08920002        -7.95839078E-05
   2.10120010        -7.52060732E-05
   2.11319995        -7.09204323E-05
   2.12520003        -6.67876666E-05
   2.13720012        -6.28611160E-05
   2.14919996        -5.91863100E-05
   2.16120005        -5.58006395E-05
   2.17319989        -5.27333068E-05
   2.18519998        -5.00054120E-05
   2.19720006        -4.76301720E-05
   2.20919991        -4.56132766E-05
   2.22119999        -4.39533069E-05
   2.23320007        -4.26422739E-05
   2.24519992        -4.16662187E-05
   2.25720000        -4.10058601E-05
   2.26920009        -4.06373474E-05
   2.28119993        -4.05330320E-05
   2.29320002        -4.06623003E-05
   2.30520010        -4.09924760E-05
   2.31719995        -4.14896858E-05
   2.32920003        -4.21197838E-05
   2.34120011        -4.28492094E-05
   2.35319996        -4.36458249E-05
   2.36520004        -4.44796642E-05
   2.37719989        -4.53235771E-05
   2.38919997        -4.61537384E-05
   2.40120006        -4.69500446E-05
   2.41319990        -4.76963032E-05
   2.42519999        -4.83803196E-05
   2.43720007        -4.89937665E-05
   2.44919991        -4.95319509E-05
   2.46120000        -4.99934395E-05
   2.47320008        -5.03795709E-05
   2.48519993        -5.06939177E-05
   2.49720001        -5.09416714E-05
   2.50920010        -5.11290345E-05
   2.52119994        -5.12626284E-05
   2.53320003        -5.13489758E-05
   2.54520011        -5.13940031E-05
   2.55719995        -5.14026942E-05
   2.56920004        -5.13788073E-05
   2.58119988        -5.13247687E-05
   2.59319997        -5.12416300E-05
   2.60520005        -5.11292274E-05
   2.61719990        -5.09864221E-05
   2.62919998        -5.08115008E-05
   2.64120007        -5.06027027E-05
   2.65319991        -5.03587689E-05
   2.66520000        -5.00796814E-05
   2.67720008        -4.97673573E-05
   2.68919992        -4.94263841E-05
   2.70120001        -4.90647035E-05
   2.71320009        -4.86942299E-05
   2.72519994        -4.83313488E-05
   2.73720002        -4.79972077E-05
   2.74920011        -4.77178546E-05
   2.76119995        -4.75240558E-05
   2.77320004        -4.74509434E-05
   2.78520012        -4.75372726E-05
   2.79719996        -4.78244765E-05
   2.80920005        -4.83554104E-05
   2.82119989        -4.91728715E-05
   2.83319998        -5.03179108E-05
   2.84520006        -5.18280394E-05
   2.85719991        -5.37353299E-05
   2.86919999        -5.60645822E-05
   2.88120008        -5.88315706E-05
   2.89319992        -6.20414867E-05
   2.90520000        -6.56876582E-05
   2.91720009        -6.97506694E-05
   2.92919993        -7.41978001E-05
   2.94120002        -7.89830228E-05
   2.95320010        -8.40474750E-05
   2.96519995        -8.93203614E-05
   2.97720003        -9.47204244E-05
   2.98920012        -1.00157842E-04
   3.00119996        -1.05536485E-04
   3.01320004        -1.10756519E-04
   3.02519989        -1.15717237E-04
   3.03719997        -1.20320001E-04
   3.04920006        -1.24471131E-04
   3.06119990        -1.28084779E-04
   3.07319999        -1.31085471E-04
   3.08520007        -1.33410416E-04
   3.09719992        -1.35011273E-04
   3.10920000        -1.35855560E-04
   3.12120008        -1.35927505E-04
   3.13319993        -1.35228227E-04
   3.14520001        -1.33775466E-04
   3.15720010        -1.31602734E-04
   3.16919994        -1.28757994E-04
   3.18120003        -1.25301813E-04
   3.19320011        -1.21305340E-04
   3.20519996        -1.16847783E-04
   3.21720004        -1.12013942E-04
   3.22919989        -1.06891501E-04
   3.24119997        -1.01568483E-04
   3.25320005        -9.61307378E-05
   3.26519990        -9.06596542E-05
   3.27719998        -8.52302328E-05
   3.28920007        -7.99094414E-05
   3.30119991        -7.47549639E-05
   3.31320000        -6.98144213E-05
   3.32520008        -6.51249939E-05
   3.33719993        -6.07134789E-05
   3.34920001        -5.65967384E-05
   3.36120009        -5.27825323E-05
   3.37319994        -4.92705876E-05
   3.38520002        -4.60539377E-05
   3.39720011        -4.31203953E-05
   3.40919995        -4.04540588E-05
   3.42120004        -3.80368183E-05
   3.43319988        -3.58497600E-05
   3.44519997        -3.38743739E-05
   3.45720005        -3.20935942E-05
   3.46919990        -3.04925452E-05
   3.48119998        -2.90590178E-05
   3.49320006        -2.77836953E-05
   3.50519991        -2.66601019E-05
   3.51719999        -2.56843468E-05
   3.52920008        -2.48546785E-05
   3.54119992        -2.41709422E-05
   3.55320001        -2.36339383E-05
   3.56520009        -2.32448092E-05
   3.57719994        -2.30044516E-05
   3.58920002        -2.29130110E-05
   3.60120010        -2.29695106E-05
   3.61319995        -2.31715840E-05
   3.62520003        -2.35153257E-05
   3.63720012        -2.39952842E-05
   3.64919996        -2.46045111E-05
   3.66120005        -2.53346734E-05
   3.67319989        -2.61762052E-05
   3.68519998        -2.71184381E-05
   3.69720006        -2.81497068E-05
   3.70919991        -2.92573968E-05
   3.72119999        -3.04279620E-05
   3.73320007        -3.16468504E-05
   3.74519992        -3.28984352E-05
   3.75720000        -3.41658852E-05
   3.76920009        -3.54310832E-05
   3.78119993        -3.66745771E-05
   3.79320002        -3.78756049E-05
   3.80520010        -3.90122404E-05
   3.81719995        -4.00616700E-05
   3.82920003        -4.10005996E-05
   3.84120011        -4.18058189E-05
   3.85319996        -4.24548743E-05
   3.86520004        -4.29268475E-05
   3.87719989        -4.32031629E-05
   3.88919997        -4.32684210E-05
   3.90120006        -4.31111657E-05
   3.91319990        -4.27245250E-05
   3.92519999        -4.21067307E-05
   3.93720007        -4.12614245E-05
   3.94919991        -4.01977086E-05
   3.96120000        -3.89300185E-05
   3.97320008        -3.74776937E-05
   3.98519993        -3.58643883E-05
   3.99720001        -3.41172272E-05
   4.00920010        -3.22658379E-05
   4.02120018        -3.03412962E-05
   4.03319979        -2.83749596E-05
   4.04519987        -2.63973743E-05
   4.05719995        -2.44371968E-05
   4.06920004        -2.25202275E-05
   4.08120012        -2.06686254E-05
   4.09320021        -1.89002731E-05
   4.10519981        -1.72283872E-05
   4.11719990        -1.56613223E-05
   4.12919998        -1.42026238E-05
   4.14120007        -1.28512720E-05
   4.15320015        -1.16021465E-05
   4.16520023        -1.04466426E-05
   4.17719984        -9.37342520E-06
   4.18919992        -8.36928302E-06
   4.20120001        -7.42003704E-06
   4.21320009        -6.51145638E-06
   4.22520018        -5.63014373E-06
   4.23719978        -4.76435025E-06
   4.24919987        -3.90468358E-06
   4.26119995        -3.04466334E-06
   4.27320004        -2.18112382E-06
   4.28520012        -1.31442334E-06
   4.29720020        -4.48457200E-07
   4.30919981         4.09517099E-07
   4.32119989         1.24924725E-06
   4.33319998         2.05802144E-06
   4.34520006         2.82134647E-06
   4.35720015         3.52373149E-06
   4.36920023         4.14954366E-06
   4.38119984         4.68387680E-06
   4.39319992         5.11339977E-06
   4.40520000         5.42713042E-06
   4.41720009         5.61708612E-06
   4.42920017         5.67878715E-06
   4.44119978         5.61157731E-06
   4.45319986         5.41874851E-06
   4.46519995         5.10747259E-06
   4.47720003         4.68853887E-06
   4.48920012         4.17593128E-06
   4.50120020         3.58626698E-06
   4.51319981         2.93813014E-06
   4.52519989         2.25134613E-06
   4.53719997         1.54623012E-06
   4.54920006         8.42838062E-07
   4.56120014         1.60256263E-07
   4.57320023        -4.84049110E-07
   4.58519983        -1.07480514E-06
   4.59719992        -1.59941885E-06
   4.60920000        -2.04836488E-06
   4.62120008        -2.41547423E-06
   4.63320017        -2.69811653E-06
   4.64519978        -2.89728268E-06
   4.65719986        -3.01755426E-06
   4.66919994        -3.06697007E-06
   4.68120003        -3.05678418E-06
   4.69320011        -3.00112220E-06
   4.70520020        -2.91652850E-06
   4.71719980        -2.82141900E-06
   4.72919989        -2.73544651E-06
   4.74119997        -2.67879841E-06
   4.75320005        -2.67144014E-06
   4.76520014        -2.73233900E-06
   4.77720022        -2.87869102E-06
   4.78919983        -3.12519023E-06
   4.80119991        -3.48337198E-06
   4.81320000        -3.96106907E-06
   4.82520008        -4.56200087E-06
   4.83720016        -5.28553301E-06
   4.84919977        -6.12660824E-06
   4.86119986        -7.07586969E-06
   4.87319994        -8.11996870E-06
   4.88520002        -9.24203141E-06
   4.89720011        -1.04222918E-05
   4.90920019        -1.16388228E-05
   4.92119980        -1.28683614E-05
   4.93319988        -1.40871598E-05
   4.94519997        -1.52718567E-05
   4.95720005        -1.64002777E-05
   4.96920013        -1.74521829E-05
   4.98120022        -1.84098935E-05
   4.99319983        -1.92588013E-05
   5.00519991        -1.99877250E-05
   5.01719999        -2.05891392E-05
   5.02920008        -2.10592607E-05
   5.04120016        -2.13979929E-05
   5.05319977        -2.16087792E-05
   5.06519985        -2.16983462E-05
   5.07719994        -2.16763692E-05
   5.08920002        -2.15550845E-05
   5.10120010        -2.13488456E-05
   5.11320019        -2.10736562E-05
   5.12519979        -2.07466655E-05
   5.13719988        -2.03856489E-05
   5.14919996        -2.00085033E-05
   5.16120005        -1.96326982E-05
   5.17320013        -1.92747812E-05
   5.18520021        -1.89498769E-05
   5.19719982        -1.86712259E-05
   5.20919991        -1.84497949E-05
   5.22119999        -1.82939402E-05
   5.23320007        -1.82091717E-05
   5.24520016        -1.81980377E-05
   5.25719976        -1.82601343E-05
   5.26919985        -1.83922530E-05
   5.28119993        -1.85886911E-05
   5.29320002        -1.88416761E-05
   5.30520010        -1.91419495E-05
   5.31720018        -1.94794047E-05
   5.32919979        -1.98438192E-05
   5.34119987        -2.02255742E-05
   5.35319996        -2.06163459E-05
   5.36520004        -2.10097005E-05
   5.37720013        -2.14015618E-05
   5.38920021        -2.17904872E-05
   5.40119982        -2.21777536E-05
   5.41319990        -2.25672175E-05
   5.42519999        -2.29649522E-05
   5.43720007        -2.33787105E-05
   5.44920015        -2.38172051E-05
   5.46120024        -2.42892875E-05
   5.47319984        -2.48030574E-05
   5.48519993        -2.53650087E-05
   5.49720001        -2.59792141E-05
   5.50920010        -2.66466614E-05
   5.52120018        -2.73647711E-05
   5.53319979        -2.81271332E-05
   5.54519987        -2.89235140E-05
   5.55719995        -2.97400784E-05
   5.56920004        -3.05598915E-05
   5.58120012        -3.13635974E-05
   5.59320021        -3.21302832E-05
   5.60519981        -3.28384449E-05
   5.61719990        -3.34670112E-05
   5.62919998        -3.39963408E-05
   5.64120007        -3.44091350E-05
   5.65320015        -3.46912748E-05
   5.66520023        -3.48324465E-05
   5.67719984        -3.48265785E-05
   5.68919992        -3.46721172E-05
   5.70120001        -3.43720239E-05
   5.71320009        -3.39336475E-05
   5.72520018        -3.33683674E-05
   5.73719978        -3.26911359E-05
   5.74919987        -3.19198953E-05
   5.76119995        -3.10749274E-05
   5.77320004        -3.01781802E-05
   5.78520012        -2.92526056E-05
   5.79720020        -2.83215231E-05
   5.80919981        -2.74080485E-05
   5.82119989        -2.65345843E-05
   5.83319998        -2.57224074E-05
   5.84520006        -2.49913046E-05
   5.85720015        -2.43592967E-05
   5.86920023        -2.38423945E-05
   5.88119984        -2.34544241E-05
   5.89319992        -2.32068560E-05
   5.90520000        -2.31086633E-05
   5.91720009        -2.31661652E-05
   5.92920017        -2.33829069E-05
   5.94119978        -2.37595159E-05
   5.95319986        -2.42935894E-05
   5.96519995        -2.49795958E-05
   5.97720003        -2.58088403E-05
   5.98920012        -2.67694813E-05
   6.00120020        -2.78466196E-05
   6.01319981        -2.90225016E-05
   6.02519989        -3.02768185E-05
   6.03719997        -3.15870930E-05
   6.04920006        -3.29291797E-05
   6.06120014        -3.42778367E-05
   6.07320023        -3.56073542E-05
   6.08519983        -3.68922229E-05
   6.09719992        -3.81077698E-05
   6.10920000        -3.92308175E-05
   6.12120008        -4.02402147E-05
   6.13320017        -4.11173351E-05
   6.14519978        -4.18464369E-05
   6.15719986        -4.24148966E-05
   6.16919994        -4.28133244E-05
   6.18120003        -4.30355503E-05
   6.19320011        -4.30785039E-05
   6.20520020        -4.29419888E-05
   6.21719980        -4.26284096E-05
   6.22919989        -4.21424447E-05
   6.24119997        -4.14907627E-05
   6.25320005        -4.06817198E-05
   6.26520014        -3.97251897E-05
   6.27720022        -3.86323918E-05
   6.28919983        -3.74158953E-05
   6.30119991        -3.60896374E-05
   6.31320000        -3.46690795E-05
   6.32520008        -3.31713636E-05
   6.33720016        -3.16155092E-05
   6.34919977        -3.00225893E-05
   6.36119986        -2.84158232E-05
   6.37319994        -2.68205931E-05
   6.38520002        -2.52643040E-05
   6.39720011        -2.37760833E-05
   6.40920019        -2.23863008E-05
   6.42119980        -2.11258975E-05
   6.43319988        -2.00255472E-05
   6.44519997        -1.91146537E-05
   6.45720005        -1.84202454E-05
   6.46920013        -1.79658145E-05
   6.48120022        -1.77701422E-05
   6.49319983        -1.78462051E-05
   6.50519991        -1.82002168E-05
   6.51719999        -1.88308677E-05
   6.52920008        -1.97288336E-05
   6.54120016        -2.08765796E-05
   6.55319977        -2.22485032E-05
   6.56519985        -2.38114262E-05
   6.57719994        -2.55254108E-05
   6.58920002        -2.73448968E-05
   6.60120010        -2.92201166E-05
   6.61320019        -3.10986834E-05
   6.62519979        -3.29273607E-05
   6.63719988        -3.46538545E-05
   6.64919996        -3.62285973E-05
   6.66120005        -3.76064381E-05
   6.67320013        -3.87481487E-05
   6.68520021        -3.96216928E-05
   6.69719982        -4.02032019E-05
   6.70919991        -4.04776438E-05
   6.72119999        -4.04391249E-05
   6.73320007        -4.00908939E-05
   6.74520016        -3.94449635E-05
   6.75719976        -3.85214989E-05
   6.76919985        -3.73478979E-05
   6.78119993        -3.59576952E-05
   6.79320002        -3.43893225E-05
   6.80520010        -3.26847767E-05
   6.81720018        -3.08882700E-05
   6.82919979        -2.90449061E-05
   6.84119987        -2.71994359E-05
   6.85319996        -2.53951512E-05
   6.86520004        -2.36728974E-05
   6.87720013        -2.20702714E-05
   6.88920021        -2.06209861E-05
   6.90119982        -1.93543856E-05
   6.91319990        -1.82951353E-05
   6.92519999        -1.74630241E-05
   6.93720007        -1.68728893E-05
   6.94920015        -1.65346391E-05
   6.96120024        -1.64533230E-05
   6.97319984        -1.66292557E-05
   6.98519993        -1.70581807E-05
   6.99720001        -1.77314378E-05
   7.00920010        -1.86361522E-05
   7.02120018        -1.97554327E-05
   7.03319979        -2.10685939E-05
   7.04519987        -2.25513977E-05
   7.05719995        -2.41763664E-05
   7.06920004        -2.59131230E-05
   7.08120012        -2.77288509E-05
   7.09320021        -2.95888040E-05
   7.10519981        -3.14569443E-05
   7.11719990        -3.32966592E-05
   7.12919998        -3.50715600E-05
   7.14120007        -3.67463435E-05
   7.15320015        -3.82876897E-05
   7.16520023        -3.96651594E-05
   7.17719984        -4.08520318E-05
   7.18919992        -4.18260861E-05
   7.20120001        -4.25702456E-05
   7.21320009        -4.30730761E-05
   7.22520018        -4.33291243E-05
   7.23719978        -4.33390196E-05
   7.24919987        -4.31093940E-05
   7.26119995        -4.26525985E-05
   7.27320004        -4.19862445E-05
   7.28520012        -4.11325273E-05
   7.29720020        -4.01174730E-05
   7.30919981        -3.89700108E-05
   7.32119989        -3.77210636E-05
   7.33319998        -3.64025618E-05
   7.34520006        -3.50465016E-05
   7.35720015        -3.36840494E-05
   7.36920023        -3.23447748E-05
   7.38119984        -3.10559553E-05
   7.39319992        -2.98420473E-05
   7.40520000        -2.87242838E-05
   7.41720009        -2.77204199E-05
   7.42920017        -2.68445929E-05
   7.44119978        -2.61073146E-05
   7.45319986        -2.55155428E-05
   7.46519995        -2.50728390E-05
   7.47720003        -2.47795688E-05
   7.48920012        -2.46331438E-05
   7.50120020        -2.46282707E-05
   7.51319981        -2.47572316E-05
   7.52519989        -2.50101366E-05
   7.53719997        -2.53752023E-05
   7.54920006        -2.58390210E-05
   7.56120014        -2.63868424E-05
   7.57320023        -2.70028686E-05
   7.58519983        -2.76705669E-05
   7.59719992        -2.83730096E-05
   7.60920000        -2.90932367E-05
   7.62120008        -2.98146497E-05
   7.63320017        -3.05213907E-05
   7.64519978        -3.11987642E-05
   7.65719986        -3.18336097E-05
   7.66919994        -3.24146822E-05
   7.68120003        -3.29329596E-05
   7.69320011        -3.33819007E-05
   7.70520020        -3.37576421E-05
   7.71719980        -3.40590377E-05
   7.72919989        -3.42876738E-05
   7.74119997        -3.44476975E-05
   7.75320005        -3.45455628E-05
   7.76520014        -3.45896515E-05
   7.77720022        -3.45898043E-05
   7.78919983        -3.45567714E-05
   7.80119991        -3.45015942E-05
   7.81320000        -3.44350046E-05
   7.82520008        -3.43667925E-05
   7.83720016        -3.43052634E-05
   7.84919977        -3.42567510E-05
   7.86119986        -3.42252242E-05
   7.87319994        -3.42120547E-05
   7.88520002        -3.42158928E-05
   7.89720011        -3.42326966E-05
   7.90920019        -3.42559179E-05
   7.92119980        -3.42767962E-05
   7.93319988        -3.42848471E-05
   7.94519997        -3.42683379E-05
   7.95720005        -3.42149542E-05
   7.96920013        -3.41124432E-05
   7.98120022        -3.39493163E-05
   7.99319983        -3.37154852E-05
   8.00520039        -3.34028991E-05
   8.01720047        -3.30060720E-05
   8.02919960        -3.25225083E-05
   8.04119968        -3.19530191E-05
   8.05319977        -3.13018791E-05
   8.06519985        -3.05768699E-05
   8.07719994        -2.97891565E-05
   8.08920002        -2.89530362E-05
   8.10120010        -2.80855438E-05
   8.11320019        -2.72059606E-05
   8.12520027        -2.63352067E-05
   8.13720036        -2.54951647E-05
   8.14920044        -2.47079479E-05
   8.16119957        -2.39951314E-05
   8.17319965        -2.33770061E-05
   8.18519974        -2.28718272E-05
   8.19719982        -2.24951455E-05
   8.20919991        -2.22592207E-05
   8.22119999        -2.21725277E-05
   8.23320007        -2.22394174E-05
   8.24520016        -2.24599116E-05
   8.25720024        -2.28296958E-05
   8.26920033        -2.33402498E-05
   8.28120041        -2.39791952E-05
   8.29319954        -2.47307780E-05
   8.30519962        -2.55765044E-05
   8.31719971        -2.64959253E-05
   8.32919979        -2.74674640E-05
   8.34119987        -2.84693106E-05
   8.35319996        -2.94803322E-05
   8.36520004        -3.04808746E-05
   8.37720013        -3.14535464E-05
   8.38920021        -3.23837994E-05
   8.40120029        -3.32603704E-05
   8.41320038        -3.40755432E-05
   8.42520046        -3.48251597E-05
   8.43719959        -3.55084776E-05
   8.44919968        -3.61277889E-05
   8.46119976        -3.66878921E-05
   8.47319984        -3.71954120E-05
   8.48519993        -3.76580538E-05
   8.49720001        -3.80837737E-05
   8.50920010        -3.84800187E-05
   8.52120018        -3.88529952E-05
   8.53320026        -3.92070797E-05
   8.54520035        -3.95443712E-05
   8.55720043        -3.98644552E-05
   8.56919956        -4.01643738E-05
   8.58119965        -4.04388011E-05
   8.59319973        -4.06804393E-05
   8.60519981        -4.08806081E-05
   8.61719990        -4.10299144E-05
   8.62919998        -4.11191031E-05
   8.64120007        -4.11399124E-05
   8.65320015        -4.10858884E-05
   8.66520023        -4.09531676E-05
   8.67720032        -4.07411135E-05
   8.68920040        -4.04527418E-05
   8.70119953        -4.00949903E-05
   8.71319962        -3.96786927E-05
   8.72519970        -3.92183501E-05
   8.73719978        -3.87316104E-05
   8.74919987        -3.82385952E-05
   8.76119995        -3.77609722E-05
   8.77320004        -3.73209368E-05
   8.78520012        -3.69401278E-05
   8.79720020        -3.66384738E-05
   8.80920029        -3.64331681E-05
   8.82120037        -3.63376530E-05
   8.83320045        -3.63608669E-05
   8.84519958        -3.65066444E-05
   8.85719967        -3.67733737E-05
   8.86919975        -3.71539027E-05
   8.88119984        -3.76357311E-05
   8.89319992        -3.82014587E-05
   8.90520000        -3.88294320E-05
   8.91720009        -3.94946292E-05
   8.92920017        -4.01696343E-05
   8.94120026        -4.08257874E-05
   8.95320034        -4.14342830E-05
   8.96520042        -4.19673306E-05
   8.97719955        -4.23991878E-05
   8.98919964        -4.27071354E-05
   9.00119972        -4.28722306E-05
   9.01319981        -4.28799176E-05
   9.02519989        -4.27204141E-05
   9.03719997        -4.23888705E-05
   9.04920006        -4.18853087E-05
   9.06120014        -4.12143600E-05
   9.07320023        -4.03848062E-05
   9.08520031        -3.94089802E-05