 -0.622799993         1.00000002E-24
 -0.610800028         1.00000002E-24
 -0.598800004         1.00000002E-24
 -0.586799979         1.00000002E-24
 -0.574800014         1.00000002E-24
 -0.562799990         1.00000002E-24
 -0.550800025         1.00000002E-24
 -0.538800001         1.00000012E-24
 -0.526799977         1.00000022E-24
 -0.514800012         1.00000022E-24
 -0.502799988         1.00000022E-24
 -0.490799993         1.00000022E-24
 -0.478799999         1.00000022E-24
 -0.466800004         1.00000012E-24
 -0.454800010         1.00000002E-24
 -0.442799985         9.99999921E-25
 -0.430799991         9.99999921E-25
 -0.418799996         9.99999921E-25
 -0.406800002         9.99999921E-25
 -0.394800007         1.00000002E-24
 -0.382800013         1.00000012E-24
 -0.370799989         1.00000022E-24
 -0.358799994         1.00000032E-24
 -0.346799999         1.00000032E-24
 -0.334800005         1.00000032E-24
 -0.322800010         1.00000022E-24
 -0.310799986         1.00000012E-24
 -0.298799992         1.00000002E-24
 -0.286799997         9.99999921E-25
 -0.274800003         9.99999724E-25
 -0.262800008         9.99999329E-25
 -0.250800014         9.99998540E-25
 -0.238800004         9.99997259E-25
 -0.226799995         9.99995779E-25
 -0.214800000         9.99995977E-25
 -0.202800006         1.00000179E-24
 -0.190799996         1.00002014E-24
 -0.178800002         1.00005761E-24
 -0.166800007         1.00011253E-24
 -0.154799998         1.00016026E-24
 -0.142800003         1.00013432E-24
 -0.130799994         9.99915710E-25
 -0.118799999         9.99356309E-25
 -0.106799997         9.98369050E-25
  -9.48000029E-02     9.97111112E-25
  -8.28000009E-02     9.96242281E-25
  -7.07999989E-02     9.97146611E-25
  -5.88000007E-02     1.00188362E-24
  -4.67999987E-02     1.01252536E-24
  -3.48000005E-02     1.02956495E-24
  -2.28000004E-02     1.04938182E-24
  -1.08000003E-02     1.06143000E-24
   1.20000006E-03     1.04682749E-24
   1.31999999E-02     9.81013222E-25
   2.52000000E-02     8.43406594E-25
   3.72000001E-02     6.35585823E-25
   4.91999984E-02     4.05582037E-25
   6.12000003E-02     2.69466232E-25
   7.32000023E-02     4.14053121E-25
   8.51999968E-02     1.05993895E-24
   9.71999988E-02     2.36754710E-24
  0.109200001         4.28571840E-24
  0.121200003         6.37477551E-24
  0.133200005         7.67896059E-24
  0.145199999         6.76174413E-24
  0.157199994         2.02693155E-24
  0.169200003        -7.59967139E-24
  0.181199998        -2.16791457E-23
  0.193200007        -3.72081771E-23
  0.205200002        -4.79809215E-23
  0.217199996        -4.49947833E-23
  0.229200006        -1.84960351E-23
  0.241200000         3.80833804E-23
  0.253199995         1.22751010E-22
  0.265199989         2.19570989E-22
  0.277200013         2.95682662E-22
  0.289200008         3.03669191E-22
  0.301200002         1.91806594E-22
  0.313199997        -7.70664156E-23
  0.325199991        -5.00528130E-22
  0.337199986        -1.01198470E-21
  0.349200010        -1.46688658E-21
  0.361200005        -1.65183879E-21
  0.373199999        -1.32645176E-21
  0.385199994        -3.00299480E-22
  0.397199988         1.46515850E-21
  0.409200013         3.75512816E-21
  0.421200007         6.03940519E-21
  0.433200002         7.49401240E-21
  0.445199996         7.14229423E-21
  0.457199991         4.12477288E-21
  0.469199985        -1.93572724E-21
  0.481200010        -1.05580324E-20
  0.493200004        -2.01440726E-20
  0.505200028        -2.79839434E-20
  0.517199993        -3.06442597E-20
  0.529200017        -2.47787413E-20
  0.541199982        -8.27141596E-21
  0.553200006         1.85291898E-20
  0.565199971         5.18565245E-20
  0.577199996         8.42813421E-20
  0.589200020         1.05536995E-19
  0.601199985         1.04563830E-19
  0.613200009         7.25832893E-20
  0.625199974         6.61477514E-21
  0.637199998        -8.74944541E-20
  0.649200022        -1.93616783E-19
  0.661199987        -2.86426047E-19
  0.673200011        -3.35500579E-19
  0.685199976        -3.12175533E-19
  0.697200000        -1.97988032E-19
  0.709200025         7.21428479E-21
  0.721199989         2.79827912E-19
  0.733200014         5.71853480E-19
  0.745199978         8.16380994E-19
  0.757200003         9.39167839E-19
  0.769200027         8.74711031E-19
  0.781199992         5.83829867E-19
  0.793200016         6.89749013E-20
  0.805199981        -6.16491869E-19
  0.817200005        -1.36790651E-18
  0.829200029        -2.03917288E-18
  0.841199994        -2.46253592E-18
  0.853200018        -2.47635914E-18
  0.865199983        -1.95786909E-18
  0.877200007        -8.57052017E-19
  0.889199972         7.72825799E-19
  0.901199996         2.75354695E-18
  0.913200021         4.77585548E-18
  0.925199986         6.41670595E-18
  0.937200010         7.18729872E-18
  0.949199975         6.61622440E-18
  0.961199999         4.36483605E-18
  0.973200023         3.60686755E-19
  0.985199988        -5.07871939E-18
  0.997200012        -1.11714042E-17
   1.00919998        -1.66897502E-17
   1.02119994        -2.01084100E-17
   1.03320003        -1.98925473E-17
   1.04519999        -1.48984824E-17
   1.05719995        -4.81243589E-18
   1.06920004         9.48720659E-18
   1.08120000         2.57768719E-17
   1.09319997         4.06584153E-17
   1.10520005         5.01068031E-17
   1.11720002         5.03506923E-17
   1.12919998         3.89285821E-17
   1.14119995         1.56667429E-17
   1.15320003        -1.67188339E-17
   1.16520000        -5.26574145E-17
   1.17719996        -8.45304537E-17
   1.18920004        -1.04189294E-16
   1.20120001        -1.04902622E-16
   1.21319997        -8.32733840E-17
   1.22520006        -4.05913607E-17
   1.23720002         1.68373408E-17
   1.24919999         7.86163902E-17
   1.26119995         1.32342148E-16
   1.27320004         1.66396803E-16
   1.28520000         1.72748373E-16
   1.29719996         1.48983527E-16
   1.30920005         9.89580453E-17
   1.32120001         3.18177637E-17
   1.33319998        -4.03810418E-17
   1.34519994        -1.05779109E-16
   1.35720003        -1.55618349E-16
   1.36919999        -1.86037936E-16
   1.38119996        -1.98186572E-16
   1.39320004        -1.96616517E-16
   1.40520000        -1.86510408E-16
   1.41719997        -1.70722998E-16
   1.42920005        -1.47735066E-16
   1.44120002        -1.11357251E-16
   1.45319998        -5.24593312E-17
   1.46519995         3.76809952E-17
   1.47720003         1.63376390E-16
   1.48920000         3.21079459E-16
   1.50119996         4.97511843E-16
   1.51320004         6.69886065E-16
   1.52520001         8.08083302E-16
   1.53719997         8.78147644E-16
   1.54920006         8.46310216E-16
   1.56120002         6.83036834E-16
   1.57319999         3.67140475E-16
   1.58519995        -1.09497134E-16
   1.59720004        -7.35982216E-16
   1.60920000        -1.47522752E-15
   1.62119997        -2.25677508E-15
   1.63320005        -2.97238070E-15
   1.64520001        -3.47824699E-15
   1.65719998        -3.60777887E-15
   1.66919994        -3.19707059E-15
   1.68120003        -2.12200473E-15
   1.69319999        -3.41485303E-16
   1.70519996         2.06280136E-15
   1.71720004         4.86208897E-15
   1.72920001         7.68300557E-15
   1.74119997         1.00437880E-14
   1.75320005         1.14237140E-14
   1.76520002         1.13562715E-14
   1.77719998         9.52862091E-15
   1.78919995         5.86556891E-15
   1.80120003         5.77342316E-16
   1.81320000        -5.84249488E-15
   1.82519996        -1.26712800E-14
   1.83720005        -1.90531235E-14
   1.84920001        -2.41155278E-14
   1.86119998        -2.70814340E-14
   1.87320006        -2.73546207E-14
   1.88520002        -2.45668371E-14
   1.89719999        -1.85892256E-14
   1.90919995        -9.52401389E-15
   1.92120004         2.30055419E-15
   1.93320000         1.63118810E-14
   1.94519997         3.16442564E-14
   1.95720005         4.70730192E-14
   1.96920002         6.09660163E-14
   1.98119998         7.13001503E-14
   1.99319994         7.57899196E-14
   2.00519991         7.21560127E-14
   2.01719999         5.85267918E-14
   2.02920008         3.39222364E-14
   2.04119992        -1.27050358E-15
   2.05320001        -4.49449641E-14
   2.06520009        -9.31597329E-14
   2.07719994        -1.40340471E-13
   2.08920002        -1.79823062E-13
   2.10120010        -2.04689306E-13
   2.11319995        -2.08779012E-13
   2.12520003        -1.87714210E-13
   2.13720012        -1.39758702E-13
   2.14919996        -6.63612096E-14
   2.16120005         2.77108353E-14
   2.17319989         1.34664442E-13
   2.18519998         2.44343743E-13
   2.19720006         3.45152401E-13
   2.20919991         4.25106917E-13
   2.22119999         4.72905840E-13
   2.23320007         4.78941702E-13
   2.24519992         4.36227470E-13
   2.25720000         3.41242225E-13
   2.26920009         1.94701528E-13
   2.28119993         2.22507805E-15
   2.29320002        -2.25184509E-13
   2.30520010        -4.71001710E-13
   2.31719995        -7.13565546E-13
   2.32920003        -9.27173052E-13
   2.34120011        -1.08398360E-12
   2.35319996        -1.15670733E-12
   2.36520004        -1.12188503E-12
   2.37719989        -9.63400692E-13
   2.38919997        -6.75749766E-13
   2.40120006        -2.66547391E-13
   2.41319990         2.42182712E-13
   2.42519999         8.14251119E-13
   2.43720007         1.40118700E-12
   2.44919991         1.94565392E-12
   2.46120000         2.38610325E-12
   2.47320008         2.66225410E-12
   2.48519993         2.72094651E-12
   2.49720001         2.52193557E-12
   2.50920010         2.04324361E-12
   2.52119994         1.28571806E-12
   2.53320003         2.76441061E-13
   2.54520011        -9.29424398E-13
   2.55719995        -2.24883263E-12
   2.56920004        -3.57361753E-12
   2.58119988        -4.77626489E-12
   2.59319997        -5.71892056E-12
   2.60520005        -6.26544693E-12
   2.61719990        -6.29583798E-12
   2.62919998        -5.72168875E-12
   2.64120007        -4.50095820E-12
   2.65319991        -2.64996814E-12
   2.66520000        -2.50660034E-13
   2.67720008         2.54848551E-12
   2.68919992         5.53869320E-12
   2.70120001         8.46422932E-12
   2.71320009         1.10417994E-11
   2.72519994         1.29842283E-11
   2.73720002         1.40261708E-11
   2.74920011         1.39495611E-11
   2.76119995         1.26067334E-11
   2.77320004         9.93967235E-12
   2.78520012         5.99429577E-12
   2.79719996         9.29055444E-13
   2.80920005        -4.98278242E-12
   2.82119989        -1.13579484E-11
   2.83319998        -1.77161150E-11
   2.84520006        -2.35021863E-11
   2.85719991        -2.81189412E-11
   2.86919999        -3.09703443E-11
   2.88120008        -3.15145028E-11
   2.89319992        -2.93234846E-11
   2.90520000        -2.41451702E-11
   2.91720009        -1.59605766E-11
   2.92919993        -5.02886925E-12
   2.94120002         8.08778305E-12
   2.95320010         2.25264044E-11
   2.96519995         3.71570934E-11
   2.97720003         5.06501091E-11
   2.98920012         6.15740237E-11
   3.00119996         6.85191764E-11
   3.01320004         7.02372119E-11
   3.02519989         6.57853008E-11
   3.03719997         5.46616780E-11
   3.04920006         3.69186348E-11
   3.06119990         1.32396186E-11
   3.07319999        -1.50318993E-11
   3.08520007        -4.59216935E-11
   3.09719992        -7.69188185E-11
   3.10920000        -1.05136351E-10
   3.12120008        -1.27534955E-10
   3.13319993        -1.41198150E-10
   3.14520001        -1.43640308E-10
   3.15720010        -1.33120903E-10
   3.16919994        -1.08931870E-10
   3.18120003        -7.16212992E-11
   3.19320011        -2.31172685E-11
   3.20519996         3.32795250E-11
   3.21720004         9.30548555E-11
   3.22919989         1.50797236E-10
   3.24119997         2.00657962E-10
   3.25320005         2.36922038E-10
   3.26519990         2.54638144E-10
   3.27719998         2.50242188E-10
   3.28920007         2.22100477E-10
   3.30119991         1.70899073E-10
   3.31320000         9.98157390E-11
   3.32520008         1.44280447E-11
   3.33719993        -7.76630427E-11
   3.34920001        -1.67484679E-10
   3.36120009        -2.45577253E-10
   3.37319994        -3.03040093E-10
   3.38520002        -3.32638306E-10
   3.39720011        -3.29851563E-10
   3.40919995        -2.93737479E-10
   3.42120004        -2.27485156E-10
   3.43319988        -1.38550282E-10
   3.44519997        -3.82954918E-11
   3.45720005         5.89003221E-11
   3.46919990         1.37046111E-10
   3.48119998         1.80381876E-10
   3.49320006         1.75528730E-10
   3.50519991         1.13760605E-10
   3.51719999        -6.82792061E-12
   3.52920008        -1.79505938E-10
   3.54119992        -3.87691018E-10
   3.55320001        -6.04559791E-10
   3.56520009        -7.93658916E-10
   3.57719994        -9.10620357E-10
   3.58920002        -9.05993391E-10
   3.60120010        -7.29105887E-10
   3.61319995        -3.32759875E-10
   3.62520003         3.21529164E-10
   3.63720012         1.25813671E-09
   3.64919996         2.48222309E-09
   3.66120005         3.97541466E-09
   3.67319989         5.69278535E-09
   3.68519998         7.56163931E-09
   3.69720006         9.48256318E-09
   3.70919991         1.13331335E-08
   3.72119999         1.29745947E-08
   3.73320007         1.42617003E-08
   3.74519992         1.50557806E-08
   3.75720000         1.52409392E-08
   3.76920009         1.47431862E-08
   3.78119993         1.35520555E-08
   3.79320002         1.17441825E-08
   3.80520010         9.50814094E-09
   3.81719995         7.16957427E-09
   3.82920003         5.21568877E-09
   3.84120011         4.31783365E-09
   3.85319996         5.35105649E-09
   3.86520004         9.40898826E-09
   3.87719989         1.78128694E-08
   3.88919997         3.21132205E-08
   3.90120006         5.40826619E-08
   3.91319990         8.56987441E-08
   3.92519999         1.29115790E-07
   3.93720007         1.86624817E-07
   3.94919991         2.60601524E-07
   3.96120000         3.53442061E-07
   3.97320008         4.67487752E-07
   3.98519993         6.04939828E-07
   3.99720001         7.67766608E-07
   4.00920010         9.57605153E-07
   4.02120018         1.17566117E-06
   4.03319979         1.42261081E-06
   4.04519987         1.69850944E-06
   4.05719995         2.00270983E-06
   4.06920004         2.33379660E-06
   4.08120012         2.68953841E-06
   4.09320021         3.06686616E-06
   4.10519981         3.46187426E-06
   4.11719990         3.86985221E-06
   4.12919998         4.28534713E-06
   4.14120007         4.70225268E-06
   4.15320015         5.11392864E-06
   4.16520023         5.51334733E-06
   4.17719984         5.89325919E-06
   4.18919992         6.24637869E-06
   4.20120001         6.56558086E-06
   4.21320009         6.84409770E-06
   4.22520018         7.07572053E-06
   4.23719978         7.25498830E-06
   4.24919987         7.37735945E-06
   4.26119995         7.43936516E-06
   4.27320004         7.43872988E-06
   4.28520012         7.37446544E-06
   4.29720020         7.24692154E-06
   4.30919981         7.05780758E-06
   4.32119989         6.81016445E-06
   4.33319998         6.50830953E-06
   4.34520006         6.15773524E-06
   4.35720015         5.76498041E-06
   4.36920023         5.33747061E-06
   4.38119984         4.88333171E-06
   4.39319992         4.41118618E-06
   4.40520000         3.92994025E-06
   4.41720009         3.44855539E-06
   4.42920017         2.97582937E-06
   4.44119978         2.52017685E-06
   4.45319986         2.08942424E-06
   4.46519995         1.69062344E-06
   4.47720003         1.32988566E-06
   4.48920012         1.01224555E-06
   4.50120020         7.41553151E-07
   4.51319981         5.20402125E-07
   4.52519989         3.50091454E-07
   4.53719997         2.30624707E-07
   4.54920006         1.60744932E-07
   4.56120014         1.38004467E-07
   4.57320023         1.58866868E-07
   4.58519983         2.18837727E-07
   4.59719992         3.12619989E-07
   4.60920000         4.34288097E-07
   4.62120008         5.77475987E-07
   4.63320017         7.35571973E-07
   4.64519978         9.01914291E-07
   4.65719986         1.06998084E-06
   4.66919994         1.23356699E-06
   4.68120003         1.38694531E-06
   4.69320011         1.52500411E-06
   4.70520020         1.64335881E-06
   4.71719980         1.73843534E-06
   4.72919989         1.80752318E-06
   4.74119997         1.84879923E-06
   4.75320005         1.86132161E-06
   4.76520014         1.84499822E-06
   4.77720022         1.80053087E-06
   4.78919983         1.72934142E-06
   4.80119991         1.63348068E-06
   4.81320000         1.51552888E-06
   4.82520008         1.37848838E-06
   4.83720016         1.22567485E-06
   4.84919977         1.06061020E-06
   4.86119986         8.86918770E-07
   4.87319994         7.08230630E-07
   4.88520002         5.28092642E-07
   4.89720011         3.49887586E-07
   4.90920019         1.76763123E-07
   4.92119980         1.15684502E-08
   4.93319988        -1.43199884E-07
   4.94519997        -2.85443662E-07
   4.95720005        -4.13500658E-07
   4.96920013        -5.26173380E-07
   4.98120022        -6.22748985E-07
   4.99319983        -7.03009391E-07
   5.00519991        -7.67230063E-07
   5.01719999        -8.16167528E-07
   5.02920008        -8.51033633E-07
   5.04120016        -8.73456145E-07
   5.05319977        -8.85425948E-07
   5.06519985        -8.89230137E-07
   5.07719994        -8.87373062E-07
   5.08920002        -8.82486177E-07
   5.10120010        -8.77230661E-07
   5.11320019        -8.74194200E-07
   5.12519979        -8.75788487E-07
   5.13719988        -8.84149529E-07
   5.14919996        -9.01047258E-07
   5.16120005        -9.27807207E-07
   5.17320013        -9.65249228E-07
   5.18520021        -1.01364651E-06
   5.19719982        -1.07270660E-06
   5.20919991        -1.14157604E-06
   5.22119999        -1.21886842E-06
   5.23320007        -1.30271530E-06
   5.24520016        -1.39083750E-06
   5.25719976        -1.48063282E-06
   5.26919985        -1.56927740E-06
   5.28119993        -1.65383494E-06
   5.29320002        -1.73136959E-06
   5.30520010        -1.79905589E-06
   5.31720018        -1.85428246E-06
   5.32919979        -1.89474360E-06
   5.34119987        -1.91851586E-06
   5.35319996        -1.92411403E-06
   5.36520004        -1.91052845E-06
   5.37720013        -1.87723731E-06
   5.38920021        -1.82419842E-06
   5.40119982        -1.75181822E-06
   5.41319990        -1.66090263E-06
   5.42519999        -1.55258908E-06
   5.43720007        -1.42826832E-06
   5.44920015        -1.28949546E-06
   5.46120024        -1.13789872E-06
   5.47319984        -9.75090074E-07
   5.48519993        -8.02581155E-07
   5.49720001        -6.21713070E-07
   5.50920010        -4.33599411E-07
   5.52120018        -2.39090951E-07
   5.53319979        -3.87608523E-08
   5.54519987         1.67086242E-07
   5.55719995         3.78381685E-07
   5.56920004         5.95239442E-07
   5.58120012         8.17883404E-07
   5.59320021         1.04656078E-06
   5.60519981         1.28144666E-06
   5.61719990         1.52254529E-06
   5.62919998         1.76959679E-06
   5.64120007         2.02199294E-06
   5.65320015         2.27871033E-06
   5.66520023         2.53826556E-06
   5.67719984         2.79869710E-06
   5.68919992         3.05757521E-06
   5.70120001         3.31204251E-06
   5.71320009         3.55888415E-06
   5.72520018         3.79462335E-06
   5.73719978         4.01564103E-06
   5.74919987         4.21831237E-06
   5.76119995         4.39915493E-06
   5.77320004         4.55497911E-06
   5.78520012         4.68303688E-06
   5.79720020         4.78115680E-06
   5.80919981         4.84786642E-06
   5.82119989         4.88248634E-06
   5.83319998         4.88519390E-06
   5.84520006         4.85705914E-06
   5.85720015         4.80004110E-06
   5.86920023         4.71694966E-06
   5.88119984         4.61137097E-06
   5.89319992         4.48755736E-06
   5.90520000         4.35028824E-06
   5.91720009         4.20469996E-06
   5.92920017         4.05609944E-06
   5.94119978         3.90975765E-06
   5.95319986         3.77069568E-06
   5.96519995         3.64347102E-06
   5.97720003         3.53196765E-06
   5.98920012         3.43920578E-06
   6.00120020         3.36717221E-06
   6.01319981         3.31668275E-06
   6.02519989         3.28728424E-06
   6.03719997         3.27720022E-06
   6.04920006         3.28332931E-06
   6.06120014         3.30129524E-06
   6.07320023         3.32555214E-06
   6.08519983         3.34954666E-06
   6.09719992         3.36592780E-06
   6.10920000         3.36680660E-06
   6.12120008         3.34404831E-06
   6.13320017         3.28959550E-06
   6.14519978         3.19580545E-06
   6.15719986         3.05578874E-06
   6.16919994         2.86373415E-06
   6.18120003         2.61520927E-06
   6.19320011         2.30741625E-06
   6.20520020         1.93939536E-06
   6.21719980         1.51216125E-06
   6.22919989         1.02876800E-06
   6.24119997         4.94292635E-07
   6.25320005        -8.42602148E-08
   6.26520014        -6.98137569E-07
   6.27720022        -1.33708909E-06
   6.28919983        -1.98968678E-06
   6.30119991        -2.64370010E-06
   6.31320000        -3.28651277E-06
   6.32520008        -3.90556397E-06
   6.33720016        -4.48879837E-06
   6.34919977        -5.02510466E-06
   6.36119986        -5.50473169E-06
   6.37319994        -5.91965136E-06
   6.38520002        -6.26387146E-06
   6.39720011        -6.53367169E-06
   6.40920019        -6.72776014E-06
   6.42119980        -6.84733868E-06
   6.43319988        -6.89608123E-06
   6.44519997        -6.88001774E-06
   6.45720005        -6.80733547E-06
   6.46920013        -6.68809162E-06
   6.48120022        -6.53386678E-06
   6.49319983        -6.35735159E-06
   6.50519991        -6.17189471E-06
   6.51719999        -5.99102577E-06
   6.52920008        -5.82796429E-06
   6.54120016        -5.69514214E-06
   6.55319977        -5.60374701E-06
   6.56519985        -5.56330906E-06
   6.57719994        -5.58134207E-06
   6.58920002        -5.66305471E-06
   6.60120010        -5.81114136E-06
   6.61320019        -6.02565478E-06
   6.62519979        -6.30397790E-06
   6.63719988        -6.64088020E-06
   6.64919996        -7.02867101E-06
   6.66120005        -7.45743955E-06
   6.67320013        -7.91537150E-06
   6.68520021        -8.38913547E-06
   6.69719982        -8.86432645E-06
   6.70919991        -9.32594503E-06
   6.72119999        -9.75890634E-06
   6.73320007        -1.01485512E-05
   6.74520016        -1.04811470E-05
   6.75719976        -1.07443539E-05
   6.76919985        -1.09276543E-05
   6.78119993        -1.10227111E-05
   6.79320002        -1.10236542E-05
   6.80520010        -1.09272905E-05
   6.81720018        -1.07332044E-05
   6.82919979        -1.04437786E-05
   6.84119987        -1.00641073E-05
   6.85319996        -9.60181296E-06
   6.86520004        -9.06678724E-06
   6.87720013        -8.47084448E-06
   6.88920021        -7.82731331E-06
   6.90119982        -7.15058241E-06
   6.91319990        -6.45561431E-06
   6.92519999        -5.75744798E-06
   6.93720007        -5.07070672E-06
   6.94920015        -4.40913391E-06
   6.96120024        -3.78517211E-06
   6.97319984        -3.20959703E-06
   6.98519993        -2.69122461E-06
   6.99720001        -2.23669872E-06
   7.00920010        -1.85036413E-06
   7.02120018        -1.53422991E-06
   7.03319979        -1.28801980E-06
   7.04519987        -1.10930671E-06
   7.05719995        -9.93720278E-07
   7.06920004        -9.35216860E-07
   7.08120012        -9.26398911E-07
   7.09320021        -9.58866053E-07
   7.10519981        -1.02358229E-06
   7.11719990        -1.11124086E-06
   7.12919998        -1.21261382E-06
   7.14120007        -1.31886850E-06
   7.15320015        -1.42184149E-06
   7.16520023        -1.51425945E-06
   7.17719984        -1.58990076E-06
   7.18919992        -1.64369499E-06
   7.20120001        -1.67176108E-06
   7.21320009        -1.67138830E-06
   7.22520018        -1.64096309E-06
   7.23719978        -1.57985437E-06
   7.24919987        -1.48826371E-06
   7.26119995        -1.36705478E-06
   7.27320004        -1.21757137E-06
   7.28520012        -1.04145761E-06
   7.29720020        -8.40489747E-07
   7.30919981        -6.16430100E-07
   7.32119989        -3.70908793E-07
   7.33319998        -1.05344938E-07
   7.34520006         1.79093746E-07
   7.35720015         4.81491156E-07
   7.36920023         8.01142164E-07
   7.38119984         1.13747501E-06
   7.39319992         1.48994184E-06
   7.40520000         1.85788247E-06
   7.41720009         2.24037422E-06
   7.42920017         2.63607262E-06
   7.44119978         3.04305217E-06
   7.45319986         3.45866374E-06
   7.46519995         3.87941418E-06
   7.47720003         4.30088130E-06
   7.48920012         4.71767316E-06
   7.50120020         5.12343559E-06
   7.51319981         5.51092262E-06
   7.52519989         5.87212116E-06
   7.53719997         6.19844468E-06
   7.54920006         6.48098467E-06
   7.56120014         6.71081534E-06
   7.57320023         6.87934562E-06
   7.58519983         6.97869882E-06
   7.59719992         7.00211467E-06
   7.60920000         6.94434902E-06
   7.62120008         6.80205312E-06
   7.63320017         6.57411101E-06
   7.64519978         6.26191286E-06
   7.65719986         5.86954775E-06
   7.66919994         5.40390147E-06
   7.68120003         4.87463694E-06
   7.69320011         4.29406100E-06
   7.70520020         3.67685993E-06
   7.71719980         3.03971751E-06
   7.72919989         2.40082045E-06
   7.74119997         1.77926438E-06
   7.75320005         1.19438573E-06
   7.76520014         6.65040886E-07
   7.77720022         2.08864677E-07
   7.78919983        -1.58459343E-07
   7.80119991        -4.23886803E-07
   7.81320000        -5.77621790E-07
   7.82520008        -6.13620898E-07
   7.83720016        -5.29962790E-07
   7.84919977        -3.29062345E-07
   7.86119986        -1.77135622E-08
   7.87319994         3.93047372E-07
   7.88520002         8.88259251E-07
   7.89720011         1.44952844E-06
   7.90920019         2.05567858E-06
   7.92119980         2.68353574E-06
   7.93319988         3.30881880E-06
   7.94519997         3.90709965E-06
   7.95720005         4.45479145E-06
   7.96920013         4.93012658E-06
   7.98120022         5.31407431E-06
   7.99319983         5.59116688E-06
   8.00520039         5.75018203E-06
   8.01720047         5.78466461E-06
   8.02919960         5.69324629E-06
   8.04119968         5.47975242E-06
   8.05319977         5.15309011E-06
   8.06519985         4.72690999E-06
   8.07719994         4.21905906E-06
   8.08920002         3.65084702E-06
   8.10120010         3.04615105E-06
   8.11320019         2.43040540E-06
   8.12520027         1.82951430E-06
   8.13720036         1.26874454E-06
   8.14920044         7.71641339E-07
   8.16119957         3.59024568E-07
   8.17319965         4.81065321E-08
   8.18519974        -1.48227528E-07
   8.19719982        -2.21943168E-07
   8.20919991        -1.70163304E-07
   8.22119999         4.75149387E-09
   8.23320007         2.95350503E-07
   8.24520016         6.89456670E-07
   8.25720024         1.17072364E-06
   8.26920033         1.71935551E-06
   8.28120041         2.31295144E-06
   8.29319954         2.92743243E-06
   8.30519962         3.53800397E-06
   8.31719971         4.12011195E-06
   8.32919979         4.65034509E-06
   8.34119987         5.10725249E-06
   8.35319996         5.47203990E-06
   8.36520004         5.72912631E-06
   8.37720013         5.86654278E-06
   8.38920021         5.87617478E-06
   8.40120029         5.75384638E-06
   8.41320038         5.49925835E-06
   8.42520046         5.11579992E-06
   8.43719959         4.61025002E-06
   8.44919968         3.99239752E-06
   8.46119976         3.27460180E-06
   8.47319984         2.47132107E-06
   8.48519993         1.59862338E-06
   8.49720001         6.73709906E-07
   8.50920010        -2.85545013E-07
   8.52120018        -1.26101725E-06
   8.53320026        -2.23472011E-06
   8.54520035        -3.18914726E-06
   8.55720043        -4.10757548E-06
   8.56919956        -4.97432848E-06
   8.58119965        -5.77500714E-06
   8.59319973        -6.49669209E-06
   8.60519981        -7.12812152E-06
   8.61719990        -7.65985260E-06
   8.62919998        -8.08440382E-06
   8.64120007        -8.39637960E-06
   8.65320015        -8.59258216E-06
   8.66520023        -8.67208837E-06
   8.67720032        -8.63631340E-06
   8.68920040        -8.48902255E-06
   8.70119953        -8.23631490E-06
   8.71319962        -7.88654779E-06
   8.72519970        -7.45021271E-06
   8.73719978        -6.93975971E-06
   8.74919987        -6.36935692E-06
   8.76119995        -5.75460626E-06
   8.77320004        -5.11220605E-06
   8.78520012        -4.45957812E-06
   8.79720020        -3.81446443E-06
   8.80920029        -3.19450555E-06
   8.82120037        -2.61681680E-06
   8.83320045        -2.09757104E-06
   8.84519958        -1.65160657E-06
   8.85719967        -1.29207228E-06
   8.86919975        -1.03011894E-06
   8.88119984        -8.74650596E-07
   8.89319992        -8.32142234E-07
   8.90520000        -9.06528953E-07
   8.91720009        -1.09916732E-06
   8.92920017        -1.40887244E-06
   8.94120026        -1.83201928E-06
   8.95320034        -2.36271057E-06
   8.96520042        -2.99299381E-06
   8.97719955        -3.71312581E-06
   8.98919964        -4.51186634E-06
   9.00119972        -5.37679580E-06
   9.01319981        -6.29463966E-06
   9.02519989        -7.25159225E-06
   9.03719997        -8.23362734E-06
   9.04920006        -9.22679010E-06
   9.06120014        -1.02174581E-05
   9.07320023        -1.11925710E-05
   9.08520031        -1.21398180E-05