 -0.622799993       0.00000000    
 -0.610800028       0.00000000    
 -0.598800004       0.00000000    
 -0.586799979       0.00000000    
 -0.574800014       0.00000000    
 -0.562799990       0.00000000    
 -0.550800025      -6.15620579E-26
 -0.538800001      -1.01285234E-24
 -0.526799977      -7.87321680E-24
 -0.514800012      -3.97293323E-23
 -0.502799988      -1.48148242E-22
 -0.490799993      -4.37308892E-22
 -0.478799999      -1.06527029E-21
 -0.466800004      -2.20163107E-21
 -0.454800010      -3.94243408E-21
 -0.442799985      -6.24137337E-21
 -0.430799991      -8.96783580E-21
 -0.418799996      -1.21708778E-20
 -0.406800002      -1.64600719E-20
 -0.394800007      -2.31684162E-20
 -0.382800013      -3.38547609E-20
 -0.370799989      -4.90068227E-20
 -0.358799994      -6.66012807E-20
 -0.346799999      -8.20846671E-20
 -0.334800005      -9.15059635E-20
 -0.322800010      -9.80876005E-20
 -0.310799986      -1.19415619E-19
 -0.298799992      -1.89148276E-19
 -0.286799997      -3.46551790E-19
 -0.274800003      -6.12000330E-19
 -0.262800008      -9.56936713E-19
 -0.250800014      -1.28818905E-18
 -0.238800004      -1.47040546E-18
 -0.226799995      -1.39822547E-18
 -0.214800000      -1.10009562E-18
 -0.202800006      -8.19345351E-19
 -0.190799996      -9.98316526E-19
 -0.178800002      -2.11308375E-18
 -0.166800007      -4.37949907E-18
 -0.154799998      -7.45444994E-18
 -0.142800003      -1.03339939E-17
 -0.130799994      -1.16333788E-17
 -0.118799999      -1.02808822E-17
 -0.106799997      -6.39667660E-18
  -9.48000029E-02  -1.87696669E-18
  -8.28000009E-02  -1.36272771E-19
  -7.07999989E-02  -4.71912619E-18
  -5.88000007E-02  -1.70782489E-17
  -4.67999987E-02  -3.45165761E-17
  -3.48000005E-02  -4.97108119E-17
  -2.28000004E-02  -5.29603777E-17
  -1.08000003E-02  -3.71606423E-17
   1.20000006E-03  -3.76858359E-18
   1.31999999E-02   3.34938235E-17
   2.52000000E-02   5.07154624E-17
   3.72000001E-02   2.33861793E-17
   4.91999984E-02  -5.85061539E-17
   6.12000003E-02  -1.76266484E-16
   7.32000023E-02  -2.78275999E-16
   8.51999968E-02  -2.93481352E-16
   9.71999988E-02  -1.63667809E-16
  0.109200001       1.14903050E-16
  0.121200003       4.60017188E-16
  0.133200005       7.05473942E-16
  0.145199999       6.52097473E-16
  0.157199994       1.63343607E-16
  0.169200003      -7.25881931E-16
  0.181199998      -1.74070109E-15
  0.193200007      -2.39468920E-15
  0.205200002      -2.14600371E-15
  0.217199996      -6.58134065E-16
  0.229200006       1.92327026E-15
  0.241200000       4.81395590E-15
  0.253199995       6.68975653E-15
  0.265199989       6.10404595E-15
  0.277200013       2.15454096E-15
  0.289200008      -4.82348121E-15
  0.301200002      -1.28665457E-14
  0.313199997      -1.86119397E-14
  0.325199991      -1.82931114E-14
  0.337199986      -9.34144695E-15
  0.349200010       7.91487152E-15
  0.361200005       2.92065668E-14
  0.373199999       4.66684830E-14
  0.385199994       5.09479442E-14
  0.397199988       3.47875517E-14
  0.409200013      -2.97323769E-15
  0.421200007      -5.45956916E-14
  0.433200002      -1.03493372E-13
  0.445199996      -1.28114099E-13
  0.457199991      -1.09298597E-13
  0.469199985      -3.91518618E-14
  0.481200010       7.18215973E-14
  0.493200004       1.92873983E-13
  0.505200028       2.78919520E-13
  0.517199993       2.84184487E-13
  0.529200017       1.80404587E-13
  0.541199982      -2.64425610E-14
  0.553200006      -2.88046171E-13
  0.565199971      -5.20070478E-13
  0.577199996      -6.24489664E-13
  0.589200020      -5.23665150E-13
  0.601199985      -1.96091122E-13
  0.613200009       2.99615665E-13
  0.625199974       8.24864753E-13
  0.637199998       1.19165853E-12
  0.649200022       1.21981700E-12
  0.661199987       8.06062248E-13
  0.673200011      -1.78983974E-14
  0.685199976      -1.06247758E-12
  0.697200000      -2.00930158E-12
  0.709200025      -2.49382633E-12
  0.721199989      -2.22387039E-12
  0.733200014      -1.09968317E-12
  0.745199978       7.06637060E-13
  0.757200003       2.74880444E-12
  0.769200027       4.39766496E-12
  0.781199992       5.01333090E-12
  0.793200016       4.15498365E-12
  0.805199981       1.76459314E-12
  0.817200005      -1.74134004E-12
  0.829200029      -5.51780496E-12
  0.841199994      -8.48208483E-12
  0.853200018      -9.60945646E-12
  0.865199983      -8.25375879E-12
  0.877200007      -4.39402551E-12
  0.889199972       1.28004204E-12
  0.901199996       7.48900594E-12
  0.913200021       1.26747970E-11
  0.925199986       1.54230118E-11
  0.937200010       1.48743969E-11
  0.949199975       1.09965474E-11
  0.961199999       4.62151411E-12
  0.973200023      -2.77637613E-12
  0.985199988      -9.50603138E-12
  0.997200012      -1.41622313E-11
   1.00919998      -1.60465287E-11
   1.02119994      -1.53652074E-11
   1.03320003      -1.31288556E-11
   1.04519999      -1.07730604E-11
   1.05719995      -9.61384965E-12
   1.06920004      -1.03140127E-11
   1.08120000      -1.25439086E-11
   1.09319997      -1.49682124E-11
   1.10520005      -1.55925550E-11
   1.11720002      -1.23914368E-11
   1.12919998      -4.04809216E-12
   1.14119995       9.40027049E-12
   1.15320003       2.61876822E-11
   1.16520000       4.27994272E-11
   1.17719996       5.42639926E-11
   1.18920004       5.45910955E-11
   1.20120001       3.71096487E-11
   1.21319997      -5.55495840E-12
   1.22520006      -8.20681578E-11
   1.23720002      -2.03631015E-10
   1.24919999      -3.85862786E-10
   1.26119995      -6.51188992E-10
   1.27320004      -1.03159270E-09
   1.28520000      -1.57161850E-09
   1.29719996      -2.33171371E-09
   1.30920005      -3.39218964E-09
   1.32120001      -4.85841456E-09
   1.33319998      -6.86819401E-09
   1.34519994      -9.60264224E-09
   1.35720003      -1.33023184E-08
   1.36919999      -1.82906152E-08
   1.38119996      -2.50069441E-08
   1.39320004      -3.40524622E-08
   1.40520000      -4.62512197E-08
   1.41719997      -6.27299883E-08
   1.42920005      -8.50195505E-08
   1.44120002      -1.15179780E-07
   1.45319998      -1.55950175E-07
   1.46519995      -2.10925904E-07
   1.47720003      -2.84758244E-07
   1.48920000      -3.83374726E-07
   1.50119996      -5.14213582E-07
   1.51320004      -6.86461590E-07
   1.52520001      -9.11283848E-07
   1.53719997      -1.20202913E-06
   1.54920006      -1.57438933E-06
   1.56120002      -2.04649564E-06
   1.57319999      -2.63892525E-06
   1.58519995      -3.37459596E-06
   1.59720004      -4.27853047E-06
   1.60920000      -5.37746655E-06
   1.62119997      -6.69930296E-06
   1.63320005      -8.27238000E-06
   1.64520001      -1.01245914E-05
   1.65719998      -1.22823476E-05
   1.66919994      -1.47694072E-05
   1.68120003      -1.76056255E-05
   1.69319999      -2.08056463E-05
   1.70519996      -2.43776230E-05
   1.71720004      -2.83219833E-05
   1.72920001      -3.26303634E-05
   1.74119997      -3.72847135E-05
   1.75320005      -4.22567136E-05
   1.76520002      -4.75074667E-05
   1.77719998      -5.29876124E-05
   1.78919995      -5.86378046E-05
   1.80120003      -6.43896346E-05
   1.81320000      -7.01669778E-05
   1.82519996      -7.58876777E-05
   1.83720005      -8.14656014E-05
   1.84920001      -8.68129719E-05
   1.86119998      -9.18428268E-05
   1.87320006      -9.64716019E-05
   1.88520002      -1.00621633E-04
   1.89719999      -1.04223596E-04
   1.90919995      -1.07218606E-04
   1.92120004      -1.09560053E-04
   1.93320000      -1.11215006E-04
   1.94519997      -1.12165108E-04
   1.95720005      -1.12407040E-04
   1.96920002      -1.11952359E-04
   1.98119998      -1.10826979E-04
   1.99319994      -1.09070075E-04
   2.00519991      -1.06732616E-04
   2.01719999      -1.03875638E-04
   2.02920008      -1.00568213E-04
   2.04119992      -9.68852473E-05
   2.05320001      -9.29053640E-05
   2.06520009      -8.87087153E-05
   2.07719994      -8.43749513E-05
   2.08920002      -7.99813643E-05
   2.10120010      -7.56013251E-05
   2.11319995      -7.13028858E-05
   2.12520003      -6.71477392E-05
   2.13720012      -6.31903822E-05
   2.14919996      -5.94775847E-05
   2.16120005      -5.60480548E-05
   2.17319989      -5.29323297E-05
   2.18519998      -5.01528120E-05
   2.19720006      -4.77239810E-05
   2.20919991      -4.56526905E-05
   2.22119999      -4.39385949E-05
   2.23320007      -4.25746657E-05
   2.24519992      -4.15477662E-05
   2.25720000      -4.08393098E-05
   2.26920009      -4.04259918E-05
   2.28119993      -4.02805781E-05
   2.29320002      -4.03727354E-05
   2.30520010      -4.06699291E-05
   2.31719995      -4.11383189E-05
   2.32920003      -4.17436713E-05
   2.34120011      -4.24522696E-05
   2.35319996      -4.32317247E-05
   2.36520004      -4.40517688E-05
   2.37719989      -4.48849132E-05
   2.38919997      -4.57069764E-05
   2.40120006      -4.64975019E-05
   2.41319990      -4.72399552E-05
   2.42519999      -4.79218434E-05
   2.43720007      -4.85345736E-05
   2.44919991      -4.90732491E-05
   2.46120000      -4.95362910E-05
   2.47320008      -4.99249436E-05
   2.48519993      -5.02427247E-05
   2.49720001      -5.04948293E-05
   2.50920010      -5.06874858E-05
   2.52119994      -5.08273697E-05
   2.53320003      -5.09210440E-05
   2.54520011      -5.09744750E-05
   2.55719995      -5.09926358E-05
   2.56920004      -5.09792408E-05
   2.58119988      -5.09365855E-05
   2.59319997      -5.08655212E-05
   2.60520005      -5.07656005E-05
   2.61719990      -5.06352917E-05
   2.62919998      -5.04723903E-05
   2.64120007      -5.02745352E-05
   2.65319991      -5.00397873E-05
   2.66520000      -4.97673682E-05
   2.67720008      -4.94583619E-05
   2.68919992      -4.91165010E-05
   2.70120001      -4.87488724E-05
   2.71320009      -4.83665863E-05
   2.72519994      -4.79852715E-05
   2.73720002      -4.76254718E-05
   2.74920011      -4.73127184E-05
   2.76119995      -4.70774830E-05
   2.77320004      -4.69547631E-05
   2.78520012      -4.69834122E-05
   2.79719996      -4.72051761E-05
   2.80920005      -4.76634705E-05
   2.82119989      -4.84018819E-05
   2.83319998      -4.94624765E-05
   2.84520006      -5.08840094E-05
   2.85719991      -5.26999902E-05
   2.86919999      -5.49368233E-05
   2.88120008      -5.76120256E-05
   2.89319992      -6.07326256E-05
   2.90520000      -6.42938539E-05
   2.91720009      -6.82781902E-05
   2.92919993      -7.26547878E-05
   2.94120002      -7.73794382E-05
   2.95320010      -8.23949449E-05
   2.96519995      -8.76321137E-05
   2.97720003      -9.30110909E-05
   2.98920012      -9.84432845E-05
   3.00119996      -1.03833561E-04
   3.01320004      -1.09082859E-04
   3.02519989      -1.14090944E-04
   3.03719997      -1.18759315E-04
   3.04920006      -1.22994126E-04
   3.06119990      -1.26708910E-04
   3.07319999      -1.29827298E-04
   3.08520007      -1.32285117E-04
   3.09719992      -1.34032380E-04
   3.10920000      -1.35034657E-04
   3.12120008      -1.35273804E-04
   3.13319993      -1.34748479E-04
   3.14520001      -1.33473717E-04
   3.15720010      -1.31480250E-04
   3.16919994      -1.28813190E-04
   3.18120003      -1.25530365E-04
   3.19320011      -1.21700192E-04
   3.20519996      -1.17399446E-04
   3.21720004      -1.12710673E-04
   3.22919989      -1.07719665E-04
   3.24119997      -1.02512859E-04
   3.25320005      -9.71749032E-05
   3.26519990      -9.17864163E-05
   3.27719998      -8.64219983E-05
   3.28920007      -8.11485661E-05
   3.30119991      -7.60240946E-05
   3.31320000      -7.10967579E-05
   3.32520008      -6.64045365E-05
   3.33719993      -6.19751809E-05
   3.34920001      -5.78266554E-05
   3.36120009      -5.39678367E-05
   3.37319994      -5.03996416E-05
   3.38520002      -4.71162784E-05
   3.39720011      -4.41067205E-05
   3.40919995      -4.13562157E-05
   3.42120004      -3.88477820E-05
   3.43319988      -3.65636224E-05
   3.44519997      -3.44863874E-05
   3.45720005      -3.26001937E-05
   3.46919990      -3.08914096E-05
   3.48119998      -2.93491539E-05
   3.49320006      -2.79655123E-05
   3.50519991      -2.67354953E-05
   3.51719999      -2.56567619E-05
   3.52920008      -2.47291573E-05
   3.54119992      -2.39541278E-05
   3.55320001      -2.33340452E-05
   3.56520009      -2.28715489E-05
   3.57719994      -2.25689000E-05
   3.58920002      -2.24274263E-05
   3.60120010      -2.24471005E-05
   3.61319995      -2.26262091E-05
   3.62520003      -2.29612087E-05
   3.63720012      -2.34466497E-05
   3.64919996      -2.40752488E-05
   3.66120005      -2.48380002E-05
   3.67319989      -2.57243537E-05
   3.68519998      -2.67223713E-05
   3.69720006      -2.78188909E-05
   3.70919991      -2.89996242E-05
   3.72119999      -3.02492099E-05
   3.73320007      -3.15512079E-05
   3.74519992      -3.28880560E-05
   3.75720000      -3.42410021E-05
   3.76920009      -3.55900302E-05
   3.78119993      -3.69138615E-05
   3.79320002      -3.81899990E-05
   3.80520010      -3.93948867E-05
   3.81719995      -4.05042229E-05
   3.82920003      -4.14933747E-05
   3.84120011      -4.23379752E-05
   3.85319996      -4.30145992E-05
   3.86520004      -4.35015754E-05
   3.87719989      -4.37798153E-05
   3.88919997      -4.38336683E-05
   3.90120006      -4.36516966E-05
   3.91319990      -4.32273773E-05
   3.92519999      -4.25596008E-05
   3.93720007      -4.16530274E-05
   3.94919991      -4.05181454E-05
   3.96120000      -3.91711292E-05
   3.97320008      -3.76334137E-05
   3.98519993      -3.59310252E-05
   3.99720001      -3.40937258E-05
   4.00920010      -3.21539665E-05
   4.02120018      -3.01457239E-05
   4.03319979      -2.81032553E-05
   4.04519987      -2.60598808E-05
   4.05719995      -2.40468089E-05
   4.06920004      -2.20920556E-05
   4.08120012      -2.02195642E-05
   4.09320021      -1.84484888E-05
   4.10519981      -1.67927283E-05
   4.11719990      -1.52606899E-05
   4.12919998      -1.38553178E-05
   4.14120007      -1.25743409E-05
   4.15320015      -1.14107552E-05
   4.16520023      -1.03534967E-05
   4.17719984      -9.38827634E-06
   4.18919992      -8.49852768E-06
   4.20120001      -7.66642370E-06
   4.21320009      -6.87392776E-06
   4.22520018      -6.10380721E-06
   4.23719978      -5.34059473E-06
   4.24919987      -4.57141687E-06
   4.26119995      -3.78669120E-06
   4.27320004      -2.98063446E-06
   4.28520012      -2.15156706E-06
   4.29720020      -1.30200408E-06
   4.30919981      -4.38525632E-07
   4.32119989       4.28566409E-07
   4.33319998       1.28578995E-06
   4.34520006       2.11719953E-06
   4.35720015       2.90523076E-06
   4.36920023       3.63163895E-06
   4.38119984       4.27847681E-06
   4.39319992       4.82906262E-06
   4.40520000       5.26888471E-06
   4.41720009       5.58638885E-06
   4.42920017       5.77361970E-06
   4.44119978       5.82666644E-06
   4.45319986       5.74590740E-06
   4.46519995       5.53603877E-06
   4.47720003       5.20589128E-06
   4.48920012       4.76805508E-06
   4.50120020       4.23833853E-06
   4.51319981       3.63509935E-06
   4.52519989       2.97847669E-06
   4.53719997       2.28957629E-06
   4.54920006       1.58964065E-06
   4.56120014       8.99239751E-07
   4.57320023       2.37518947E-07
   4.58519983      -3.78482980E-07
   4.59719992      -9.34418381E-07
   4.60920000      -1.41911028E-06
   4.62120008      -1.82491317E-06
   4.63320017      -2.14795591E-06
   4.64519978      -2.38825669E-06
   4.65719986      -2.54971201E-06
   4.66919994      -2.63995275E-06
   4.68120003      -2.67007704E-06
   4.69320011      -2.65425820E-06
   4.70520020      -2.60923298E-06
   4.71719980      -2.55368741E-06
   4.72919989      -2.50755215E-06
   4.74119997      -2.49122763E-06
   4.75320005      -2.52476775E-06
   4.76520014      -2.62705453E-06
   4.77720022      -2.81499024E-06
   4.78919983      -3.10275141E-06
   4.80119991      -3.50113510E-06
   4.81320000      -4.01703710E-06
   4.82520008      -4.65307630E-06
   4.83720016      -5.40740893E-06
   4.84919977      -6.27372674E-06
   4.86119986      -7.24144866E-06
   4.87319994      -8.29610872E-06
   4.88520002      -9.41990129E-06
   4.89720011      -1.05923718E-05
   4.90920019      -1.17912205E-05
   4.92119980      -1.29931532E-05
   4.93319988      -1.41747714E-05
   4.94519997      -1.53134297E-05
   4.95720005      -1.63880268E-05
   4.96920013      -1.73797143E-05
   4.98120022      -1.82724561E-05
   4.99319983      -1.90534756E-05
   5.00519991      -1.97135250E-05
   5.01719999      -2.02470310E-05
   5.02920008      -2.06520926E-05
   5.04120016      -2.09303525E-05
   5.05319977      -2.10867747E-05
   5.06519985      -2.11293263E-05
   5.07719994      -2.10686230E-05
   5.08920002      -2.09175123E-05
   5.10120010      -2.06906279E-05
   5.11320019      -2.04039479E-05
   5.12519979      -2.00743125E-05
   5.13719988      -1.97189620E-05
   5.14919996      -1.93550695E-05
   5.16120005      -1.89992606E-05
   5.17320013      -1.86671696E-05
   5.18520021      -1.83729862E-05
   5.19719982      -1.81290561E-05
   5.20919991      -1.79455055E-05
   5.22119999      -1.78299488E-05
   5.23320007      -1.77872607E-05
   5.24520016      -1.78194641E-05
   5.25719976      -1.79257277E-05
   5.26919985      -1.81025025E-05
   5.28119993      -1.83437860E-05
   5.29320002      -1.86415364E-05
   5.30520010      -1.89862021E-05
   5.31720018      -1.93673495E-05
   5.32919979      -1.97743466E-05
   5.34119987      -2.01970815E-05
   5.35319996      -2.06266541E-05
   5.36520004      -2.10559629E-05
   5.37720013      -2.14801967E-05
   5.38920021      -2.18971454E-05
   5.40119982      -2.23073221E-05
   5.41319990      -2.27138498E-05
   5.42519999      -2.31221729E-05
   5.43720007      -2.35395364E-05
   5.44920015      -2.39743385E-05
   5.46120024      -2.44353232E-05
   5.47319984      -2.49307304E-05
   5.48519993      -2.54674342E-05
   5.49720001      -2.60501438E-05
   5.50920010      -2.66807037E-05
   5.52120018      -2.73575861E-05
   5.53319979      -2.80755849E-05
   5.54519987      -2.88257470E-05
   5.55719995      -2.95955579E-05
   5.56920004      -3.03693632E-05
   5.58120012      -3.11290132E-05
   5.59320021      -3.18546699E-05
   5.60519981      -3.25257497E-05
   5.61719990      -3.31218944E-05
   5.62919998      -3.36239755E-05
   5.64120007      -3.40150073E-05
   5.65320015      -3.42809617E-05
   5.66520023      -3.44114087E-05
   5.67719984      -3.43999964E-05
   5.68919992      -3.42447238E-05
   5.70120001      -3.39479957E-05
   5.71320009      -3.35165169E-05
   5.72520018      -3.29609975E-05
   5.73719978      -3.22957385E-05
   5.74919987      -3.15380712E-05
   5.76119995      -3.07077789E-05
   5.77320004      -2.98264258E-05
   5.78520012      -2.89167128E-05
   5.79720020      -2.80018539E-05
   5.80919981      -2.71049867E-05
   5.82119989      -2.62486574E-05
   5.83319998      -2.54543666E-05
   5.84520006      -2.47421904E-05
   5.85720015      -2.41304606E-05
   5.86920023      -2.36355081E-05
   5.88119984      -2.32714301E-05
   5.89319992      -2.30499154E-05
   5.90520000      -2.29800444E-05
   5.91720009      -2.30681380E-05
   5.92920017      -2.33175870E-05
   5.94119978      -2.37287095E-05
   5.95319986      -2.42986207E-05
   5.96519995      -2.50211378E-05
   5.97720003      -2.58867476E-05
   5.98920012      -2.68826479E-05
   6.00120020      -2.79928518E-05
   6.01319981      -2.91984343E-05
   6.02519989      -3.04778532E-05
   6.03719997      -3.18074090E-05
   6.04920006      -3.31617666E-05
   6.06120014      -3.45146109E-05
   6.07320023      -3.58393117E-05
   6.08519983      -3.71096394E-05
   6.09719992      -3.83004990E-05
   6.10920000      -3.93885748E-05
   6.12120008      -4.03529557E-05
   6.13320017      -4.11756191E-05
   6.14519978      -4.18418167E-05
   6.15719986      -4.23403035E-05
   6.16919994      -4.26634178E-05
   6.18120003      -4.28070452E-05
   6.19320011      -4.27704181E-05
   6.20520020      -4.25558173E-05
   6.21719980      -4.21682053E-05
   6.22919989      -4.16148323E-05
   6.24119997      -4.09047934E-05
   6.25320005      -4.00486824E-05
   6.26520014      -3.90582536E-05
   6.27720022      -3.79462290E-05
   6.28919983      -3.67261709E-05
   6.30119991      -3.54124932E-05
   6.31320000      -3.40205370E-05
   6.32520008      -3.25667461E-05
   6.33720016      -3.10688883E-05
   6.34919977      -2.95462469E-05
   6.36119986      -2.80197983E-05
   6.37319994      -2.65123072E-05
   6.38520002      -2.50482881E-05
   6.39720011      -2.36538199E-05
   6.40920019      -2.23561947E-05
   6.42119980      -2.11833667E-05
   6.43319988      -2.01632320E-05
   6.44519997      -1.93227424E-05
   6.45720005      -1.86868947E-05
   6.46920013      -1.82776330E-05
   6.48120022      -1.81127416E-05
   6.49319983      -1.82047515E-05
   6.50519991      -1.85599893E-05
   6.51719999      -1.91777817E-05
   6.52920008      -2.00499071E-05
   6.54120016      -2.11603256E-05
   6.55319977      -2.24852520E-05
   6.56519985      -2.39935507E-05
   6.57719994      -2.56474705E-05
   6.58920002      -2.74036956E-05
   6.60120010      -2.92146615E-05
   6.61320019      -3.10300857E-05
   6.62519979      -3.27986563E-05
   6.63719988      -3.44697546E-05
   6.64919996      -3.59952137E-05
   6.66120005      -3.73309413E-05
   6.67320013      -3.84384293E-05
   6.68520021      -3.92860093E-05
   6.69719982      -3.98498451E-05
   6.70919991      -4.01146426E-05
   6.72119999      -4.00739773E-05
   6.73320007      -3.97303484E-05
   6.74520016      -3.90948699E-05
   6.75719976      -3.81866703E-05
   6.76919985      -3.70320522E-05
   6.78119993      -3.56634300E-05
   6.79320002      -3.41181258E-05
   6.80520010      -3.24370558E-05
   6.81720018      -3.06634283E-05
   6.82919979      -2.88414303E-05
   6.84119987      -2.70150085E-05
   6.85319996      -2.52267582E-05
   6.86520004      -2.35169591E-05
   6.87720013      -2.19227823E-05
   6.88920021      -2.04776497E-05
   6.90119982      -1.92107564E-05
   6.91319990      -1.81467676E-05
   6.92519999      -1.73056160E-05
   6.93720007      -1.67024318E-05
   6.94920015      -1.63475506E-05
   6.96120024      -1.62465749E-05
   6.97319984      -1.64004905E-05
   6.98519993      -1.68058104E-05
   6.99720001      -1.74547258E-05
   7.00920010      -1.83352804E-05
   7.02120018      -1.94315453E-05
   7.03319979      -2.07238245E-05
   7.04519987      -2.21888931E-05
   7.05719995      -2.38002667E-05
   7.06920004      -2.55285304E-05
   7.08120012      -2.73417500E-05
   7.09320021      -2.92059594E-05
   7.10519981      -3.10857358E-05
   7.11719990      -3.29448958E-05
   7.12919998      -3.47472269E-05
   7.14120007      -3.64573461E-05
   7.15320015      -3.80415695E-05
   7.16520023      -3.94687886E-05
   7.17719984      -4.07113403E-05
   7.18919992      -4.17457995E-05
   7.20120001      -4.25536527E-05
   7.21320009      -4.31218359E-05
   7.22520018      -4.34430985E-05
   7.23719978      -4.35161528E-05
   7.24919987      -4.33456626E-05
   7.26119995      -4.29420143E-05
   7.27320004      -4.23208803E-05
   7.28520012      -4.15026661E-05
   7.29720020      -4.05117862E-05
   7.30919981      -3.93758382E-05
   7.32119989      -3.81247519E-05
   7.33319998      -3.67898647E-05
   7.34520006      -3.54030162E-05
   7.35720015      -3.39956969E-05
   7.36920023      -3.25982583E-05
   7.38119984      -3.12392294E-05
   7.39319992      -2.99447365E-05
   7.40520000      -2.87380553E-05
   7.41720009      -2.76392784E-05
   7.42920017      -2.66651132E-05
   7.44119978      -2.58287855E-05
   7.45319986      -2.51400179E-05
   7.46519995      -2.46051077E-05
   7.47720003      -2.42270307E-05
   7.48920012      -2.40055942E-05
   7.50120020      -2.39376259E-05
   7.51319981      -2.40171557E-05
   7.52519989      -2.42356364E-05
   7.53719997      -2.45821575E-05
   7.54920006      -2.50437115E-05
   7.56120014      -2.56054391E-05
   7.57320023      -2.62509566E-05
   7.58519983      -2.69626998E-05
   7.59719992      -2.77222953E-05
   7.60920000      -2.85110018E-05
   7.62120008      -2.93101548E-05
   7.63320017      -3.01016516E-05
   7.64519978      -3.08684357E-05
   7.65719986      -3.15949801E-05
   7.66919994      -3.22677115E-05
   7.68120003      -3.28754068E-05
   7.69320011      -3.34095130E-05
   7.70520020      -3.38643549E-05
   7.71719980      -3.42372368E-05
   7.72919989      -3.45284570E-05
   7.74119997      -3.47411624E-05
   7.75320005      -3.48810790E-05
   7.76520014      -3.49561524E-05
   7.77720022      -3.49760412E-05
   7.78919983      -3.49515831E-05
   7.80119991      -3.48941394E-05
   7.81320000      -3.48149806E-05
   7.82520008      -3.47246241E-05
   7.83720016      -3.46322595E-05
   7.84919977      -3.45452281E-05
   7.86119986      -3.44686232E-05
   7.87319994      -3.44050059E-05
   7.88520002      -3.43542597E-05
   7.89720011      -3.43136344E-05
   7.90920019      -3.42778694E-05
   7.92119980      -3.42395178E-05
   7.93319988      -3.41893356E-05
   7.94519997      -3.41168234E-05
   7.95720005      -3.40107945E-05
   7.96920013      -3.38600075E-05
   7.98120022      -3.36538178E-05
   7.99319983      -3.33828175E-05
   8.00520039      -3.30394105E-05
   8.01720047      -3.26183545E-05
   8.02919960      -3.21171756E-05
   8.04119968      -3.15364923E-05
   8.05319977      -3.08801937E-05
   8.06519985      -3.01554992E-05
   8.07719994      -2.93728699E-05
   8.08920002      -2.85457845E-05
   8.10120010      -2.76903902E-05
   8.11320019      -2.68250515E-05
   8.12520027      -2.59697863E-05
   8.13720036      -2.51456458E-05
   8.14920044      -2.43740178E-05
   8.16119957      -2.36759206E-05
   8.17319965      -2.30712667E-05
   8.18519974      -2.25781569E-05
   8.19719982      -2.22121926E-05
   8.20919991      -2.19858921E-05
   8.22119999      -2.19081667E-05
   8.23320007      -2.19839385E-05
   8.24520016      -2.22138933E-05
   8.25720024      -2.25944023E-05
   8.26920033      -2.31176145E-05
   8.28120041      -2.37717377E-05
   8.29319954      -2.45414794E-05
   8.30519962      -2.54086590E-05
   8.31719971      -2.63529291E-05
   8.32919979      -2.73526075E-05
   8.34119987      -2.83855552E-05
   8.35319996      -2.94300644E-05
   8.36520004      -3.04657042E-05
   8.37720013      -3.14740646E-05
   8.38920021      -3.24394350E-05
   8.40120029      -3.33492389E-05
   8.41320038      -3.41943814E-05
   8.42520046      -3.49693182E-05
   8.43719959      -3.56719793E-05
   8.44919968      -3.63034742E-05
   8.46119976      -3.68676119E-05
   8.47319984      -3.73702933E-05
   8.48519993      -3.78187833E-05
   8.49720001      -3.82209473E-05
   8.50920010      -3.85844469E-05
   8.52120018      -3.89160377E-05
   8.53320026      -3.92209331E-05
   8.54520035      -3.95023490E-05
   8.55720043      -3.97612239E-05
   8.56919956      -3.99961318E-05
   8.58119965      -4.02034384E-05
   8.59319973      -4.03776357E-05
   8.60519981      -4.05118699E-05
   8.61719990      -4.05985884E-05
   8.62919998      -4.06303079E-05
   8.64120007      -4.06003892E-05
   8.65320015      -4.05038372E-05
   8.66520023      -4.03379854E-05
   8.67720032      -4.01030884E-05
   8.68920040      -3.98027587E-05
   8.70119953      -3.94441631E-05
   8.71319962      -3.90380410E-05
   8.72519970      -3.85984386E-05
   8.73719978      -3.81422833E-05
   8.74919987      -3.76886710E-05
   8.76119995      -3.72580471E-05
   8.77320004      -3.68712244E-05
   8.78520012      -3.65483247E-05
   8.79720020      -3.63077233E-05
   8.80920029      -3.61650455E-05
   8.82120037      -3.61322454E-05
   8.83320045      -3.62168721E-05
   8.84519958      -3.64215230E-05
   8.85719967      -3.67435314E-05
   8.86919975      -3.71749265E-05
   8.88119984      -3.77026190E-05
   8.89319992      -3.83088300E-05
   8.90520000      -3.89717643E-05
   8.91720009      -3.96664254E-05
   8.92920017      -4.03656049E-05
   8.94120026      -4.10409375E-05
   8.95320034      -4.16639996E-05
   8.96520042      -4.22074081E-05
   8.97719955      -4.26458137E-05
   8.98919964      -4.29568245E-05
   9.00119972      -4.31217559E-05
   9.01319981      -4.31262306E-05
   9.02519989      -4.29605316E-05
   9.03719997      -4.26197912E-05
   9.04920006      -4.21039513E-05
   9.06120014      -4.14175120E-05
   9.07320023      -4.05691208E-05
   9.08520031      -3.95709867E-05
   9.09720039      -3.84381965E-05
   9.10919952      -3.71879578E-05
   9.12119961      -3.58387733E-05
   9.13319969      -3.44096989E-05
   9.14519978      -3.29196046E-05
   9.15719986      -3.13865530E-05
   9.16919994      -2.98273117E-05
   9.18120003      -2.82569927E-05
   9.19320011      -2.66888819E-05
   9.20520020      -2.51344063E-05
   9.21720028      -2.36032465E-05
   9.22920036      -2.21036062E-05
   9.24120045      -2.06425575E-05
   9.25319958      -1.92264815E-05
   9.26519966      -1.78615337E-05
   9.27719975      -1.65540860E-05
   9.28919983      -1.53111614E-05
   9.30119991      -1.41407609E-05
   9.31320000      -1.30521021E-05
   9.32520008      -1.20557115E-05
   9.33720016      -1.11633863E-05
   9.34920025      -1.03880147E-05
   9.36120033      -9.74324576E-06
   9.37320042      -9.24304004E-06
   9.38519955      -8.90113461E-06
   9.39719963      -8.73041608E-06
   9.40919971      -8.74228044E-06
   9.42119980      -8.94597270E-06
   9.43319988      -9.34798481E-06
   9.44519997      -9.95150458E-06
