 -0.622799993         1.00000002E-24
 -0.610800028         1.00000002E-24
 -0.598800004         1.00000002E-24
 -0.586799979         1.00000002E-24
 -0.574800014         1.00000002E-24
 -0.562799990         1.00000002E-24
 -0.550800025         1.00000002E-24
 -0.538800001         1.00000002E-24
 -0.526799977         1.00000002E-24
 -0.514800012         1.00000002E-24
 -0.502799988         1.00000012E-24
 -0.490799993         1.00000022E-24
 -0.478799999         1.00000032E-24
 -0.466800004         1.00000041E-24
 -0.454800010         1.00000041E-24
 -0.442799985         1.00000041E-24
 -0.430799991         1.00000041E-24
 -0.418799996         1.00000041E-24
 -0.406800002         1.00000041E-24
 -0.394800007         1.00000022E-24
 -0.382800013         1.00000002E-24
 -0.370799989         9.99999724E-25
 -0.358799994         9.99999428E-25
 -0.346799999         9.99999033E-25
 -0.334800005         9.99997653E-25
 -0.322800010         9.99992723E-25
 -0.310799986         9.99979016E-25
 -0.298799992         9.99951110E-25
 -0.286799997         9.99916203E-25
 -0.274800003         9.99927346E-25
 -0.262800008         1.00014290E-24
 -0.250800014         1.00089321E-24
 -0.238800004         1.00268422E-24
 -0.226799995         1.00598974E-24
 -0.214800000         1.01062627E-24
 -0.202800006         1.01456525E-24
 -0.190799996         1.01235891E-24
 -0.178800002         9.94048064E-25
 -0.166800007         9.46393273E-25
 -0.154799998         8.59066962E-25
 -0.142800003         7.38066940E-25
 -0.130799994         6.25792953E-25
 -0.118799999         6.20997517E-25
 -0.106799997         8.82825382E-25
  -9.48000029E-02     1.59492519E-24
  -8.28000009E-02     2.86531340E-24
  -7.07999989E-02     4.55472746E-24
  -5.88000007E-02     6.06798159E-24
  -4.67999987E-02     6.20727233E-24
  -3.48000005E-02     3.25378401E-24
  -2.28000004E-02    -4.52722540E-24
  -1.08000003E-02    -1.78295612E-23
   1.20000006E-03    -3.47827958E-23
   1.31999999E-02    -4.94153263E-23
   2.52000000E-02    -5.09981378E-23
   3.72000001E-02    -2.54843503E-23
   4.91999984E-02     3.98319379E-23
   6.12000003E-02     1.48120499E-22
   7.32000023E-02     2.82636644E-22
   8.51999968E-02     3.97839165E-22
   9.71999988E-02     4.17939694E-22
  0.109200001         2.49753943E-22
  0.121200003        -1.85162441E-22
  0.133200005        -8.99978767E-22
  0.145199999        -1.78435581E-21
  0.157199994        -2.56094956E-21
  0.169200003        -2.78833214E-21
  0.181199998        -1.94256763E-21
  0.193200007         4.04650177E-22
  0.205200002         4.32578140E-21
  0.217199996         9.25681345E-21
  0.229200006         1.38076639E-20
  0.241200000         1.58063164E-20
  0.253199995         1.27067455E-20
  0.265199989         2.41299490E-21
  0.277200013        -1.55750161E-20
  0.289200008        -3.89806731E-20
  0.301200002        -6.20018980E-20
  0.313199997        -7.55464894E-20
  0.325199991        -6.89051338E-20
  0.337199986        -3.29779333E-20
  0.349200010         3.53907416E-20
  0.361200005         1.29080875E-19
  0.373199999         2.28033196E-19
  0.385199994         3.00079180E-19
  0.397199988         3.06613674E-19
  0.409200013         2.13245094E-19
  0.421200007         3.75756285E-21
  0.433200002        -3.06215413E-19
  0.445199996        -6.60787080E-19
  0.457199991        -9.65746497E-19
  0.469199985        -1.10414105E-18
  0.481200010        -9.65254531E-19
  0.493200004        -4.81989251E-19
  0.505200028         3.32856548E-19
  0.517199993         1.36352804E-18
  0.529200017         2.39275041E-18
  0.541199982         3.13401839E-18
  0.553200006         3.29279654E-18
  0.565199971         2.64514348E-18
  0.577199996         1.11461026E-18
  0.589200020        -1.17445440E-18
  0.601199985        -3.88506923E-18
  0.613200009        -6.50495537E-18
  0.625199974        -8.42743023E-18
  0.637199998        -9.05864018E-18
  0.649200022        -7.92862047E-18
  0.661199987        -4.78708032E-18
  0.673200011         3.24711275E-19
  0.685199976         7.02286349E-18
  0.697200000         1.45425581E-17
  0.709200025         2.17125911E-17
  0.721199989         2.69647661E-17
  0.733200014         2.84273952E-17
  0.745199978         2.41688775E-17
  0.757200003         1.26436980E-17
  0.769200027        -6.66396885E-18
  0.781199992        -3.25025038E-17
  0.793200016        -6.12406938E-17
  0.805199981        -8.66893554E-17
  0.817200005        -1.00671686E-16
  0.829200029        -9.45375524E-17
  0.841199994        -6.15615274E-17
  0.853200018         1.85649457E-19
  0.865199983         8.52506633E-17
  0.877200007         1.79468454E-16
  0.889199972         2.60813144E-16
  0.901199996         3.02962562E-16
  0.913200021         2.81403959E-16
  0.925199986         1.81031508E-16
  0.937200010         3.38210599E-18
  0.949199975        -2.28778040E-16
  0.961199999        -4.71629586E-16
  0.973200023        -6.66464422E-16
  0.985199988        -7.51577310E-16
  0.997200012        -6.77870409E-16
   1.00919998        -4.24626563E-16
   1.02119994        -1.11214334E-17
   1.03320003         4.99922710E-16
   1.04519999         1.00948349E-15
   1.05719995         1.39992015E-15
   1.06920004         1.56025099E-15
   1.08120000         1.41363658E-15
   1.09319997         9.40397366E-16
   1.10520005         1.90278117E-16
   1.11720002        -7.20217715E-16
   1.12919998        -1.62621040E-15
   1.14119995        -2.34547214E-15
   1.15320003        -2.71572337E-15
   1.16520000        -2.62996319E-15
   1.17719996        -2.06171398E-15
   1.18920004        -1.07419236E-15
   1.20120001         1.88991871E-16
   1.21319997         1.52979381E-15
   1.22520006         2.73277350E-15
   1.23720002         3.60517975E-15
   1.24919999         4.01143708E-15
   1.26119995         3.89473288E-15
   1.27320004         3.28133470E-15
   1.28520000         2.26718469E-15
   1.29719996         9.90365639E-16
   1.30920005        -4.03530864E-16
   1.32120001        -1.79405496E-15
   1.33319998        -3.10731369E-15
   1.34519994        -4.31891046E-15
   1.35720003        -5.43531047E-15
   1.36919999        -6.45630154E-15
   1.38119996        -7.32758546E-15
   1.39320004        -7.89802997E-15
   1.40520000        -7.89893883E-15
   1.41719997        -6.96131487E-15
   1.42920005        -4.68055075E-15
   1.44120002        -7.26749610E-16
   1.45319998         5.01527657E-15
   1.46519995         1.23059937E-14
   1.47720003         2.04499639E-14
   1.48920000         2.82733059E-14
   1.50119996         3.42100751E-14
   1.51320004         3.65079332E-14
   1.52520001         3.35367415E-14
   1.53719997         2.41554416E-14
   1.54920006         8.07019280E-15
   1.56120002        -1.38937078E-14
   1.57319999        -3.96776118E-14
   1.58519995        -6.60822783E-14
   1.59720004        -8.90817503E-14
   1.60920000        -1.04331881E-13
   1.62119997        -1.07809174E-13
   1.63320005        -9.64886266E-14
   1.64520001        -6.89581313E-14
   1.65719998        -2.58727230E-14
   1.66919994         2.98271268E-14
   1.68120003         9.29792539E-14
   1.69319999         1.56557642E-13
   1.70519996         2.12304160E-13
   1.71720004         2.51585645E-13
   1.72920001         2.66403246E-13
   1.74119997         2.50462682E-13
   1.75320005         2.00196278E-13
   1.76520002         1.15618520E-13
   1.77719998         8.93703404E-16
   1.78919995        -1.35495266E-13
   1.80120003        -2.81059952E-13
   1.81320000        -4.20139482E-13
   1.82519996        -5.35231798E-13
   1.83720005        -6.08734417E-13
   1.84920001        -6.24943023E-13
   1.86119998        -5.72110501E-13
   1.87320006        -4.44344702E-13
   1.88520002        -2.43126970E-13
   1.89719999         2.17386483E-14
   1.90919995         3.31895129E-13
   1.92120004         6.61021205E-13
   1.93320000         9.76292831E-13
   1.94519997         1.24072074E-12
   1.95720005         1.41631325E-12
   1.96920002         1.46793851E-12
   1.98119998         1.36765946E-12
   1.99319994         1.09919105E-12
   2.00519991         6.61987229E-13
   2.01719999         7.43563265E-14
   2.02920008        -6.25055563E-13
   2.04119992        -1.37801511E-12
   2.05320001        -2.11010224E-12
   2.06520009        -2.73684894E-12
   2.07719994        -3.17227473E-12
   2.08920002        -3.33901223E-12
   2.10120010        -3.17881095E-12
   2.11319995        -2.66196050E-12
   2.12520003        -1.79416107E-12
   2.13720012        -6.19619969E-13
   2.14919996         7.80330282E-13
   2.16120005         2.29314636E-12
   2.17319989         3.78486131E-12
   2.18519998         5.11248899E-12
   2.19720006         6.13742520E-12
   2.20919991         6.73816558E-12
   2.22119999         6.82092013E-12
   2.23320007         6.32720092E-12
   2.24519992         5.23810422E-12
   2.25720000         3.57558969E-12
   2.26920009         1.40152256E-12
   2.28119993        -1.18460612E-12
   2.29320002        -4.04848724E-12
   2.30520010        -7.02389839E-12
   2.31719995        -9.91581296E-12
   2.32920003        -1.25043569E-11
   2.34120011        -1.45506584E-11
   2.35319996        -1.58058462E-11
   2.36520004        -1.60243381E-11
   2.37719989        -1.49821457E-11
   2.38919997        -1.25003237E-11
   2.40120006        -8.47274594E-12
   2.41319990        -2.89648644E-12
   2.42519999         4.09800839E-12
   2.43720007         1.22206802E-11
   2.44919991         2.10041342E-11
   2.46120000         2.97994650E-11
   2.47320008         3.77907289E-11
   2.48519993         4.40323403E-11
   2.49720001         4.75123968E-11
   2.50920010         4.72420783E-11
   2.52119994         4.23683033E-11
   2.53320003         3.23024420E-11
   2.54520011         1.68537233E-11
   2.55719995        -3.64805148E-12
   2.56920004        -2.82586125E-11
   2.58119988        -5.53734524E-11
   2.59319997        -8.27480098E-11
   2.60520005        -1.07597424E-10
   2.61719990        -1.26782473E-10
   2.62919998        -1.37079140E-10
   2.64120007        -1.35517889E-10
   2.65319991        -1.19767821E-10
   2.66520000        -8.85303497E-11
   2.67720008        -4.18987553E-11
   2.68919992         1.83641088E-11
   2.70120001         8.86775237E-11
   2.71320009         1.63665873E-10
   2.72519994         2.36383690E-10
   2.73720002         2.98756797E-10
   2.74920011         3.42233047E-10
   2.76119995         3.58612168E-10
   2.77320004         3.40999728E-10
   2.78520012         2.84805735E-10
   2.79719996         1.88690244E-10
   2.80920005         5.53443714E-11
   2.82119989        -1.08007242E-10
   2.83319998        -2.89487878E-10
   2.84520006        -4.72918038E-10
   2.85719991        -6.38681275E-10
   2.86919999        -7.65108032E-10
   2.88120008        -8.30325086E-10
   2.89319992        -8.14456891E-10
   2.90520000        -7.02012837E-10
   2.91720009        -4.84240148E-10
   2.92919993        -1.61199276E-10
   2.94120002         2.56698884E-10
   2.95320010         7.47934048E-10
   2.96519995         1.28009436E-09
   2.97720003         1.81120019E-09
   2.98920012         2.29217312E-09
   3.00119996         2.67037970E-09
   3.01320004         2.89407276E-09
   3.02519989         2.91744318E-09
   3.03719997         2.70589662E-09
   3.04920006         2.24111574E-09
   3.06119990         1.52541968E-09
   3.07319999         5.84947091E-10
   3.08520007        -5.28765087E-10
   3.09719992        -1.73915105E-09
   3.10920000        -2.94715163E-09
   3.12120008        -4.03598666E-09
   3.13319993        -4.87807217E-09
   3.14520001        -5.34383648E-09
   3.15720010        -5.31203437E-09
   3.16919994        -4.68106753E-09
   3.18120003        -3.38073525E-09
   3.19320011        -1.38383471E-09
   3.20519996         1.28291056E-09
   3.21720004         4.52906646E-09
   3.22919989         8.19212520E-09
   3.24119997         1.20307595E-08
   3.25320005         1.57196727E-08
   3.26519990         1.88458653E-08
   3.27719998         2.09061337E-08
   3.28920007         2.13054374E-08
   3.30119991         1.93559000E-08
   3.31320000         1.42761314E-08
   3.32520008         5.19091392E-09
   3.33719993        -8.86879370E-09
   3.34920001        -2.89651947E-08
   3.36120009        -5.62517215E-08
   3.37319994        -9.19693406E-08
   3.38520002        -1.37440182E-07
   3.39720011        -1.94057677E-07
   3.40919995        -2.63272369E-07
   3.42120004        -3.46572762E-07
   3.43319988        -4.45460842E-07
   3.44519997        -5.61421984E-07
   3.45720005        -6.95889867E-07
   3.46919990        -8.50207016E-07
   3.48119998        -1.02558204E-06
   3.49320006        -1.22304550E-06
   3.50519991        -1.44340640E-06
   3.51719999        -1.68721033E-06
   3.52920008        -1.95470375E-06
   3.54119992        -2.24580367E-06
   3.55320001        -2.56007775E-06
   3.56520009        -2.89673358E-06
   3.57719994        -3.25461997E-06
   3.58920002        -3.63224012E-06
   3.60120010        -4.02777687E-06
   3.61319995        -4.43912813E-06
   3.62520003        -4.86395311E-06
   3.63720012        -5.29972431E-06
   3.64919996        -5.74378964E-06
   3.66120005        -6.19343018E-06
   3.67319989        -6.64592653E-06
   3.68519998        -7.09861752E-06
   3.69720006        -7.54895837E-06
   3.70919991        -7.99457030E-06
   3.72119999        -8.43328144E-06
   3.73320007        -8.86316411E-06
   3.74519992        -9.28255758E-06
   3.75720000        -9.69007942E-06
   3.76920009        -1.00846382E-05
   3.78119993        -1.04654218E-05
   3.79320002        -1.08318945E-05
   3.80520010        -1.11837717E-05
   3.81719995        -1.15210014E-05
   3.82920003        -1.18437365E-05
   3.84120011        -1.21523062E-05
   3.85319996        -1.24471835E-05
   3.86520004        -1.27289595E-05
   3.87719989        -1.29983082E-05
   3.88919997        -1.32559699E-05
   3.90120006        -1.35027158E-05
   3.91319990        -1.37393454E-05
   3.92519999        -1.39666581E-05
   3.93720007        -1.41854534E-05
   3.94919991        -1.43965208E-05
   3.96120000        -1.46006469E-05
   3.97320008        -1.47986093E-05
   3.98519993        -1.49911939E-05
   3.99720001        -1.51791937E-05
   4.00920010        -1.53634210E-05
   4.02120018        -1.55447178E-05
   4.03319979        -1.57239501E-05
   4.04519987        -1.59020146E-05
   4.05719995        -1.60798281E-05
   4.06920004        -1.62583201E-05
   4.08120012        -1.64383982E-05
   4.09320021        -1.66209447E-05
   4.10519981        -1.68067691E-05
   4.11719990        -1.69965751E-05
   4.12919998        -1.71909269E-05
   4.14120007        -1.73902245E-05
   4.15320015        -1.75946498E-05
   4.16520023        -1.78041664E-05
   4.17719984        -1.80184907E-05
   4.18919992        -1.82370877E-05
   4.20120001        -1.84591936E-05
   4.21320009        -1.86838279E-05
   4.22520018        -1.89098246E-05
   4.23719978        -1.91358995E-05
   4.24919987        -1.93606829E-05
   4.26119995        -1.95827979E-05
   4.27320004        -1.98009275E-05
   4.28520012        -2.00138729E-05
   4.29720020        -2.02206102E-05
   4.30919981        -2.04203479E-05
   4.32119989        -2.06125660E-05
   4.33319998        -2.07970334E-05
   4.34520006        -2.09738228E-05
   4.35720015        -2.11432980E-05
   4.36920023        -2.13060903E-05
   4.38119984        -2.14630709E-05
   4.39319992        -2.16152894E-05
   4.40520000        -2.17639245E-05
   4.41720009        -2.19102330E-05
   4.42920017        -2.20554812E-05
   4.44119978        -2.22008985E-05
   4.45319986        -2.23476291E-05
   4.46519995        -2.24966934E-05
   4.47720003        -2.26489756E-05
   4.48920012        -2.28052031E-05
   4.50120020        -2.29659527E-05
   4.51319981        -2.31316644E-05
   4.52519989        -2.33026694E-05
   4.53719997        -2.34792096E-05
   4.54920006        -2.36614705E-05
   4.56120014        -2.38496232E-05
   4.57320023        -2.40438385E-05
   4.58519983        -2.42443111E-05
   4.59719992        -2.44512739E-05
   4.60920000        -2.46649961E-05
   4.62120008        -2.48857687E-05
   4.63320017        -2.51138881E-05
   4.64519978        -2.53496182E-05
   4.65719986        -2.55931645E-05
   4.66919994        -2.58446271E-05
   4.68120003        -2.61039695E-05
   4.69320011        -2.63709844E-05
   4.70520020        -2.66452680E-05
   4.71719980        -2.69262237E-05
   4.72919989        -2.72130546E-05
   4.74119997        -2.75047896E-05
   4.75320005        -2.78003263E-05
   4.76520014        -2.80984714E-05
   4.77720022        -2.83980062E-05
   4.78919983        -2.86977593E-05
   4.80119991        -2.89966647E-05
   4.81320000        -2.92938257E-05
   4.82520008        -2.95885820E-05
   4.83720016        -2.98805371E-05
   4.84919977        -3.01695945E-05
   4.86119986        -3.04559508E-05
   4.87319994        -3.07400951E-05
   4.88520002        -3.10227733E-05
   4.89720011        -3.13049422E-05
   4.90920019        -3.15877260E-05
   4.92119980        -3.18723396E-05
   4.93319988        -3.21600419E-05
   4.94519997        -3.24520879E-05
   4.95720005        -3.27496818E-05
   4.96920013        -3.30539551E-05
   4.98120022        -3.33659591E-05
   4.99319983        -3.36866615E-05
   5.00519991        -3.40169827E-05
   5.01719999        -3.43578213E-05
   5.02920008        -3.47100831E-05
   5.04120016        -3.50747177E-05
   5.05319977        -3.54527547E-05
   5.06519985        -3.58452999E-05
   5.07719994        -3.62535284E-05
   5.08920002        -3.66786589E-05
   5.10120010        -3.71218775E-05
   5.11320019        -3.75842828E-05
   5.12519979        -3.80667370E-05
   5.13719988        -3.85697786E-05
   5.14919996        -3.90934765E-05
   5.16120005        -3.96373034E-05
   5.17320013        -4.02000223E-05
   5.18520021        -4.07795887E-05
   5.19719982        -4.13730922E-05
   5.20919991        -4.19767130E-05
   5.22119999        -4.25857725E-05
   5.23320007        -4.31947919E-05
   5.24520016        -4.37976159E-05
   5.25719976        -4.43875761E-05
   5.26919985        -4.49577165E-05
   5.28119993        -4.55010340E-05
   5.29320002        -4.60107367E-05
   5.30520010        -4.64805453E-05
   5.31720018        -4.69049737E-05
   5.32919979        -4.72795873E-05
   5.34119987        -4.76012501E-05
   5.35319996        -4.78683323E-05
   5.36520004        -4.80808667E-05
   5.37720013        -4.82406649E-05
   5.38920021        -4.83513431E-05
   5.40119982        -4.84183256E-05
   5.41319990        -4.84487500E-05
   5.42519999        -4.84513439E-05
   5.43720007        -4.84362208E-05
   5.44920015        -4.84146440E-05
   5.46120024        -4.83987569E-05
   5.47319984        -4.84012526E-05
   5.48519993        -4.84350494E-05
   5.49720001        -4.85129349E-05
   5.50920010        -4.86472236E-05
   5.52120018        -4.88493861E-05
   5.53319979        -4.91297069E-05
   5.54519987        -4.94969463E-05
   5.55719995        -4.99580274E-05
   5.56920004        -5.05177159E-05
   5.58120012        -5.11783546E-05
   5.59320021        -5.19395835E-05
   5.60519981        -5.27981174E-05
   5.61719990        -5.37475098E-05
   5.62919998        -5.47779600E-05
   5.64120007        -5.58761531E-05
   5.65320015        -5.70251104E-05
   5.66520023        -5.82040921E-05
   5.67719984        -5.93885197E-05
   5.68919992        -6.05499736E-05
   5.70120001        -6.16562029E-05
   5.71320009        -6.26712499E-05
   5.72520018        -6.35556135E-05
   5.73719978        -6.42664672E-05
   5.74919987        -6.47580382E-05
   5.76119995        -6.49819849E-05
   5.77320004        -6.48879286E-05
   5.78520012        -6.44240354E-05
   5.79720020        -6.35377728E-05
   5.80919981        -6.21766085E-05
   5.82119989        -6.02889231E-05
   5.83319998        -5.78249128E-05
   5.84520006        -5.47375494E-05
   5.85720015        -5.09836173E-05
   5.86920023        -4.65247031E-05
   5.88119984        -4.13282505E-05
   5.89319992        -3.53685427E-05
   5.90520000        -2.86276572E-05
   5.91720009        -2.10963735E-05
   5.92920017        -1.27749663E-05
   5.94119978        -3.67391044E-06
   5.95319986         6.18554532E-06
   5.96519995         1.67709459E-05
   5.97720003         2.80383629E-05
   5.98920012         3.99322926E-05
   6.00120020         5.23857343E-05
   6.01319981         6.53204916E-05
   6.02519989         7.86476667E-05
   6.03719997         9.22683030E-05
   6.04920006         1.06074323E-04
   6.06120014         1.19949640E-04
   6.07320023         1.33771406E-04
   6.08519983         1.47411469E-04
   6.09719992         1.60738113E-04
   6.10920000         1.73617736E-04
   6.12120008         1.85916768E-04
   6.13320017         1.97503716E-04
   6.14519978         2.08251135E-04
   6.15719986         2.18037720E-04
   6.16919994         2.26750388E-04
   6.18120003         2.34286214E-04
   6.19320011         2.40554378E-04
   6.20520020         2.45477888E-04
   6.21719980         2.48995144E-04
   6.22919989         2.51061399E-04
   6.24119997         2.51649850E-04
   6.25320005         2.50752462E-04
   6.26520014         2.48380675E-04
   6.27720022         2.44565425E-04
   6.28919983         2.39357236E-04
   6.30119991         2.32825711E-04
   6.31320000         2.25058771E-04
   6.32520008         2.16161468E-04
   6.33720016         2.06254510E-04
   6.34919977         1.95472545E-04
   6.36119986         1.83962009E-04
   6.37319994         1.71878783E-04
   6.38520002         1.59385672E-04
   6.39720011         1.46649647E-04
   6.40920019         1.33838985E-04
   6.42119980         1.21120393E-04
   6.43319988         1.08656131E-04
   6.44519997         9.66011648E-05
   6.45720005         8.51005025E-05
   6.46920013         7.42867051E-05
   6.48120022         6.42776795E-05
   6.49319983         5.51747871E-05
   6.50519991         4.70612467E-05
   6.51719999         4.00010285E-05
   6.52920008         3.40381048E-05
   6.54120016         2.91961169E-05
   6.55319977         2.54785209E-05
   6.56519985         2.28691042E-05
   6.57719994         2.13329113E-05
   6.58920002         2.08175206E-05
   6.60120010         2.12546402E-05
   6.61320019         2.25619606E-05
   6.62519979         2.46452164E-05
   6.63719988         2.74004051E-05
   6.64919996         3.07160735E-05
   6.66120005         3.44756772E-05
   6.67320013         3.85598796E-05
   6.68520021         4.28488238E-05
   6.69719982         4.72242900E-05
   6.70919991         5.15716929E-05
   6.72119999         5.57819258E-05
   6.73320007         5.97530234E-05
   6.74520016         6.33916061E-05
   6.75719976         6.66140986E-05
   6.76919985         6.93477923E-05
   6.78119993         7.15315473E-05
   6.79320002         7.31164328E-05
   6.80520010         7.40660325E-05
   6.81720018         7.43565615E-05
   6.82919979         7.39768220E-05
   6.84119987         7.29278690E-05
   6.85319996         7.12225592E-05
   6.86520004         6.88848377E-05
   6.87720013         6.59489378E-05
   6.88920021         6.24583336E-05
   6.90119982         5.84646223E-05
   6.91319990         5.40262590E-05
   6.92519999         4.92072031E-05
   6.93720007         4.40754993E-05
   6.94920015         3.87018263E-05
   6.96120024         3.31580559E-05
   6.97319984         2.75158254E-05
   6.98519993         2.18451696E-05
   6.99720001         1.62132510E-05
   7.00920010         1.06831894E-05
   7.02120018         5.31304022E-06
   7.03319979         1.54912556E-07
   7.04519987        -4.74573699E-06
   7.05719995        -9.35063417E-06
   7.06920004        -1.36290364E-05
   7.08120012        -1.75578916E-05
   7.09320021        -2.11218194E-05
   7.10519981        -2.43129143E-05
   7.11719990        -2.71303852E-05
   7.12919998        -2.95800255E-05
   7.14120007        -3.16735641E-05
   7.15320015        -3.34278702E-05
   7.16520023        -3.48641006E-05
   7.17719984        -3.60067024E-05
   7.18919992        -3.68824331E-05
   7.20120001        -3.75193085E-05
   7.21320009        -3.79455923E-05
   7.22520018        -3.81888021E-05
   7.23719978        -3.82748003E-05
   7.24919987        -3.82269791E-05
   7.26119995        -3.80656020E-05
   7.27320004        -3.78072727E-05
   7.28520012        -3.74645970E-05
   7.29720020        -3.70460548E-05
   7.30919981        -3.65560409E-05
   7.32119989        -3.59951373E-05
   7.33319998        -3.53605392E-05
   7.34520006        -3.46466732E-05
   7.35720015        -3.38459249E-05
   7.36920023        -3.29495306E-05
   7.38119984        -3.19484716E-05
   7.39319992        -3.08344352E-05
   7.40520000        -2.96007311E-05
   7.41720009        -2.82431702E-05
   7.42920017        -2.67608211E-05
   7.44119978        -2.51566380E-05
   7.45319986        -2.34379149E-05
   7.46519995        -2.16165536E-05
   7.47720003        -1.97091285E-05
   7.48920012        -1.77367510E-05
   7.50120020        -1.57247141E-05
   7.51319981        -1.37019761E-05
   7.52519989        -1.17004502E-05
   7.53719997        -9.75416606E-06
   7.54920006        -7.89831029E-06
   7.56120014        -6.16819898E-06
   7.57320023        -4.59819557E-06
   7.58519983        -3.22062760E-06
   7.59719992        -2.06473192E-06
   7.60920000        -1.15565774E-06
   7.62120008        -5.13564544E-07
   7.63320017        -1.52839874E-07
   7.64519978        -8.14609180E-08
   7.65719986        -3.00520128E-07
   7.66919994        -8.03930163E-07
   7.68120003        -1.57831721E-06
   7.69320011        -2.60311003E-06
   7.70520020        -3.85082376E-06
   7.71719980        -5.28753799E-06
   7.72919989        -6.87355259E-06
   7.74119997        -8.56421866E-06
   7.75320005        -1.03109178E-05
   7.76520014        -1.20621698E-05
   7.77720022        -1.37648540E-05
   7.78919983        -1.53654873E-05
   7.80119991        -1.68115603E-05
   7.81320000        -1.80528768E-05
   7.82520008        -1.90428691E-05
   7.83720016        -1.97398331E-05
   7.84919977        -2.01080929E-05
   7.86119986        -2.01190087E-05
   7.87319994        -1.97518402E-05
   7.88520002        -1.89944240E-05
   7.89720011        -1.78436330E-05
   7.90920019        -1.63056229E-05
   7.92119980        -1.43958478E-05
   7.93319988        -1.21388593E-05
   7.94519997        -9.56785607E-06
   7.95720005        -6.72404758E-06
   7.96920013        -3.65580445E-06
   7.98120022        -4.17649517E-07
   7.99319983         2.93090170E-06
   8.00520039         6.32661113E-06
   8.01720047         9.70387464E-06
   8.02919960         1.29961254E-05
   8.04119968         1.61372609E-05
   8.05319977         1.90630617E-05
   8.06519985         2.17125707E-05
   8.07719994         2.40294157E-05
   8.08920002         2.59630506E-05
   8.10120010         2.74698905E-05
   8.11320019         2.85143415E-05
   8.12520027         2.90696935E-05
   8.13720036         2.91188626E-05
   8.14920044         2.86549912E-05
   8.16119957         2.76818500E-05
   8.17319965         2.62140766E-05
   8.18519974         2.42771985E-05
   8.19719982         2.19074464E-05
   8.20919991         1.91513318E-05
   8.22119999         1.60649961E-05
   8.23320007         1.27132980E-05
   8.24520016         9.16867066E-06
   8.25720024         5.50972436E-06
   8.26920033         1.81963162E-06
   8.28120041        -1.81569396E-06
   8.29319954        -5.30958005E-06
   8.30519962        -8.57670057E-06
   8.31719971        -1.15352414E-05
   8.32919979        -1.41090659E-05
   8.34119987        -1.62298202E-05
   8.35319996        -1.78388746E-05
   8.36520004        -1.88890845E-05
   8.37720013        -1.93462311E-05
   8.38920021        -1.91901599E-05
   8.40120029        -1.84155087E-05
   8.41320038        -1.70320272E-05
   8.42520046        -1.50644455E-05
   8.43719959        -1.25519164E-05
   8.44919968        -9.54703410E-06
   8.46119976        -6.11446512E-06
   8.47319984        -2.32924708E-06
   8.48519993         1.72519105E-06
   8.49720001         5.95921529E-06
   8.50920010         1.02793010E-05
   8.52120018         1.45904050E-05
   8.53320026         1.87983223E-05
   8.54520035         2.28119552E-05
   8.55720043         2.65454310E-05
   8.56919956         2.99200328E-05
   8.58119965         3.28658971E-05
   8.59319973         3.53234282E-05
   8.60519981         3.72444629E-05
   8.61719990         3.85931089E-05
   8.62919998         3.93463124E-05
   8.64120007         3.94941380E-05
   8.65320015         3.90397581E-05
   8.66520023         3.79991943E-05
   8.67720032         3.64008192E-05
   8.68920040         3.42845815E-05
   8.70119953         3.17010672E-05
   8.71319962         2.87103649E-05
   8.72519970         2.53807011E-05
   8.73719978         2.17870020E-05
   8.74919987         1.80092629E-05
   8.76119995         1.41308519E-05
   8.77320004         1.02367303E-05
   8.78520012         6.41163069E-06
   8.79720020         2.73824298E-06
   8.80920029        -7.04578952E-07
   8.82120037        -3.84352825E-06
   8.83320045        -6.61245167E-06
   8.84519958        -8.95379981E-06
   8.85719967        -1.08199001E-05
   8.86919975        -1.21740013E-05
   8.88119984        -1.29910813E-05
   8.89319992        -1.32583837E-05
   8.90520000        -1.29756636E-05
   8.91720009        -1.21551502E-05
   8.92920017        -1.08212098E-05
   8.94120026        -9.00971827E-06
   8.95320034        -6.76716536E-06
   8.96520042        -4.14951000E-06
   8.97719955        -1.22080394E-06
   8.98919964         1.94836616E-06
   9.00119972         5.28259034E-06
   9.01319981         8.70345139E-06
   9.02519989         1.21314042E-05
   9.03719997         1.54876634E-05
   9.04920006         1.86960624E-05
   9.06120014         2.16848239E-05
   9.07320023         2.43882150E-05
   9.08520031         2.67480191E-05