 -0.622799993         1.00000002E-24
 -0.610800028         1.00000002E-24
 -0.598800004         1.00000002E-24
 -0.586799979         1.00000002E-24
 -0.574800014         1.00000002E-24
 -0.562799990         1.00000002E-24
 -0.550800025         1.00000002E-24
 -0.538800001         1.00000002E-24
 -0.526799977         1.00000002E-24
 -0.514800012         1.00000002E-24
 -0.502799988         1.00000002E-24
 -0.490799993         1.00000012E-24
 -0.478799999         1.00000022E-24
 -0.466800004         1.00000032E-24
 -0.454800010         1.00000041E-24
 -0.442799985         1.00000041E-24
 -0.430799991         1.00000041E-24
 -0.418799996         1.00000041E-24
 -0.406800002         1.00000041E-24
 -0.394800007         1.00000022E-24
 -0.382800013         9.99999625E-25
 -0.370799989         9.99997949E-25
 -0.358799994         9.99994202E-25
 -0.346799999         9.99987891E-25
 -0.334800005         9.99980495E-25
 -0.322800010         9.99980101E-25
 -0.310799986         1.00000722E-24
 -0.298799992         1.00009685E-24
 -0.286799997         1.00029298E-24
 -0.274800003         1.00062223E-24
 -0.262800008         1.00104763E-24
 -0.250800014         1.00141455E-24
 -0.238800004         1.00142312E-24
 -0.226799995         1.00065793E-24
 -0.214800000         9.98655406E-25
 -0.202800006         9.94868381E-25
 -0.190799996         9.88285238E-25
 -0.178800002         9.76545311E-25
 -0.166800007         9.54973811E-25
 -0.154799998         9.17182838E-25
 -0.142800003         8.60426268E-25
 -0.130799994         7.99444805E-25
 -0.118799999         7.89777216E-25
 -0.106799997         9.52916561E-25
  -9.48000029E-02     1.48077554E-24
  -8.28000009E-02     2.58048511E-24
  -7.07999989E-02     4.31536064E-24
  -5.88000007E-02     6.32378788E-24
  -4.67999987E-02     7.47381100E-24
  -3.48000005E-02     5.63918125E-24
  -2.28000004E-02    -2.07402517E-24
  -1.08000003E-02    -1.82521414E-23
   1.20000006E-03    -4.29908809E-23
   1.31999999E-02    -7.08205557E-23
   2.52000000E-02    -8.77932452E-23
   3.72000001E-02    -7.07960569E-23
   4.91999984E-02     8.14915640E-24
   6.12000003E-02     1.70198621E-22
   7.32000023E-02     4.10379403E-22
   8.51999968E-02     6.74721441E-22
   9.71999988E-02     8.43619666E-22
  0.109200001         7.36296314E-22
  0.121200003         1.52244601E-22
  0.133200005        -1.04132659E-21
  0.145199999        -2.78417988E-21
  0.157199994        -4.69407267E-21
  0.169200003        -5.99628154E-21
  0.181199998        -5.59062134E-21
  0.193200007        -2.32439489E-21
  0.205200002         4.51160987E-21
  0.217199996         1.45410597E-20
  0.229200006         2.57103163E-20
  0.241200000         3.40477363E-20
  0.253199995         3.41063983E-20
  0.265199989         2.03241007E-20
  0.277200013        -1.07259113E-20
  0.289200008        -5.76179506E-20
  0.301200002        -1.11752954E-19
  0.313199997        -1.56607288E-19
  0.325199991        -1.69711431E-19
  0.337199986        -1.28023415E-19
  0.349200010        -1.63496546E-20
  0.361200005         1.62898371E-19
  0.373199999         3.81656714E-19
  0.385199994         5.83683662E-19
  0.397199988         6.91022858E-19
  0.409200013         6.21127492E-19
  0.421200007         3.13166211E-19
  0.433200002        -2.41847061E-19
  0.445199996        -9.75912960E-19
  0.457199991        -1.73435104E-18
  0.469199985        -2.29061304E-18
  0.481200010        -2.38973616E-18
  0.493200004        -1.81662449E-18
  0.505200028        -4.76193455E-19
  0.517199993         1.53535103E-18
  0.529200017         3.89227562E-18
  0.541199982         6.05533556E-18
  0.553200006         7.35326672E-18
  0.565199971         7.12543389E-18
  0.577199996         4.90360401E-18
  0.589200020         5.95316769E-19
  0.601199985        -5.37747924E-18
  0.613200009        -1.20301815E-17
  0.625199974        -1.78920788E-17
  0.637199998        -2.12217802E-17
  0.649200022        -2.03489822E-17
  0.661199987        -1.41007179E-17
  0.673200011        -2.24183627E-18
  0.685199976         1.41642603E-17
  0.697200000         3.25827701E-17
  0.709200025         4.91287282E-17
  0.721199989         5.90619001E-17
  0.733200014         5.76760417E-17
  0.745199978         4.15090514E-17
  0.757200003         9.68069075E-18
  0.769200027        -3.49577082E-17
  0.781199992        -8.52593983E-17
  0.793200016        -1.30196746E-16
  0.805199981        -1.56511333E-16
  0.817200005        -1.51578809E-16
  0.829200029        -1.07081124E-16
  0.841199994        -2.26748702E-17
  0.853200018         9.14450351E-17
  0.865199983         2.14215929E-16
  0.877200007         3.16408707E-16
  0.889199972         3.66452923E-16
  0.901199996         3.38526591E-16
  0.913200021         2.21100256E-16
  0.925199986         2.34967436E-17
  0.937200010        -2.21972197E-16
  0.949199975        -4.63943821E-16
  0.961199999        -6.42156535E-16
  0.973200023        -7.02062888E-16
  0.985199988        -6.10417787E-16
  0.997200012        -3.67404961E-16
   1.00919998        -1.11588154E-17
   1.02119994         3.87776395E-16
   1.03320003         7.41758240E-16
   1.04519999         9.67757483E-16
   1.05719995         1.00967068E-15
   1.06920004         8.54574135E-16
   1.08120000         5.37466863E-16
   1.09319997         1.32193666E-16
   1.10520005        -2.69511828E-16
   1.11720002        -5.84896473E-16
   1.12919998        -7.64588901E-16
   1.14119995        -8.06364513E-16
   1.15320003        -7.53113881E-16
   1.16520000        -6.74878636E-16
   1.17719996        -6.40268234E-16
   1.18920004        -6.86588813E-16
   1.20120001        -7.99072671E-16
   1.21319997        -9.07147087E-16
   1.22520006        -9.00369977E-16
   1.23720002        -6.60249847E-16
   1.24919999        -9.88689877E-17
   1.26119995         8.07027105E-16
   1.27320004         1.99621123E-15
   1.28520000         3.32232453E-15
   1.29719996         4.57116068E-15
   1.30920005         5.48968448E-15
   1.32120001         5.81887706E-15
   1.33319998         5.32465197E-15
   1.34519994         3.82595888E-15
   1.35720003         1.22414334E-15
   1.36919999        -2.46055427E-15
   1.38119996        -7.04287355E-15
   1.39320004        -1.21229846E-14
   1.40520000        -1.70508935E-14
   1.41719997        -2.09309431E-14
   1.42920005        -2.26935238E-14
   1.44120002        -2.12505235E-14
   1.45319998        -1.57289106E-14
   1.46519995        -5.74778347E-15
   1.47720003         8.32307957E-15
   1.48920000         2.52004431E-14
   1.50119996         4.26926154E-14
   1.51320004         5.79153018E-14
   1.52520001         6.77127286E-14
   1.53719997         6.92220668E-14
   1.54920006         6.04706376E-14
   1.56120002         4.08717249E-14
   1.57319999         1.14955542E-14
   1.58519995        -2.49606108E-14
   1.59720004        -6.45071426E-14
   1.60920000        -1.02427378E-13
   1.62119997        -1.33939748E-13
   1.63320005        -1.54801749E-13
   1.64520001        -1.61727497E-13
   1.65719998        -1.52559850E-13
   1.66919994        -1.26229431E-13
   1.68120003        -8.26156905E-14
   1.69319999        -2.24689499E-14
   1.70519996         5.24641128E-14
   1.71720004         1.39049904E-13
   1.72920001         2.32175824E-13
   1.74119997         3.24154332E-13
   1.75320005         4.04417141E-13
   1.76520002         4.59811226E-13
   1.77719998         4.75727097E-13
   1.78919995         4.38109889E-13
   1.80120003         3.36169054E-13
   1.81320000         1.65364033E-13
   1.82519996        -6.99288920E-14
   1.83720005        -3.54712435E-13
   1.84920001        -6.63171666E-13
   1.86119998        -9.60291525E-13
   1.87320006        -1.20526267E-12
   1.88520002        -1.35630591E-12
   1.89719999        -1.37625740E-12
   1.90919995        -1.23810716E-12
   1.92120004        -9.29685474E-13
   1.93320000        -4.56853251E-13
   1.94519997         1.55194773E-13
   1.95720005         8.62616022E-13
   1.96920002         1.60545839E-12
   1.98119998         2.31176038E-12
   1.99319994         2.90288063E-12
   2.00519991         3.29975131E-12
   2.01719999         3.42979920E-12
   2.02920008         3.23429066E-12
   2.04119992         2.67576889E-12
   2.05320001         1.74509897E-12
   2.06520009         4.67403134E-13
   2.07719994        -1.09400585E-12
   2.08920002        -2.83667144E-12
   2.10120010        -4.62188057E-12
   2.11319995        -6.28192940E-12
   2.12520003        -7.63179710E-12
   2.13720012        -8.48464701E-12
   2.14919996        -8.66998227E-12
   2.16120005        -8.05284832E-12
   2.17319989        -6.55219152E-12
   2.18519998        -4.15656398E-12
   2.19720006        -9.35508723E-13
   2.20919991         2.95463350E-12
   2.22119999         7.27139486E-12
   2.23320007         1.16938924E-11
   2.24519992         1.58378415E-11
   2.25720000         1.92778987E-11
   2.26920009         2.15770197E-11
   2.28119993         2.23220470E-11
   2.29320002         2.11640185E-11
   2.30520010         1.78607823E-11
   2.31719995         1.23184657E-11
   2.32920003         4.62747202E-12
   2.34120011        -4.91194021E-12
   2.35319996        -1.57793084E-11
   2.36520004        -2.72429319E-11
   2.37719989        -3.83906240E-11
   2.38919997        -4.81825031E-11
   2.40120006        -5.55236343E-11
   2.41319990        -5.93517249E-11
   2.42519999        -5.87332336E-11
   2.43720007        -5.29597442E-11
   2.44919991        -4.16364790E-11
   2.46120000        -2.47549654E-11
   2.47320008        -2.74356557E-12
   2.48519993         2.35089274E-11
   2.49720001         5.26594150E-11
   2.50920010         8.29474336E-11
   2.52119994         1.12262435E-10
   2.53320003         1.38239864E-10
   2.54520011         1.58383057E-10
   2.55719995         1.70207473E-10
   2.56920004         1.71402226E-10
   2.58119988         1.60002747E-10
   2.59319997         1.34567579E-10
   2.60520005         9.43509923E-11
   2.61719990         3.94628323E-11
   2.62919998        -2.89923710E-11
   2.64120007        -1.08804653E-10
   2.65319991        -1.96582084E-10
   2.66520000        -2.87713159E-10
   2.67720008        -3.76372045E-10
   2.68919992        -4.55571636E-10
   2.70120001        -5.17270837E-10
   2.71320009        -5.52547341E-10
   2.72519994        -5.51850843E-10
   2.73720002        -5.05358200E-10
   2.74920011        -4.03454825E-10
   2.76119995        -2.37366432E-10
   2.77320004         3.79751128E-14
   2.78520012         3.13263027E-10
   2.79719996         7.03032355E-10
   2.80920005         1.16499710E-09
   2.82119989         1.68837366E-09
   2.83319998         2.25461316E-09
   2.84520006         2.83624146E-09
   2.85719991         3.39604145E-09
   2.86919999         3.88678156E-09
   2.88120008         4.25169722E-09
   2.89319992         4.42593251E-09
   2.90520000         4.33911396E-09
   2.91720009         3.91916233E-09
   2.92919993         3.09734793E-09
   2.94120002         1.81446203E-09
   2.95320010         2.77971066E-11
   2.96519995        -2.28157093E-09
   2.97720003        -5.10193487E-09
   2.98920012        -8.38550651E-09
   3.00119996        -1.20455477E-08
   3.01320004        -1.59574380E-08
   3.02519989        -1.99651478E-08
   3.03719997        -2.38946374E-08
   3.04920006        -2.75755330E-08
   3.06119990        -3.08723216E-08
   3.07319999        -3.37258328E-08
   3.08520007        -3.62053214E-08
   3.09719992        -3.85708034E-08
   3.10920000        -4.13445029E-08
   3.12120008        -4.53894522E-08
   3.13319993        -5.19924193E-08
   3.14520001        -6.29473860E-08
   3.15720010        -8.06350826E-08
   3.16919994        -1.08093417E-07
   3.18120003        -1.49073244E-07
   3.19320011        -2.08073629E-07
   3.20519996        -2.90350869E-07
   3.21720004        -4.01896472E-07
   3.22919989        -5.49379308E-07
   3.24119997        -7.40049472E-07
   3.25320005        -9.81601147E-07
   3.26519990        -1.28199690E-06
   3.27719998        -1.64925268E-06
   3.28920007        -2.09119071E-06
   3.30119991        -2.61516493E-06
   3.31320000        -3.22776918E-06
   3.32520008        -3.93453411E-06
   3.33719993        -4.73963109E-06
   3.34920001        -5.64559059E-06
   3.36120009        -6.65304333E-06
   3.37319994        -7.76051365E-06
   3.38520002        -8.96425081E-06
   3.39720011        -1.02581307E-05
   3.40919995        -1.16336314E-05
   3.42120004        -1.30798735E-05
   3.43319988        -1.45837457E-05
   3.44519997        -1.61301086E-05
   3.45720005        -1.77020720E-05
   3.46919990        -1.92813350E-05
   3.48119998        -2.08485981E-05
   3.49320006        -2.23840016E-05
   3.50519991        -2.38676112E-05
   3.51719999        -2.52799182E-05
   3.52920008        -2.66023326E-05
   3.54119992        -2.78176631E-05
   3.55320001        -2.89105665E-05
   3.56520009        -2.98679352E-05
   3.57719994        -3.06792463E-05
   3.58920002        -3.13368182E-05
   3.60120010        -3.18359889E-05
   3.61319995        -3.21752086E-05
   3.62520003        -3.23560525E-05
   3.63720012        -3.23831264E-05
   3.64919996        -3.22639062E-05
   3.66120005        -3.20084728E-05
   3.67319989        -3.16291953E-05
   3.68519998        -3.11403819E-05
   3.69720006        -3.05578251E-05
   3.70919991        -2.98983614E-05
   3.72119999        -2.91794076E-05
   3.73320007        -2.84184862E-05
   3.74519992        -2.76327701E-05
   3.75720000        -2.68386630E-05
   3.76920009        -2.60514207E-05
   3.78119993        -2.52848076E-05
   3.79320002        -2.45508472E-05
   3.80520010        -2.38596040E-05
   3.81719995        -2.32190741E-05
   3.82920003        -2.26351221E-05
   3.84120011        -2.21115115E-05
   3.85319996        -2.16499830E-05
   3.86520004        -2.12504237E-05
   3.87719989        -2.09110731E-05
   3.88919997        -2.06287659E-05
   3.90120006        -2.03992349E-05
   3.91319990        -2.02174051E-05
   3.92519999        -2.00777122E-05
   3.93720007        -1.99743990E-05
   3.94919991        -1.99018195E-05
   3.96120000        -1.98546659E-05
   3.97320008        -1.98282032E-05
   3.98519993        -1.98184243E-05
   3.99720001        -1.98221514E-05
   4.00920010        -1.98370890E-05
   4.02120018        -1.98618200E-05
   4.03319979        -1.98957241E-05
   4.04519987        -1.99388742E-05
   4.05719995        -1.99918723E-05
   4.06920004        -2.00556569E-05
   4.08120012        -2.01312923E-05
   4.09320021        -2.02197480E-05
   4.10519981        -2.03216678E-05
   4.11719990        -2.04371918E-05
   4.12919998        -2.05657634E-05
   4.14120007        -2.07060148E-05
   4.15320015        -2.08556794E-05
   4.16520023        -2.10115650E-05
   4.17719984        -2.11695951E-05
   4.18919992        -2.13248950E-05
   4.20120001        -2.14719403E-05
   4.21320009        -2.16047683E-05
   4.22520018        -2.17172164E-05
   4.23719978        -2.18032001E-05
   4.24919987        -2.18570167E-05
   4.26119995        -2.18736459E-05
   4.27320004        -2.18490495E-05
   4.28520012        -2.17804372E-05
   4.29720020        -2.16664976E-05
   4.30919981        -2.15075870E-05
   4.32119989        -2.13058338E-05
   4.33319998        -2.10651815E-05
   4.34520006        -2.07913636E-05
   4.35720015        -2.04917633E-05
   4.36920023        -2.01752191E-05
   4.38119984        -1.98517446E-05
   4.39319992        -1.95321754E-05
   4.40520000        -1.92277603E-05
   4.41720009        -1.89497168E-05
   4.42920017        -1.87087517E-05
   4.44119978        -1.85146037E-05
   4.45319986        -1.83755728E-05
   4.46519995        -1.82981221E-05
   4.47720003        -1.82865369E-05
   4.48920012        -1.83426582E-05
   4.50120020        -1.84657365E-05
   4.51319981        -1.86523885E-05
   4.52519989        -1.88966915E-05
   4.53719997        -1.91903910E-05
   4.54920006        -1.95232315E-05
   4.56120014        -1.98834114E-05
   4.57320023        -2.02581232E-05
   4.58519983        -2.06341701E-05
   4.59719992        -2.09986229E-05
   4.60920000        -2.13395051E-05
   4.62120008        -2.16464414E-05
   4.63320017        -2.19112662E-05
   4.64519978        -2.21285482E-05
   4.65719986        -2.22960007E-05
   4.66919994        -2.24147443E-05
   4.68120003        -2.24894411E-05
   4.69320011        -2.25282329E-05
   4.70520020        -2.25425429E-05
   4.71719980        -2.25466883E-05
   4.72919989        -2.25573749E-05
   4.74119997        -2.25930416E-05
   4.75320005        -2.26731281E-05
   4.76520014        -2.28172685E-05
   4.77720022        -2.30444657E-05
   4.78919983        -2.33722676E-05
   4.80119991        -2.38160010E-05
   4.81320000        -2.43880877E-05
   4.82520008        -2.50974663E-05
   4.83720016        -2.59491553E-05
   4.84919977        -2.69439770E-05
   4.86119986        -2.80784425E-05
   4.87319994        -2.93448065E-05
   4.88520002        -3.07312985E-05
   4.89720011        -3.22224769E-05
   4.90920019        -3.37997735E-05
   4.92119980        -3.54420772E-05
   4.93319988        -3.71264796E-05
   4.94519997        -3.88290027E-05
   4.95720005        -4.05254177E-05
   4.96920013        -4.21920122E-05
   4.98120022        -4.38063362E-05
   4.99319983        -4.53478897E-05
   5.00519991        -4.67987229E-05
   5.01719999        -4.81439201E-05
   5.02920008        -4.93719963E-05
   5.04120016        -5.04750933E-05
   5.05319977        -5.14491185E-05
   5.06519985        -5.22936898E-05
   5.07719994        -5.30119505E-05
   5.08920002        -5.36102889E-05
   5.10120010        -5.40979054E-05
   5.11320019        -5.44862742E-05
   5.12519979        -5.47885647E-05
   5.13719988        -5.50189616E-05
   5.14919996        -5.51919693E-05
   5.16120005        -5.53216996E-05
   5.17320013        -5.54211874E-05
   5.18520021        -5.55017432E-05
   5.19719982        -5.55724000E-05
   5.20919991        -5.56394298E-05
   5.22119999        -5.57060121E-05
   5.23320007        -5.57720377E-05
   5.24520016        -5.58340580E-05
   5.25719976        -5.58854117E-05
   5.26919985        -5.59164946E-05
   5.28119993        -5.59152213E-05
   5.29320002        -5.58675893E-05
   5.30520010        -5.57583662E-05
   5.31720018        -5.55718907E-05
   5.32919979        -5.52928941E-05
   5.34119987        -5.49073484E-05
   5.35319996        -5.44032810E-05
   5.36520004        -5.37715168E-05
   5.37720013        -5.30062971E-05
   5.38920021        -5.21057809E-05
   5.40119982        -5.10723403E-05
   5.41319990        -4.99126836E-05
   5.42519999        -4.86377612E-05
   5.43720007        -4.72624852E-05
   5.44920015        -4.58052273E-05
   5.46120024        -4.42871860E-05
   5.47319984        -4.27315972E-05
   5.48519993        -4.11628316E-05
   5.49720001        -3.96054529E-05
   5.50920010        -3.80832680E-05
   5.52120018        -3.66183958E-05
   5.53319979        -3.52304196E-05
   5.54519987        -3.39356848E-05
   5.55719995        -3.27466951E-05
   5.56920004        -3.16717342E-05
   5.58120012        -3.07146656E-05
   5.59320021        -2.98749073E-05
   5.60519981        -2.91476226E-05
   5.61719990        -2.85240767E-05
   5.62919998        -2.79921496E-05
   5.64120007        -2.75369803E-05
   5.65320015        -2.71416920E-05
   5.66520023        -2.67881915E-05
   5.67719984        -2.64579703E-05
   5.68919992        -2.61328896E-05
   5.70120001        -2.57959291E-05
   5.71320009        -2.54318202E-05
   5.72520018        -2.50276062E-05
   5.73719978        -2.45730425E-05
   5.74919987        -2.40608842E-05
   5.76119995        -2.34870149E-05
   5.77320004        -2.28504268E-05
   5.78520012        -2.21530863E-05
   5.79720020        -2.13996518E-05
   5.80919981        -2.05971082E-05
   5.82119989        -1.97542977E-05
   5.83319998        -1.88814229E-05
   5.84520006        -1.79894869E-05
   5.85720015        -1.70897492E-05
   5.86920023        -1.61931875E-05
   5.88119984        -1.53100173E-05
   5.89319992        -1.44492606E-05
   5.90520000        -1.36184162E-05
   5.91720009        -1.28232077E-05
   5.92920017        -1.20674467E-05
   5.94119978        -1.13530041E-05
   5.95319986        -1.06798780E-05
   5.96519995        -1.00463758E-05
   5.97720003        -9.44937437E-06
   5.98920012        -8.88464820E-06
   6.00120020        -8.34726416E-06
   6.01319981        -7.83199266E-06
   6.02519989        -7.33372917E-06
   6.03719997        -6.84789666E-06
   6.04920006        -6.37080802E-06
   6.06120014        -5.89996444E-06
   6.07320023        -5.43427177E-06
   6.08519983        -4.97416704E-06
   6.09719992        -4.52164250E-06
   6.10920000        -4.08017013E-06
   6.12120008        -3.65452343E-06
   6.13320017        -3.25052042E-06
   6.14519978        -2.87468811E-06
   6.15719986        -2.53387998E-06
   6.16919994        -2.23486313E-06
   6.18120003        -1.98390558E-06
   6.19320011        -1.78638038E-06
   6.20520020        -1.64641892E-06
   6.21719980        -1.56662804E-06
   6.22919989        -1.54788779E-06
   6.24119997        -1.58924183E-06
   6.25320005        -1.68788529E-06
   6.26520014        -1.83924612E-06
   6.27720022        -2.03715740E-06
   6.28919983        -2.27410305E-06
   6.30119991        -2.54152405E-06
   6.31320000        -2.83016220E-06
   6.32520008        -3.13042506E-06
   6.33720016        -3.43274405E-06
   6.34919977        -3.72791169E-06
   6.36119986        -4.00737872E-06
   6.37319994        -4.26349470E-06
   6.38520002        -4.48968785E-06
   6.39720011        -4.68057578E-06
   6.40920019        -4.83200893E-06
   6.42119980        -4.94105097E-06
   6.43319988        -5.00590068E-06
   6.44519997        -5.02577586E-06
   6.45720005        -5.00075339E-06
   6.46920013        -4.93159450E-06
   6.48120022        -4.81955840E-06
   6.49319983        -4.66621941E-06
   6.50519991        -4.47329012E-06
   6.51719999        -4.24246628E-06
   6.52920008        -3.97528902E-06
   6.54120016        -3.67303960E-06
   6.55319977        -3.33665275E-06
   6.56519985        -2.96666644E-06
   6.57719994        -2.56319436E-06
   6.58920002        -2.12592545E-06
   6.60120010        -1.65415054E-06
   6.61320019        -1.14681166E-06
   6.62519979        -6.02575824E-07
   6.63719988        -1.99312300E-08
   6.64919996         6.02696787E-07
   6.66120005         1.26680868E-06
   6.67320013         1.97367899E-06
   6.68520021         2.72418947E-06
   6.69719982         3.51865515E-06
   6.70919991         4.35664833E-06
   6.72119999         5.23682911E-06
   6.73320007         6.15679028E-06
   6.74520016         7.11292932E-06
   6.75719976         8.10035817E-06
   6.76919985         9.11285315E-06
   6.78119993         1.01428705E-05
   6.79320002         1.11816171E-05
   6.80520010         1.22191886E-05
   6.81720018         1.32447803E-05
   6.82919979         1.42469544E-05
   6.84119987         1.52139764E-05
   6.85319996         1.61341795E-05
   6.86520004         1.69963878E-05
   6.87720013         1.77903148E-05
   6.88920021         1.85070094E-05
   6.90119982         1.91392137E-05
   6.91319990         1.96817200E-05
   6.92519999         2.01316343E-05
   6.93720007         2.04885637E-05
   6.94920015         2.07546909E-05
   6.96120024         2.09347436E-05
   6.97319984         2.10358558E-05
   6.98519993         2.10673043E-05
   6.99720001         2.10401377E-05
   7.00920010         2.09667287E-05
   7.02120018         2.08602287E-05
   7.03319979         2.07339999E-05
   7.04519987         2.06010136E-05
   7.05719995         2.04732441E-05
   7.06920004         2.03611235E-05
   7.08120012         2.02730425E-05
   7.09320021         2.02149622E-05
   7.10519981         2.01901148E-05
   7.11719990         2.01988569E-05
   7.12919998         2.02386364E-05
   7.14120007         2.03041272E-05
   7.15320015         2.03874642E-05
   7.16520023         2.04786375E-05
   7.17719984         2.05659617E-05
   7.18919992         2.06366440E-05
   7.20120001         2.06773930E-05
   7.21320009         2.06750701E-05
   7.22520018         2.06173117E-05
   7.23719978         2.04931293E-05
   7.24919987         2.02934389E-05
   7.26119995         2.00115046E-05
   7.27320004         1.96432702E-05
   7.28520012         1.91875843E-05
   7.29720020         1.86462639E-05
   7.30919981         1.80240786E-05
   7.32119989         1.73285644E-05
   7.33319998         1.65697602E-05
   7.34520006         1.57598170E-05
   7.35720015         1.49125599E-05
   7.36920023         1.40429565E-05
   7.38119984         1.31665875E-05
   7.39319992         1.22990750E-05
   7.40520000         1.14555432E-05
   7.41720009         1.06500911E-05
   7.42920017         9.89533601E-06
   7.44119978         9.20201273E-06
   7.45319986         8.57864325E-06
   7.46519995         8.03130570E-06
   7.47720003         7.56349800E-06
   7.48920012         7.17608327E-06
   7.50120020         6.86734074E-06
   7.51319981         6.63310175E-06
   7.52519989         6.46696890E-06
   7.53719997         6.36060258E-06
   7.54920006         6.30407658E-06
   7.56120014         6.28626412E-06
   7.57320023         6.29526858E-06
   7.58519983         6.31885496E-06
   7.59719992         6.34488333E-06
   7.60920000         6.36171944E-06
   7.62120008         6.35860624E-06
   7.63320017         6.32598585E-06
   7.64519978         6.25575694E-06
   7.65719986         6.14145665E-06
   7.66919994         5.97836743E-06
   7.68120003         5.76353568E-06
   7.69320011         5.49571087E-06
   7.70520020         5.17521175E-06
   7.71719980         4.80372137E-06
   7.72919989         4.38402867E-06
   7.74119997         3.91973253E-06
   7.75320005         3.41492068E-06
   7.76520014         2.87384864E-06
   7.77720022         2.30063142E-06
   7.78919983         1.69897157E-06
   7.80119991         1.07193512E-06
   7.81320000         4.21793288E-07
   7.82520008        -2.50063408E-07
   7.83720016        -9.43129976E-07
   7.84919977        -1.65771064E-06
   7.86119986        -2.39476663E-06
   7.87319994        -3.15569537E-06
   7.88520002        -3.94205244E-06
   7.89720011        -4.75523893E-06
   7.90920019        -5.59616819E-06
   7.92119980        -6.46494072E-06
   7.93319988        -7.36054471E-06
   7.94519997        -8.28060729E-06
   7.95720005        -9.22121944E-06
   7.96920013        -1.01768464E-05
   7.98120022        -1.11403479E-05
   7.99319983        -1.21031026E-05
   8.00520039        -1.30552407E-05
   8.01720047        -1.39859949E-05
   8.02919960        -1.48841355E-05
   8.04119968        -1.57384893E-05
   8.05319977        -1.65385027E-05
   8.06519985        -1.72748278E-05
   8.07719994        -1.79398994E-05
   8.08920002        -1.85284607E-05
   8.10120010        -1.90380033E-05
   8.11320019        -1.94691129E-05
   8.12520027        -1.98256403E-05
   8.13720036        -2.01147359E-05
   8.14920044        -2.03466880E-05
   8.16119957        -2.05345950E-05
   8.17319965        -2.06938530E-05
   8.18519974        -2.08414913E-05
   8.19719982        -2.09953723E-05
   8.20919991        -2.11733131E-05
   8.22119999        -2.13921267E-05
   8.23320007        -2.16666958E-05
   8.24520016        -2.20090660E-05
   8.25720024        -2.24276555E-05
   8.26920033        -2.29266061E-05
   8.28120041        -2.35053103E-05
   8.29319954        -2.41581783E-05
   8.30519962        -2.48746255E-05
   8.31719971        -2.56393196E-05
   8.32919979        -2.64326682E-05
   8.34119987        -2.72315319E-05
   8.35319996        -2.80101303E-05
   8.36520004        -2.87410967E-05
   8.37720013        -2.93966459E-05
   8.38920021        -2.99497588E-05
   8.40120029        -3.03753804E-05
   8.41320038        -3.06515176E-05
   8.42520046        -3.07602204E-05
   8.43719959        -3.06883885E-05
   8.44919968        -3.04283494E-05
   8.46119976        -2.99782241E-05
   8.47319984        -2.93420198E-05
   8.48519993        -2.85294864E-05
   8.49720001        -2.75557431E-05
   8.50920010        -2.64407026E-05
   8.52120018        -2.52083100E-05
   8.53320026        -2.38856755E-05
   8.54520035        -2.25021013E-05
   8.55720043        -2.10881062E-05
   8.56919956        -1.96744240E-05
   8.58119965        -1.82910881E-05
   8.59319973        -1.69665673E-05
   8.60519981        -1.57270460E-05
   8.61719990        -1.45958056E-05
   8.62919998        -1.35927539E-05
   8.64120007        -1.27340891E-05
   8.65320015        -1.20320938E-05
   8.66520023        -1.14950390E-05
   8.67720032        -1.11272020E-05
   8.68920040        -1.09289604E-05
   8.70119953        -1.08969543E-05
   8.71319962        -1.10243072E-05
   8.72519970        -1.13008800E-05
   8.73719978        -1.17135733E-05
   8.74919987        -1.22466427E-05
   8.76119995        -1.28820529E-05
   8.77320004        -1.35998607E-05
   8.78520012        -1.43786301E-05
   8.79720020        -1.51958802E-05
   8.80920029        -1.60285781E-05
   8.82120037        -1.68536662E-05
   8.83320045        -1.76486228E-05
   8.84519958        -1.83920438E-05
   8.85719967        -1.90642349E-05
   8.86919975        -1.96478013E-05
   8.88119984        -2.01282019E-05
   8.89319992        -2.04942407E-05
   8.90520000        -2.07384819E-05
   8.91720009        -2.08575566E-05
   8.92920017        -2.08523234E-05
   8.94120026        -2.07278863E-05
   8.95320034        -2.04934386E-05
   8.96520042        -2.01619459E-05
   8.97719955        -1.97496393E-05
   8.98919964        -1.92753923E-05
   9.00119972        -1.87599235E-05
   9.01319981        -1.82249441E-05
   9.02519989        -1.76922313E-05
   9.03719997        -1.71826814E-05
   9.04920006        -1.67154212E-05
   9.06120014        -1.63070054E-05
   9.07320023        -1.59707270E-05
   9.08520031        -1.57161230E-05