 -0.622799993       0.00000000    
 -0.610800028       0.00000000    
 -0.598800004       0.00000000    
 -0.586799979       0.00000000    
 -0.574800014       0.00000000    
 -0.562799990       0.00000000    
 -0.550800025      -3.76623497E-27
 -0.538800001      -4.41265895E-26
 -0.526799977      -2.74174253E-25
 -0.514800012      -1.19613253E-24
 -0.502799988      -4.09089855E-24
 -0.490799993      -1.16078445E-23
 -0.478799999      -2.82454708E-23
 -0.466800004      -6.01997869E-23
 -0.454800010      -1.14079637E-22
 -0.442799985      -1.94640006E-22
 -0.430799991      -3.02934629E-22
 -0.418799996      -4.37297836E-22
 -0.406800002      -5.98913903E-22
 -0.394800007      -8.00701846E-22
 -0.382800013      -1.07439523E-21
 -0.370799989      -1.46987258E-21
 -0.358799994      -2.04593047E-21
 -0.346799999      -2.86002988E-21
 -0.334800005      -3.96634800E-21
 -0.322800010      -5.41787630E-21
 -0.310799986      -7.24689784E-21
 -0.298799992      -9.40156359E-21
 -0.286799997      -1.16841556E-20
 -0.274800003      -1.38631674E-20
 -0.262800008      -1.62097286E-20
 -0.250800014      -2.05401499E-20
 -0.238800004      -3.12780480E-20
 -0.226799995      -5.52237538E-20
 -0.214800000      -9.82688177E-20
 -0.202800006      -1.58212096E-19
 -0.190799996      -2.15822899E-19
 -0.178800002      -2.30732519E-19
 -0.166800007      -1.51898549E-19
 -0.154799998       5.00471833E-20
 -0.142800003       3.32834395E-19
 -0.130799994       5.38824676E-19
 -0.118799999       3.99934485E-19
 -0.106799997      -3.65084745E-19
  -9.48000029E-02  -1.84967222E-18
  -8.28000009E-02  -3.71304254E-18
  -7.07999989E-02  -5.03130705E-18
  -5.88000007E-02  -4.43803657E-18
  -4.67999987E-02  -6.95661480E-19
  -3.48000005E-02   6.35059395E-18
  -2.28000004E-02   1.47843265E-17
  -1.08000003E-02   2.02278168E-17
   1.20000006E-03   1.67515357E-17
   1.31999999E-02  -5.54708766E-19
   2.52000000E-02  -3.17872010E-17
   3.72000001E-02  -6.87034578E-17
   4.91999984E-02  -9.37779954E-17
   6.12000003E-02  -8.40891892E-17
   7.32000023E-02  -2.08607407E-17
   8.51999968E-02   9.72715100E-17
   9.71999988E-02   2.42445129E-16
  0.109200001       3.54569765E-16
  0.121200003       3.53835838E-16
  0.133200005       1.70792137E-16
  0.145199999      -2.12094906E-16
  0.157199994      -7.22588455E-16
  0.169200003      -1.18551907E-15
  0.181199998      -1.35328876E-15
  0.193200007      -9.86652141E-16
  0.205200002       2.88292362E-17
  0.217199996       1.56883303E-15
  0.229200006       3.21266658E-15
  0.241200000       4.29302640E-15
  0.253199995       4.07685936E-15
  0.265199989       2.05233034E-15
  0.277200013      -1.75939490E-15
  0.289200008      -6.59062360E-15
  0.301200002      -1.09389943E-14
  0.313199997      -1.28836617E-14
  0.325199991      -1.06874450E-14
  0.337199986      -3.54475199E-15
  0.349200010       7.76917932E-15
  0.361200005       2.06318676E-14
  0.373199999       3.09150085E-14
  0.385199994       3.39960502E-14
  0.397199988       2.62700543E-14
  0.409200013       6.75945548E-15
  0.421200007      -2.17278351E-14
  0.433200002      -5.24285307E-14
  0.445199996      -7.57718676E-14
  0.457199991      -8.18020646E-14
  0.469199985      -6.33844987E-14
  0.481200010      -1.93203150E-14
  0.493200004       4.36850771E-14
  0.505200028       1.11122855E-13
  0.517199993       1.63311205E-13
  0.529200017       1.80301873E-13
  0.541199982       1.48023683E-13
  0.553200006       6.40025210E-14
  0.565199971      -5.92277488E-14
  0.577199996      -1.94586033E-13
  0.589200020      -3.05455883E-13
  0.601199985      -3.54650391E-13
  0.613200009      -3.15378284E-13
  0.625199974      -1.81243665E-13
  0.637199998       2.79777066E-14
  0.649200022       2.67363117E-13
  0.661199987       4.75621550E-13
  0.673200011       5.90335235E-13
  0.685199976       5.66111828E-13
  0.697200000       3.90544232E-13
  0.709200025       9.26714556E-14
  0.721199989      -2.59895160E-13
  0.733200014      -5.76048812E-13
  0.745199978      -7.65577814E-13
  0.757200003      -7.66533430E-13
  0.769200027      -5.67302715E-13
  0.781199992      -2.15584481E-13
  0.793200016       1.90420298E-13
  0.805199981       5.28159005E-13
  0.817200005       6.88021526E-13
  0.829200029       6.11047454E-13
  0.841199994       3.14680899E-13
  0.853200018      -1.03563547E-13
  0.865199983      -4.88786420E-13
  0.877200007      -6.73944461E-13
  0.889199972      -5.35976482E-13
  0.901199996      -4.60532559E-14
  0.913200021       7.03142405E-13
  0.925199986       1.50512773E-12
  0.937200010       2.08490343E-12
  0.949199975       2.17309113E-12
  0.961199999       1.59039242E-12
  0.973200023       3.18603054E-13
  0.985199988      -1.46425580E-12
  0.997200012      -3.39917634E-12
   1.00919998      -5.01353646E-12
   1.02119994      -5.82820250E-12
   1.03320003      -5.48024950E-12
   1.04519999      -3.83120185E-12
   1.05719995      -1.03223452E-12
   1.06920004       2.47339757E-12
   1.08120000       6.01641783E-12
   1.09319997       8.82606401E-12
   1.10520005       1.01894118E-11
   1.11720002       9.61338040E-12
   1.12919998       6.95597659E-12
   1.14119995       2.49915648E-12
   1.15320003      -3.05289019E-12
   1.16520000      -8.65193767E-12
   1.17719996      -1.30482751E-11
   1.18920004      -1.49745528E-11
   1.20120001      -1.33418016E-11
   1.21319997      -7.41763595E-12
   1.22520006       3.04028677E-12
   1.23720002       1.77173172E-11
   1.24919999       3.57590242E-11
   1.26119995       5.58888456E-11
   1.27320004       7.66440592E-11
   1.28520000       9.67518565E-11
   1.29719996       1.15669217E-10
   1.30920005       1.34306288E-10
   1.32120001       1.55938013E-10
   1.33319998       1.87282745E-10
   1.34519994       2.39688158E-10
   1.35720003       3.30325295E-10
   1.36919999       4.83260154E-10
   1.38119996       7.30262129E-10
   1.39320004       1.11123921E-09
   1.40520000       1.67426839E-09
   1.41719997       2.47532594E-09
   1.42920005       3.57801277E-09
   1.44120002       5.05380493E-09
   1.45319998       6.98362745E-09
   1.46519995       9.46182244E-09
   1.47720003       1.26038522E-08
   1.48920000       1.65593299E-08
   1.50119996       2.15321343E-08
   1.51320004       2.78095342E-08
   1.52520001       3.58022447E-08
   1.53719997       4.60973197E-08
   1.54920006       5.95254619E-08
   1.56120002       7.72440529E-08
   1.57319999       1.00836360E-07
   1.58519995       1.32426720E-07
   1.59720004       1.74809955E-07
   1.60920000       2.31592423E-07
   1.62119997       3.07339633E-07
   1.63320005       4.07724826E-07
   1.64520001       5.39669657E-07
   1.65719998       7.11468772E-07
   1.66919994       9.32885371E-07
   1.68120003       1.21520884E-06
   1.69319999       1.57126044E-06
   1.70519996       2.01533612E-06
   1.71720004       2.56307635E-06
   1.72920001       3.23125369E-06
   1.74119997       4.03747163E-06
   1.75320005       4.99977250E-06
   1.76520002       6.13615066E-06
   1.77719998       7.46398337E-06
   1.78919995       8.99937822E-06
   1.80120003       1.07564592E-05
   1.81320000       1.27466137E-05
   1.82519996       1.49777088E-05
   1.83720005       1.74533216E-05
   1.84920001       2.01720195E-05
   1.86119998       2.31267077E-05
   1.87320006       2.63040929E-05
   1.88520002       2.96843064E-05
   1.89719999       3.32407071E-05
   1.90919995       3.69398877E-05
   1.92120004       4.07419575E-05
   1.93320000       4.46010054E-05
   1.94519997       4.84659213E-05
   1.95720005       5.22813461E-05
   1.96920002       5.59889631E-05
   1.98119998       5.95289275E-05
   1.99319994       6.28414418E-05
   2.00519991       6.58684658E-05
   2.01719999       6.85554842E-05
   2.02920008       7.08531879E-05
   2.04119992       7.27191218E-05
   2.05320001       7.41191325E-05
   2.06520009       7.50286417E-05
   2.07719994       7.54335415E-05
   2.08920002       7.53308486E-05
   2.10120010       7.47289232E-05
   2.11319995       7.36473958E-05
   2.12520003       7.21166143E-05
   2.13720012       7.01768222E-05
   2.14919996       6.78769429E-05
   2.16120005       6.52731105E-05
   2.17319989       6.24270178E-05
   2.18519998       5.94040939E-05
   2.19720006       5.62715759E-05
   2.20919991       5.30966390E-05
   2.22119999       4.99445923E-05
   2.23320007       4.68771723E-05
   2.24519992       4.39510623E-05
   2.25720000       4.12166883E-05
   2.26920009       3.87172040E-05
   2.28119993       3.64878542E-05
   2.29320002       3.45555709E-05
   2.30520010       3.29389259E-05
   2.31719995       3.16483238E-05
   2.32920003       3.06864313E-05
   2.34120011       3.00488391E-05
   2.35319996       2.97248862E-05
   2.36520004       2.96985909E-05
   2.37719989       2.99496442E-05
   2.38919997       3.04544374E-05
   2.40120006       3.11870390E-05
   2.41319990       3.21201296E-05
   2.42519999       3.32258132E-05
   2.43720007       3.44763430E-05
   2.44919991       3.58446778E-05
   2.46120000       3.73049188E-05
   2.47320008       3.88326443E-05
   2.48519993       4.04050588E-05
   2.49720001       4.20011202E-05
   2.50920010       4.36015362E-05
   2.52119994       4.51887463E-05
   2.53320003       4.67468417E-05
   2.54520011       4.82615105E-05
   2.55719995       4.97199871E-05
   2.56920004       5.11110484E-05
   2.58119988       5.24249990E-05
   2.59319997       5.36537373E-05
   2.60520005       5.47908203E-05
   2.61719990       5.58315405E-05
   2.62919998       5.67730094E-05
   2.64120007       5.76141611E-05
   2.65319991       5.83557849E-05
   2.66520000       5.90004238E-05
   2.67720008       5.95521960E-05
   2.68919992       6.00166059E-05
   2.70120001       6.04001689E-05
   2.71320009       6.07100883E-05
   2.72519994       6.09538001E-05
   2.73720002       6.11385840E-05
   2.74920011       6.12711592E-05
   2.76119995       6.13573939E-05
   2.77320004       6.14021119E-05
   2.78520012       6.14089877E-05
   2.79719996       6.13807133E-05
   2.80920005       6.13192678E-05
   2.82119989       6.12264266E-05
   2.83319998       6.11044015E-05
   2.84520006       6.09566414E-05
   2.85719991       6.07887123E-05
   2.86919999       6.06092653E-05
   2.88120008       6.04309171E-05
   2.89319992       6.02710570E-05
   2.90520000       6.01524880E-05
   2.91720009       6.01037755E-05
   2.92919993       6.01593456E-05
   2.94120002       6.03591434E-05
   2.95320010       6.07479124E-05
   2.96519995       6.13740704E-05
   2.97720003       6.22881416E-05
   2.98920012       6.35408214E-05
   3.00119996       6.51807059E-05
   3.01320004       6.72517635E-05
   3.02519989       6.97906726E-05
   3.03719997       7.28240775E-05
   3.04920006       7.63659627E-05
   3.06119990       8.04151932E-05
   3.07319999       8.49534408E-05
   3.08520007       8.99434744E-05
   3.09719992       9.53281051E-05
   3.10920000       1.01029684E-04
   3.12120008       1.06950378E-04
   3.13319993       1.12973103E-04
   3.14520001       1.18963297E-04
   3.15720010       1.24771308E-04
   3.16919994       1.30235567E-04
   3.18120003       1.35186288E-04
   3.19320011       1.39449563E-04
   3.20519996       1.42852048E-04
   3.21720004       1.45225669E-04
   3.22919989       1.46412523E-04
   3.24119997       1.46269580E-04
   3.25320005       1.44673308E-04
   3.26519990       1.41523749E-04
   3.27719998       1.36748189E-04
   3.28920007       1.30304077E-04
   3.30119991       1.22181271E-04
   3.31320000       1.12403264E-04
   3.32520008       1.01027690E-04
   3.33719993       8.81456435E-05
   3.34920001       7.38802628E-05
   3.36120009       5.83842193E-05
   3.37319994       4.18364580E-05
   3.38520002       2.44381517E-05
   3.39720011       6.40800818E-06
   3.40919995      -1.20228442E-05
   3.42120004      -3.06163092E-05
   3.43319988      -4.91328610E-05
   3.44519997      -6.73370596E-05
   3.45720005      -8.50027354E-05
   3.46919990      -1.01917838E-04
   3.48119998      -1.17888660E-04
   3.49320006      -1.32743429E-04
   3.50519991      -1.46335049E-04
   3.51719999      -1.58543102E-04
   3.52920008      -1.69274965E-04
   3.54119992      -1.78466071E-04
   3.55320001      -1.86079546E-04
   3.56520009      -1.92105072E-04
   3.57719994      -1.96557201E-04
   3.58920002      -1.99473157E-04
   3.60120010      -2.00910479E-04
   3.61319995      -2.00944240E-04
   3.62520003      -1.99664370E-04
   3.63720012      -1.97172863E-04
   3.64919996      -1.93581145E-04
   3.66120005      -1.89007435E-04
   3.67319989      -1.83574492E-04
   3.68519998      -1.77407404E-04
   3.69720006      -1.70631567E-04
   3.70919991      -1.63370947E-04
   3.72119999      -1.55746413E-04
   3.73320007      -1.47874205E-04
   3.74519992      -1.39864598E-04
   3.75720000      -1.31820620E-04
   3.76920009      -1.23836842E-04
   3.78119993      -1.15998468E-04
   3.79320002      -1.08380256E-04
   3.80520010      -1.01045924E-04
   3.81719995      -9.40475365E-05
   3.82920003      -8.74252291E-05
   3.84120011      -8.12071376E-05
   3.85319996      -7.54096691E-05
   3.86520004      -7.00380988E-05
   3.87719989      -6.50874135E-05
   3.88919997      -6.05435525E-05
   3.90120006      -5.63848444E-05
   3.91319990      -5.25837349E-05
   3.92519999      -4.91086430E-05
   3.93720007      -4.59259172E-05
   3.94919991      -4.30018226E-05
   3.96120000      -4.03044105E-05
   3.97320008      -3.78052355E-05
   3.98519993      -3.54807926E-05
   3.99720001      -3.33136522E-05
   4.00920010      -3.12931370E-05
   4.02120018      -2.94156198E-05
   4.03319979      -2.76842929E-05
   4.04519987      -2.61085424E-05
   4.05719995      -2.47028602E-05
   4.06920004      -2.34854106E-05
   4.08120012      -2.24763135E-05
   4.09320021      -2.16957378E-05
   4.10519981      -2.11619354E-05
   4.11719990      -2.08893362E-05
   4.12919998      -2.08868132E-05
   4.14120007      -2.11562528E-05
   4.15320015      -2.16915014E-05
   4.16520023      -2.24777978E-05
   4.17719984      -2.34917170E-05
   4.18919992      -2.47016287E-05
   4.20120001      -2.60687066E-05
   4.21320009      -2.75483835E-05
   4.22520018      -2.90922180E-05
   4.23719978      -3.06500369E-05
   4.24919987      -3.21722546E-05
   4.26119995      -3.36122539E-05
   4.27320004      -3.49286092E-05
   4.28520012      -3.60871272E-05
   4.29720020      -3.70625021E-05
   4.30919981      -3.78395198E-05
   4.32119989      -3.84137093E-05
   4.33319998      -3.87914261E-05
   4.34520006      -3.89893321E-05
   4.35720015      -3.90333189E-05
   4.36920023      -3.89569250E-05
   4.38119984      -3.87993059E-05
   4.39319992      -3.86029278E-05
   4.40520000      -3.84110390E-05
   4.41720009      -3.82651269E-05
   4.42920017      -3.82024409E-05
   4.44119978      -3.82537728E-05
   4.45319986      -3.84415544E-05
   4.46519995      -3.87784021E-05
   4.47720003      -3.92662150E-05
   4.48920012      -3.98957891E-05
   4.50120020      -4.06471045E-05
   4.51319981      -4.14901078E-05
   4.52519989      -4.23860765E-05
   4.53719997      -4.32894594E-05
   4.54920006      -4.41500561E-05
   4.56120014      -4.49154868E-05
   4.57320023      -4.55338050E-05
   4.58519983      -4.59560906E-05
   4.59719992      -4.61389427E-05
   4.60920000      -4.60467163E-05
   4.62120008      -4.56533526E-05
   4.63320017      -4.49438267E-05
   4.64519978      -4.39149553E-05
   4.65719986      -4.25757025E-05
   4.66919994      -4.09468521E-05
   4.68120003      -3.90601235E-05
   4.69320011      -3.69567279E-05
   4.70520020      -3.46855086E-05
   4.71719980      -3.23007225E-05
   4.72919989      -2.98595642E-05
   4.74119997      -2.74196373E-05
   4.75320005      -2.50364283E-05
   4.76520014      -2.27609798E-05
   4.77720022      -2.06378263E-05
   4.78919983      -1.87033638E-05
   4.80119991      -1.69846753E-05
   4.81320000      -1.54988738E-05
   4.82520008      -1.42530007E-05
   4.83720016      -1.32444329E-05
   4.84919977      -1.24617727E-05
   4.86119986      -1.18861290E-05
   4.87319994      -1.14926906E-05
   4.88520002      -1.12524949E-05
   4.89720011      -1.11342570E-05
   4.90920019      -1.11061445E-05
   4.92119980      -1.11373865E-05
   4.93319988      -1.11996287E-05
   4.94519997      -1.12679554E-05
   4.95720005      -1.13215356E-05
   4.96920013      -1.13438819E-05
   4.98120022      -1.13227261E-05
   4.99319983      -1.12495536E-05
   5.00519991      -1.11188783E-05
   5.01719999      -1.09273233E-05
   5.02920008      -1.06726120E-05
   5.04120016      -1.03525826E-05
   5.05319977      -9.96430754E-06
   5.06519985      -9.50341655E-06
   5.07719994      -8.96370420E-06
   5.08920002      -8.33704144E-06
   5.10120010      -7.61364527E-06
   5.11320019      -6.78267952E-06
   5.12519979      -5.83315841E-06
   5.13719988      -4.75509069E-06
   5.14919996      -3.54077815E-06
   5.16120005      -2.18616901E-06
   5.17320013      -6.92155709E-07
   5.18520021       9.34294178E-07
   5.19719982       2.67928135E-06
   5.20919991       4.52148061E-06
   5.22119999       6.43208341E-06
   5.23320007       8.37521475E-06
   5.24520016       1.03088441E-05
   5.25719976       1.21861631E-05
   5.26919985       1.39573776E-05
   5.28119993       1.55718481E-05
   5.29320002       1.69804334E-05
   5.30520010       1.81379746E-05
   5.31720018       1.90057035E-05
   5.32919979       1.95535158E-05
   5.34119987       1.97619029E-05
   5.35319996       1.96234923E-05
   5.36520004       1.91440267E-05
   5.37720013       1.83427765E-05
   5.38920021       1.72523014E-05
   5.40119982       1.59175779E-05
   5.41319990       1.43945208E-05
   5.42519999       1.27479461E-05
   5.43720007       1.10490901E-05
   5.44920015       9.37277400E-06
   5.46120024       7.79436505E-06
   5.47319984       6.38665551E-06
   5.48519993       5.21682750E-06
   5.49720001       4.34361573E-06
   5.50920010       3.81481323E-06
   5.52120018       3.66522659E-06
   5.53319979       3.91516596E-06
   5.54519987       4.56954058E-06
   5.55719995       5.61758679E-06
   5.56920004       7.03324895E-06
   5.58120012       8.77617913E-06
   5.59320021       1.07933147E-05
   5.60519981       1.30209582E-05
   5.61719990       1.53872734E-05
   5.62919998       1.78150731E-05
   5.64120007       2.02247957E-05
   5.65320015       2.25375352E-05
   5.66520023       2.46779982E-05
   5.67719984       2.65772724E-05
   5.68919992       2.81752964E-05
   5.70120001       2.94229285E-05
   5.71320009       3.02835597E-05
   5.72520018       3.07341725E-05
   5.73719978       3.07658738E-05
   5.74919987       3.03838351E-05
   5.76119995       2.96067210E-05
   5.77320004       2.84655707E-05
   5.78520012       2.70022829E-05
   5.79720020       2.52677019E-05
   5.80919981       2.33194478E-05
   5.82119989       2.12195573E-05
   5.83319998       1.90320698E-05
   5.84520006       1.68206116E-05
   5.85720015       1.46461207E-05
   5.86920023       1.25647621E-05
   5.88119984       1.06261250E-05
   5.89319992       8.87173883E-06
   5.90520000       7.33397064E-06
   5.91720009       6.03529952E-06
   5.92920017       4.98799363E-06
   5.94119978       4.19416392E-06
   5.95319986       3.64618154E-06
   5.96519995       3.32742206E-06
   5.97720003       3.21328935E-06
   5.98920012       3.27248426E-06
   6.00120020       3.46845741E-06
   6.01319981       3.76100434E-06
   6.02519989       4.10794382E-06
   6.03719997       4.46683543E-06
   6.04920006       4.79667960E-06
   6.06120014       5.05955632E-06
   6.07320023       5.22214896E-06
   6.08519983       5.25711403E-06
   6.09719992       5.14424710E-06
   6.10920000       4.87140551E-06
   6.12120008       4.43515592E-06
   6.13320017       3.84110308E-06
   6.14519978       3.10388805E-06
   6.15719986       2.24682890E-06
   6.16919994       1.30120964E-06
   6.18120003       3.05214769E-07
   6.19320011      -6.97462326E-07
   6.20520020      -1.65929714E-06
   6.21719980      -2.53085000E-06
   6.22919989      -3.26284476E-06
   6.24119997      -3.80833626E-06
   6.25320005      -4.12486588E-06
   6.26520014      -4.17651836E-06
   6.27720022      -3.93576875E-06
   6.28919983      -3.38503764E-06
   6.30119991      -2.51785764E-06
   6.31320000      -1.33958883E-06
   6.32520008       1.32366978E-07
   6.33720016       1.86888462E-06
   6.34919977       3.82995859E-06
   6.36119986       5.96604787E-06
   6.37319994       8.21986941E-06
   6.38520002       1.05285599E-05
   6.39720011       1.28261163E-05
   6.40920019       1.50459955E-05
   6.42119980       1.71237607E-05
   6.43319988       1.89996390E-05
   6.44519997       2.06208879E-05
   6.45720005       2.19438407E-05
   6.46920013       2.29355555E-05
   6.48120022       2.35749758E-05
   6.49319983       2.38535722E-05
   6.50519991       2.37754284E-05
   6.51719999       2.33567844E-05
   6.52920008       2.26250904E-05
   6.54120016       2.16175868E-05
   6.55319977       2.03795244E-05
   6.56519985       1.89621132E-05
   6.57719994       1.74202796E-05
   6.58920002       1.58103630E-05
   6.60120010       1.41878427E-05
   6.61320019       1.26052028E-05
   6.62519979       1.11100135E-05
   6.63719988       9.74330760E-06
   6.64919996       8.53831534E-06
   6.66120005       7.51957941E-06
   6.67320013       6.70248710E-06
   6.68520021       6.09321296E-06
   6.69719982       5.68904989E-06
   6.70919991       5.47909758E-06
   6.72119999       5.44526029E-06
   6.73320007       5.56348914E-06
   6.74520016       5.80520600E-06
   6.75719976       6.13882639E-06
   6.76919985       6.53131474E-06
   6.78119993       6.94969822E-06
   6.79320002       7.36246693E-06
   6.80520010       7.74081218E-06
   6.81720018       8.05964646E-06
   6.82919979       8.29837882E-06
   6.84119987       8.44141596E-06
   6.85319996       8.47840056E-06
   6.86520004       8.40417670E-06
   6.87720013       8.21851972E-06
   6.88920021       7.92565697E-06
   6.90119982       7.53363611E-06
   6.91319990       7.05357070E-06
   6.92519999       6.49884441E-06
   6.93720007       5.88430521E-06
   6.94920015       5.22551227E-06
   6.96120024       4.53807797E-06
   6.97319984       3.83712859E-06
   6.98519993       3.13690771E-06
   6.99720001       2.45053070E-06
   7.00920010       1.78986988E-06
   7.02120018       1.16555998E-06
   7.03319979       5.87082411E-07
   7.04519987       6.28970938E-08
   7.05719995      -3.99421140E-07
   7.06920004      -7.93075401E-07
   7.08120012      -1.11200234E-06
   7.09320021      -1.35090545E-06
   7.10519981      -1.50537892E-06
   7.11719990      -1.57211650E-06
   7.12919998      -1.54919155E-06
   7.14120007      -1.43637976E-06
   7.15320015      -1.23549364E-06
   7.16520023      -9.50690946E-07
   7.17719984      -5.88714215E-07
   7.18919992      -1.59027650E-07
   7.20120001       3.26181549E-07
   7.21320009       8.52159189E-07
   7.22520018       1.40190673E-06
   7.23719978       1.95666894E-06
   7.24919987       2.49656864E-06
   7.26119995       3.00136003E-06
   7.27320004       3.45126045E-06
   7.28520012       3.82781445E-06
   7.29720020       4.11473320E-06
   7.30919981       4.29866486E-06
   7.32119989       4.36984283E-06
   7.33319998       4.32256775E-06
   7.34520006       4.15550358E-06
   7.35720015       3.87175623E-06
   7.36920023       3.47874220E-06
   7.38119984       2.98784653E-06
   7.39319992       2.41389512E-06
   7.40520000       1.77447328E-06
   7.41720009       1.08912786E-06
   7.42920017       3.78499294E-07
   7.44119978      -3.36574203E-07
   7.45319986      -1.03593288E-06
   7.46519995      -1.70091039E-06
   7.47720003      -2.31505373E-06
   7.48920012      -2.86471709E-06
   7.50120020      -3.33950607E-06
   7.51319981      -3.73256171E-06
   7.52519989      -4.04067032E-06
   7.53719997      -4.26420365E-06
   7.54920006      -4.40689973E-06
   7.56120014      -4.47549519E-06
   7.57320023      -4.47923094E-06
   7.58519983      -4.42926284E-06
   7.59719992      -4.33800278E-06
   7.60920000      -4.21842606E-06
   7.62120008      -4.08337610E-06
   7.63320017      -3.94489825E-06
   7.64519978      -3.81363702E-06
   7.65719986      -3.69831650E-06
   7.66919994      -3.60533249E-06
   7.68120003      -3.53847076E-06
   7.69320011      -3.49876746E-06
   7.70520020      -3.48451522E-06
   7.71719980      -3.49141828E-06
   7.72919989      -3.51288918E-06
   7.74119997      -3.54047620E-06
   7.75320005      -3.56440137E-06
   7.76520014      -3.57418298E-06
   7.77720022      -3.55931547E-06
   7.78919983      -3.50997311E-06
   7.80119991      -3.41769965E-06
   7.81320000      -3.27605335E-06
   7.82520008      -3.08116682E-06
   7.83720016      -2.83219561E-06
   7.84919977      -2.53162807E-06
   7.86119986      -2.18543050E-06
   7.87319994      -1.80302231E-06
   7.88520002      -1.39706890E-06
   7.89720011      -9.83098289E-07
   7.90920019      -5.78955678E-07
   7.92119980      -2.04116162E-07
   7.93319988       1.21113658E-07
   7.94519997       3.76467739E-07
   7.95720005       5.42627902E-07
   7.96920013       6.02122668E-07
   7.98120022       5.40174369E-07
   7.99319983       3.45453657E-07
   8.00520039       1.07045119E-08
   8.01720047      -4.66791164E-07
   8.02919960      -1.08493418E-06
   8.04119968      -1.83673035E-06
   8.05319977      -2.71042154E-06
   8.06519985      -3.68982091E-06
   8.07719994      -4.75484012E-06
   8.08920002      -5.88218654E-06
   8.10120010      -7.04619742E-06
   8.11320019      -8.21977119E-06
   8.12520027      -9.37535879E-06
   8.13720036      -1.04859610E-05
   8.14920044      -1.15260973E-05
   8.16119957      -1.24727003E-05
   8.17319965      -1.33058875E-05
   8.18519974      -1.40096045E-05
   8.19719982      -1.45720942E-05
   8.20919991      -1.49861780E-05
   8.22119999      -1.52493531E-05
   8.23320007      -1.53636956E-05
   8.24520016      -1.53355850E-05
   8.25720024      -1.51752547E-05
   8.26920033      -1.48962172E-05
   8.28120041      -1.45145641E-05
   8.29319954      -1.40481970E-05
   8.30519962      -1.35160217E-05
   8.31719971      -1.29371392E-05
   8.32919979      -1.23300861E-05
   8.34119987      -1.17121408E-05
   8.35319996      -1.10987539E-05
   8.36520004      -1.05031031E-05
   8.37720013      -9.93580215E-06
   8.38920021      -9.40477639E-06
   8.40120029      -8.91528907E-06
   8.41320038      -8.47012416E-06
   8.42520046      -8.06988101E-06
   8.43719959      -7.71338728E-06
   8.44919968      -7.39816960E-06
   8.46119976      -7.12096198E-06
   8.47319984      -6.87821148E-06
   8.48519993      -6.66655433E-06
   8.49720001      -6.48322521E-06
   8.50920010      -6.32638194E-06
   8.52120018      -6.19531602E-06
   8.53320026      -6.09055360E-06
   8.54520035      -6.01382453E-06
   8.55720043      -5.96791097E-06
   8.56919956      -5.95638903E-06
   8.58119965      -5.98327733E-06
   8.59319973      -6.05262585E-06
   8.60519981      -6.16807165E-06
   8.61719990      -6.33240052E-06
   8.62919998      -6.54715222E-06
   8.64120007      -6.81230131E-06
   8.65320015      -7.12604333E-06
   8.66520023      -7.48471166E-06
   8.67720032      -7.88282432E-06
   8.68920040      -8.31327634E-06
   8.70119953      -8.76765625E-06
   8.71319962      -9.23666357E-06
   8.72519970      -9.71060035E-06
   8.73719978      -1.01798996E-05
   8.74919987      -1.06356383E-05
   8.76119995      -1.10700057E-05
   8.77320004      -1.14766863E-05
   8.78520012      -1.18511116E-05
   8.79720020      -1.21905869E-05
   8.80920029      -1.24942517E-05
   8.82120037      -1.27628919E-05
   8.83320045      -1.29986302E-05
   8.84519958      -1.32044843E-05
   8.85719967      -1.33838785E-05
   8.86919975      -1.35401069E-05
   8.88119984      -1.36758326E-05
   8.89319992      -1.37926500E-05
   8.90520000      -1.38907653E-05
   8.91720009      -1.39688282E-05
   8.92920017      -1.40239245E-05
   8.94120026      -1.40517759E-05
   8.95320034      -1.40470984E-05
   8.96520042      -1.40041175E-05
   8.97719955      -1.39172207E-05
   8.98919964      -1.37816660E-05
   9.00119972      -1.35943174E-05
   9.01319981      -1.33543417E-05
   9.02519989      -1.30638091E-05
   9.03719997      -1.27281364E-05
   9.04920006      -1.23563495E-05
   9.06120014      -1.19611086E-05
   9.07320023      -1.15585044E-05
   9.08520031      -1.11676118E-05
   9.09720039      -1.08098184E-05
   9.10919952      -1.05079771E-05
   9.12119961      -1.02853937E-05
   9.13319969      -1.01647356E-05
   9.14519978      -1.01669011E-05
   9.15719986      -1.03099092E-05
   9.16919994      -1.06078769E-05
   9.18120003      -1.10701276E-05
   9.19320011      -1.17004720E-05
   9.20520020      -1.24967182E-05
   9.21720028      -1.34504153E-05
   9.22920036      -1.45468548E-05
   9.24120045      -1.57653285E-05
   9.25319958      -1.70796338E-05
   9.26519966      -1.84587952E-05
   9.27719975      -1.98679809E-05
   9.28919983      -2.12695668E-05
   9.30119991      -2.26243192E-05
   9.31320000      -2.38926150E-05
   9.32520008      -2.50357170E-05
   9.33720016      -2.60169836E-05
   9.34920025      -2.68030435E-05
   9.36120033      -2.73648457E-05
   9.37320042      -2.76785813E-05
   9.38519955      -2.77264153E-05
   9.39719963      -2.74970535E-05
   9.40919971      -2.69860611E-05
   9.42119980      -2.61959794E-05
   9.43319988      -2.51361998E-05
   9.44519997      -2.38226112E-05
