 -0.622799993         1.00000002E-24
 -0.610800028         1.00000002E-24
 -0.598800004         1.00000002E-24
 -0.586799979         1.00000002E-24
 -0.574800014         1.00000012E-24
 -0.562799990         1.00000022E-24
 -0.550800025         1.00000022E-24
 -0.538800001         1.00000022E-24
 -0.526799977         1.00000022E-24
 -0.514800012         1.00000022E-24
 -0.502799988         1.00000022E-24
 -0.490799993         1.00000022E-24
 -0.478799999         1.00000022E-24
 -0.466800004         1.00000022E-24
 -0.454800010         1.00000022E-24
 -0.442799985         1.00000022E-24
 -0.430799991         1.00000022E-24
 -0.418799996         1.00000041E-24
 -0.406800002         1.00000081E-24
 -0.394800007         1.00000170E-24
 -0.382800013         1.00000367E-24
 -0.370799989         1.00000732E-24
 -0.358799994         1.00001313E-24
 -0.346799999         1.00002063E-24
 -0.334800005         1.00002714E-24
 -0.322800010         1.00002605E-24
 -0.310799986         1.00000791E-24
 -0.298799992         9.99963633E-25
 -0.286799997         9.99896186E-25
 -0.274800003         9.99835739E-25
 -0.262800008         9.99847474E-25
 -0.250800014         1.00001373E-24
 -0.238800004         1.00037394E-24
 -0.226799995         1.00082832E-24
 -0.214800000         1.00107573E-24
 -0.202800006         1.00069757E-24
 -0.190799996         9.99491599E-25
 -0.178800002         9.97996904E-25
 -0.166800007         9.97841400E-25
 -0.154799998         1.00124257E-24
 -0.142800003         1.00906551E-24
 -0.130799994         1.01768806E-24
 -0.118799999         1.01661777E-24
 -0.106799997         9.90577372E-25
  -9.48000029E-02     9.29848789E-25
  -8.28000009E-02     8.48899334E-25
  -7.07999989E-02     8.04909146E-25
  -5.88000007E-02     8.97619876E-25
  -4.67999987E-02     1.22764250E-24
  -3.48000005E-02     1.80254599E-24
  -2.28000004E-02     2.41544200E-24
  -1.08000003E-02     2.57250657E-24
   1.20000006E-03     1.58593444E-24
   1.31999999E-02    -1.06834535E-24
   2.52000000E-02    -5.14511136E-24
   3.72000001E-02    -9.00929404E-24
   4.91999984E-02    -9.47102853E-24
   6.12000003E-02    -2.64221841E-24
   7.32000023E-02     1.38654042E-23
   8.51999968E-02     3.77809469E-23
   9.71999988E-02     5.94626753E-23
  0.109200001         6.19359688E-23
  0.121200003         2.60031573E-23
  0.133200005        -5.88105334E-23
  0.145199999        -1.80012568E-22
  0.157199994        -2.91304699E-22
  0.169200003        -3.14794073E-22
  0.181199998        -1.64817327E-22
  0.193200007         2.05334221E-22
  0.205200002         7.45747044E-22
  0.217199996         1.26835707E-21
  0.229200006         1.45769813E-21
  0.241200000         9.63610787E-22
  0.253199995        -4.22589531E-22
  0.265199989        -2.55419903E-21
  0.277200013        -4.77403413E-21
  0.289200008        -5.94236414E-21
  0.301200002        -4.74693629E-21
  0.313199997        -2.98999866E-22
  0.325199991         7.13405958E-21
  0.337199986         1.55698866E-20
  0.349200010         2.13223752E-20
  0.361200005         1.99024454E-20
  0.373199999         7.84078121E-21
  0.385199994        -1.49940736E-20
  0.397199988        -4.34912761E-20
  0.409200013        -6.69847241E-20
  0.421200007        -7.15188306E-20
  0.433200002        -4.48971180E-20
  0.445199996         1.65554464E-20
  0.457199991         1.01950805E-19
  0.469199985         1.83777379E-19
  0.481200010         2.22711478E-19
  0.493200004         1.80255774E-19
  0.505200028         3.68870919E-20
  0.517199993        -1.90242287E-19
  0.529200017        -4.38439174E-19
  0.541199982        -6.07396759E-19
  0.553200006        -5.87568878E-19
  0.565199971        -3.04865609E-19
  0.577199996         2.31547292E-19
  0.589200020         8.98344615E-19
  0.601199985         1.46453186E-18
  0.613200009         1.64740371E-18
  0.625199974         1.21305799E-18
  0.637199998         9.53299871E-20
  0.649200022        -1.51074747E-18
  0.661199987        -3.13018772E-18
  0.673200011        -4.09950008E-18
  0.685199976        -3.77028840E-18
  0.697200000        -1.78097363E-18
  0.709200025         1.69077537E-18
  0.721199989         5.80430568E-18
  0.733200014         9.15514238E-18
  0.745199978         1.01331585E-17
  0.757200003         7.48489018E-18
  0.769200027         9.27189644E-19
  0.781199992        -8.40919669E-18
  0.793200016        -1.79316081E-17
  0.805199981        -2.40776146E-17
  0.817200005        -2.33325102E-17
  0.829200029        -1.35566796E-17
  0.841199994         4.77145777E-18
  0.853200018         2.78771315E-17
  0.865199983         4.89920548E-17
  0.877200007         5.98244217E-17
  0.889199972         5.30219199E-17
  0.901199996         2.50557722E-17
  0.913200021        -2.13539372E-17
  0.925199986        -7.62395033E-17
  0.937200010        -1.23564002E-16
  0.949199975        -1.44798985E-16
  0.961199999        -1.24381812E-16
  0.973200023        -5.57689603E-17
  0.985199988         5.37386190E-17
  0.997200012         1.81307111E-16
   1.00919998         2.91416709E-16
   1.02119994         3.43553705E-16
   1.03320003         3.03598181E-16
   1.04519999         1.56302050E-16
   1.05719995        -8.47438398E-17
   1.06920004        -3.73367359E-16
   1.08120000        -6.36010623E-16
   1.09319997        -7.86511808E-16
   1.10520005        -7.48395908E-16
   1.11720002        -4.79884399E-16
   1.12919998         5.05022178E-18
   1.14119995         6.26590135E-16
   1.15320003         1.24532414E-15
   1.16520000         1.68674933E-15
   1.17719996         1.78122283E-15
   1.18920004         1.41173975E-15
   1.20120001         5.58245111E-16
   1.21319997        -6.74115406E-16
   1.22520006        -2.05364197E-15
   1.23720002        -3.25356896E-15
   1.24919999        -3.91507819E-15
   1.26119995        -3.73230753E-15
   1.27320004        -2.54248543E-15
   1.28520000        -3.99778958E-16
   1.29719996         2.38879491E-15
   1.30920005         5.28217030E-15
   1.32120001         7.58573654E-15
   1.33319998         8.58715564E-15
   1.34519994         7.72651257E-15
   1.35720003         4.76716707E-15
   1.36919999        -7.36973192E-17
   1.38119996        -6.07498001E-15
   1.39320004        -1.20715138E-14
   1.40520000        -1.66332673E-14
   1.41719997        -1.83466422E-14
   1.42920005        -1.61524270E-14
   1.44120002        -9.67203290E-15
   1.45319998         5.57575637E-16
   1.46519995         1.30138887E-14
   1.47720003         2.53329885E-14
   1.48920000         3.46762143E-14
   1.50119996         3.82779508E-14
   1.51320004         3.40843483E-14
   1.52520001         2.13564145E-14
   1.53719997         1.09717967E-15
   1.54920006        -2.38228965E-14
   1.56120002        -4.89239725E-14
   1.57319999        -6.87723533E-14
   1.58519995        -7.79661776E-14
   1.59720004        -7.23032745E-14
   1.60920000        -4.99192803E-14
   1.62119997        -1.21509070E-14
   1.63320005         3.61103630E-14
   1.64520001         8.67492655E-14
   1.65719998         1.29509779E-13
   1.66919994         1.53752499E-13
   1.68120003         1.50647913E-13
   1.69319999         1.15421561E-13
   1.70519996         4.91733322E-14
   1.71720004        -4.02152168E-14
   1.72920001        -1.38469463E-13
   1.74119997        -2.26777784E-13
   1.75320005        -2.84986797E-13
   1.76520002        -2.95675919E-13
   1.77719998        -2.48361824E-13
   1.78919995        -1.42915194E-13
   1.80120003         8.70796880E-15
   1.81320000         1.83084112E-13
   1.82519996         3.48521261E-13
   1.83720005         4.70519457E-13
   1.84920001         5.18611521E-13
   1.86119998         4.73269590E-13
   1.87320006         3.31369508E-13
   1.88520002         1.08838794E-13
   1.89719999        -1.60431171E-13
   1.90919995        -4.29606329E-13
   1.92120004        -6.47214595E-13
   1.93320000        -7.67285703E-13
   1.94519997        -7.59312806E-13
   1.95720005        -6.15840874E-13
   1.96920002        -3.55779046E-13
   1.98119998        -2.22832058E-14
   1.99319994         3.24841391E-13
   2.00519991         6.21019403E-13
   2.01719999         8.10740038E-13
   2.02920008         8.60292415E-13
   2.04119992         7.66252296E-13
   2.05320001         5.57229881E-13
   2.06520009         2.87757529E-13
   2.07719994         2.50471912E-14
   2.08920002        -1.68715045E-13
   2.10120010        -2.54333935E-13
   2.11319995        -2.28965366E-13
   2.12520003        -1.30546778E-13
   2.13720012        -3.07670725E-14
   2.14919996        -1.68190115E-14
   2.16120005        -1.65335302E-13
   2.17319989        -5.14647732E-13
   2.18519998        -1.04300585E-12
   2.19720006        -1.66003853E-12
   2.20919991        -2.21633866E-12
   2.22119999        -2.53193625E-12
   2.23320007        -2.43944600E-12
   2.24519992        -1.83304110E-12
   2.25720000        -7.11364995E-13
   2.26920009         7.97895983E-13
   2.28119993         2.44142705E-12
   2.29320002         3.87588009E-12
   2.30520010         4.73264960E-12
   2.31719995         4.70135953E-12
   2.32920003         3.61557876E-12
   2.34120011         1.52120048E-12
   2.35319996        -1.29134474E-12
   2.36520004        -4.30517861E-12
   2.37719989        -6.85155882E-12
   2.38919997        -8.23716529E-12
   2.40120006        -7.90994700E-12
   2.41319990        -5.64013593E-12
   2.42519999        -1.68612401E-12
   2.43720007         3.08886987E-12
   2.44919991         7.18369027E-12
   2.46120000         8.54075057E-12
   2.47320008         4.76633576E-12
   2.48519993        -6.49672373E-12
   2.49720001        -2.70449010E-11
   2.50920010        -5.74571571E-11
   2.52119994        -9.63451610E-11
   2.53320003        -1.39572312E-10
   2.54520011        -1.79523132E-10
   2.55719995        -2.04516348E-10
   2.56920004        -1.98453962E-10
   2.58119988        -1.40776280E-10
   2.59319997        -6.74299679E-12
   2.60520005         2.32020084E-10
   2.61719990         6.06889483E-10
   2.62919998         1.15185250E-09
   2.64120007         1.90386196E-09
   2.65319991         2.90463142E-09
   2.66520000         4.20476720E-09
   2.67720008         5.87127680E-09
   2.68919992         7.99965516E-09
   2.70120001         1.07317923E-08
   2.71320009         1.42809204E-08
   2.72519994         1.89647285E-08
   2.73720002         2.52474059E-08
   2.74920011         3.37911850E-08
   2.76119995         4.55171936E-08
   2.77320004         6.16749816E-08
   2.78520012         8.39192111E-08
   2.79719996         1.14390993E-07
   2.80920005         1.55800862E-07
   2.82119989         2.11508507E-07
   2.83319998         2.85594666E-07
   2.84520006         3.82918500E-07
   2.85719991         5.09153665E-07
   2.86919999         6.70796283E-07
   2.88120008         8.75137346E-07
   2.89319992         1.13019200E-06
   2.90520000         1.44458181E-06
   2.91720009         1.82736323E-06
   2.92919993         2.28780300E-06
   2.94120002         2.83509758E-06
   2.95320010         3.47804371E-06
   2.96519995         4.22466428E-06
   2.97720003         5.08180256E-06
   2.98920012         6.05469677E-06
   3.00119996         7.14655380E-06
   3.01320004         8.35813898E-06
   3.02519989         9.68741097E-06
   3.03719997         1.11292093E-05
   3.04920006         1.26750365E-05
   3.06119990         1.43129373E-05
   3.07319999         1.60274994E-05
   3.08520007         1.77999864E-05
   3.09719992         1.96086185E-05
   3.10920000         2.14289812E-05
   3.12120008         2.32345792E-05
   3.13319993         2.49975037E-05
   3.14520001         2.66891948E-05
   3.15720010         2.82812834E-05
   3.16919994         2.97464630E-05
   3.18120003         3.10593496E-05
   3.19320011         3.21973057E-05
   3.20519996         3.31412120E-05
   3.21720004         3.38760765E-05
   3.22919989         3.43915126E-05
   3.24119997         3.46820598E-05
   3.25320005         3.47473033E-05
   3.26519990         3.45917979E-05
   3.27719998         3.42248095E-05
   3.28920007         3.36598532E-05
   3.30119991         3.29141476E-05
   3.31320000         3.20078507E-05
   3.32520008         3.09632997E-05
   3.33719993         2.98041614E-05
   3.34920001         2.85546084E-05
   3.36120009         2.72385132E-05
   3.37319994         2.58787404E-05
   3.38520002         2.44965468E-05
   3.39720011         2.31111080E-05
   3.40919995         2.17391789E-05
   3.42120004         2.03949330E-05
   3.43319988         1.90899136E-05
   3.44519997         1.78331211E-05
   3.45720005         1.66312257E-05
   3.46919990         1.54888330E-05
   3.48119998         1.44088162E-05
   3.49320006         1.33926651E-05
   3.50519991         1.24408216E-05
   3.51719999         1.15529920E-05
   3.52920008         1.07283913E-05
   3.54119992         9.96593553E-06
   3.55320001         9.26435041E-06
   3.56520009         8.62221259E-06
   3.57719994         8.03792955E-06
   3.58920002         7.50966910E-06
   3.60120010         7.03524756E-06
   3.61319995         6.61201557E-06
   3.62520003         6.23673805E-06
   3.63720012         5.90550417E-06
   3.64919996         5.61367324E-06
   3.66120005         5.35586923E-06
   3.67319989         5.12603492E-06
   3.68519998         4.91754008E-06
   3.69720006         4.72334295E-06
   3.70919991         4.53619850E-06
   3.72119999         4.34889535E-06
   3.73320007         4.15451041E-06
   3.74519992         3.94666131E-06
   3.75720000         3.71974625E-06
   3.76920009         3.46914112E-06
   3.78119993         3.19136007E-06
   3.79320002         2.88415413E-06
   3.80520010         2.54655083E-06
   3.81719995         2.17883189E-06
   3.82920003         1.78245250E-06
   3.84120011         1.35991183E-06
   3.85319996         9.14584177E-07
   3.86520004         4.50524112E-07
   3.87719989        -2.77409011E-08
   3.88919997        -5.15414399E-07
   3.90120006        -1.00762202E-06
   3.91319990        -1.49957873E-06
   3.92519999        -1.98672433E-06
   3.93720007        -2.46482614E-06
   3.94919991        -2.93004837E-06
   3.96120000        -3.37898996E-06
   3.97320008        -3.80869915E-06
   3.98519993        -4.21666709E-06
   3.99720001        -4.60081355E-06
   4.00920010        -4.95946870E-06
   4.02120018        -5.29135559E-06
   4.03319979        -5.59557839E-06
   4.04519987        -5.87162094E-06
   4.05719995        -6.11935275E-06
   4.06920004        -6.33904301E-06
   4.08120012        -6.53137431E-06
   4.09320021        -6.69746578E-06
   4.10519981        -6.83888447E-06
   4.11719990        -6.95765220E-06
   4.12919998        -7.05624143E-06
   4.14120007        -7.13755117E-06
   4.15320015        -7.20486878E-06
   4.16520023        -7.26180315E-06
   4.17719984        -7.31219870E-06
   4.18919992        -7.36002266E-06
   4.20120001        -7.40922314E-06
   4.21320009        -7.46357136E-06
   4.22520018        -7.52647384E-06
   4.23719978        -7.60077137E-06
   4.24919987        -7.68852442E-06
   4.26119995        -7.79078982E-06
   4.27320004        -7.90740705E-06
   4.28520012        -8.03679086E-06
   4.29720020        -8.17575165E-06
   4.30919981        -8.31935176E-06
   4.32119989        -8.46082185E-06
   4.33319998        -8.59153624E-06
   4.34520006        -8.70108215E-06
   4.35720015        -8.77740240E-06
   4.36920023        -8.80705375E-06
   4.38119984        -8.77556522E-06
   4.39319992        -8.66788287E-06
   4.40520000        -8.46891271E-06
   4.41720009        -8.16413012E-06
   4.42920017        -7.74023647E-06
   4.44119978        -7.18582305E-06
   4.45319986        -6.49203139E-06
   4.46519995        -5.65315395E-06
   4.47720003        -4.66715255E-06
   4.48920012        -3.53605901E-06
   4.50120020        -2.26623683E-06
   4.51319981        -8.68477969E-07
   4.52519989         6.42072450E-07
   4.53719997         2.24616588E-06
   4.54920006         3.92087350E-06
   4.56120014         5.64016182E-06
   4.57320023         7.37560595E-06
   4.58519983         9.09720802E-06
   4.59719992         1.07742926E-05
   4.60920000         1.23764421E-05
   4.62120008         1.38744335E-05
   4.63320017         1.52411485E-05
   4.64519978         1.64524008E-05
   4.65719986         1.74876841E-05
   4.66919994         1.83307620E-05
   4.68120003         1.89701423E-05
   4.69320011         1.93993365E-05
   4.70520020         1.96169694E-05
   4.71719980         1.96266828E-05
   4.72919989         1.94368604E-05
   4.74119997         1.90601659E-05
   4.75320005         1.85129174E-05
   4.76520014         1.78143418E-05
   4.77720022         1.69856885E-05
   4.78919983         1.60492946E-05
   4.80119991         1.50275901E-05
   4.81320000         1.39421281E-05
   4.82520008         1.28126576E-05
   4.83720016         1.16562869E-05
   4.84919977         1.04867831E-05
   4.86119986         9.31404247E-06
   4.87319994         8.14375016E-06
   4.88520002         6.97725091E-06
   4.89720011         5.81164431E-06
   4.90920019         4.64008508E-06
   4.92119980         3.45228432E-06
   4.93319988         2.23517918E-06
   4.94519997         9.73736633E-07
   4.95720005        -3.48153549E-07
   4.96920013        -1.74673835E-06
   4.98120022        -3.23746281E-06
   4.99319983        -4.83407439E-06
   5.00519991        -6.54781297E-06
   5.01719999        -8.38671622E-06
   5.02920008        -1.03550556E-05
   5.04120016        -1.24529288E-05
   5.05319977        -1.46759940E-05
   5.06519985        -1.70153453E-05
   5.07719994        -1.94575150E-05
   5.08920002        -2.19845697E-05
   5.10120010        -2.45742795E-05
   5.11320019        -2.72003454E-05
   5.12519979        -2.98326177E-05
   5.13719988        -3.24373468E-05
   5.14919996        -3.49774054E-05
   5.16120005        -3.74125084E-05
   5.17320013        -3.96994001E-05
   5.18520021        -4.17920855E-05
   5.19719982        -4.36420814E-05
   5.20919991        -4.51987326E-05
   5.22119999        -4.64096338E-05
   5.23320007        -4.72211868E-05
   5.24520016        -4.75793422E-05
   5.25719976        -4.74305234E-05
   5.26919985        -4.67227364E-05
   5.28119993        -4.54069450E-05
   5.29320002        -4.34385584E-05
   5.30520010        -4.07791413E-05
   5.31720018        -3.73981711E-05
   5.32919979        -3.32748859E-05
   5.34119987        -2.84000344E-05
   5.35319996        -2.27775436E-05
   5.36520004        -1.64259309E-05
   5.37720013        -9.37942514E-06
   5.38920021        -1.68868075E-06
   5.40119982         6.57898499E-06
   5.41319990         1.53398723E-05
   5.42519999         2.44947387E-05
   5.43720007         3.39302205E-05
   5.44920015         4.35208058E-05
   5.46120024         5.31312908E-05
   5.47319984         6.26197289E-05
   5.48519993         7.18406736E-05
   5.49720001         8.06487078E-05
   5.50920010         8.89020012E-05
   5.52120018         9.64659921E-05
   5.53319979         1.03216786E-04
   5.54519987         1.09044326E-04
   5.55719995         1.13855189E-04
   5.56920004         1.17574848E-04
   5.58120012         1.20149431E-04
   5.59320021         1.21546786E-04
   5.60519981         1.21756952E-04
   5.61719990         1.20792014E-04
   5.62919998         1.18685261E-04
   5.64120007         1.15489886E-04
   5.65320015         1.11277128E-04
   5.66520023         1.06134103E-04
   5.67719984         1.00161218E-04
   5.68919992         9.34694981E-05
   5.70120001         8.61777735E-05
   5.71320009         7.84098884E-05
   5.72520018         7.02920079E-05
   5.73719978         6.19500570E-05
   5.74919987         5.35074068E-05
   5.76119995         4.50828265E-05
   5.77320004         3.67887078E-05
   5.78520012         2.87295807E-05
   5.79720020         2.10009130E-05
   5.80919981         1.36881945E-05
   5.82119989         6.86624753E-06
   5.83319998         5.98762256E-07
   5.84520006        -5.06198467E-06
   5.85720015        -1.00752541E-05
   5.86920023        -1.44118412E-05
   5.88119984        -1.80539500E-05
   5.89319992        -2.09949758E-05
   5.90520000        -2.32391849E-05
   5.91720009        -2.48012966E-05
   5.92920017        -2.57059583E-05
   5.94119978        -2.59871085E-05
   5.95319986        -2.56872063E-05
   5.96519995        -2.48563319E-05
   5.97720003        -2.35511434E-05
   5.98920012        -2.18336936E-05
   6.00120020        -1.97701265E-05
   6.01319981        -1.74292472E-05
   6.02519989        -1.48810377E-05
   6.03719997        -1.21950952E-05
   6.04920006        -9.43909799E-06
   6.06120014        -6.67730956E-06
   6.07320023        -3.96918767E-06
   6.08519983        -1.36815129E-06
   6.09719992         1.07944629E-06
   6.10920000         3.33509570E-06
   6.12120008         5.36862763E-06
   6.13320017         7.15840724E-06
   6.14519978         8.69121504E-06
   6.15719986         9.96184372E-06
   6.16919994         1.09724078E-05
   6.18120003         1.17314366E-05
   6.19320011         1.22527808E-05
   6.20520020         1.25544075E-05
   6.21719980         1.26571513E-05
   6.22919989         1.25834949E-05
   6.24119997         1.23564296E-05
   6.25320005         1.19984816E-05
   6.26520014         1.15309285E-05
   6.27720022         1.09732518E-05
   6.28919983         1.03428310E-05
   6.30119991         9.65489016E-06
   6.31320000         8.92265871E-06
   6.32520008         8.15772273E-06
   6.33720016         7.37050595E-06
   6.34919977         6.57082774E-06
   6.36119986         5.76847469E-06
   6.37319994         4.97370911E-06
   6.38520002         4.19768185E-06
   6.39720011         3.45268199E-06
   6.40920019         2.75220464E-06
   6.42119980         2.11081579E-06
   6.43319988         1.54382371E-06
   6.44519997         1.06677385E-06
   6.45720005         6.94802679E-07
   6.46920013         4.41899516E-07
   6.48120022         3.20133324E-07
   6.49319983         3.38903106E-07
   6.50519991         5.04269678E-07
   6.51719999         8.18425633E-07
   6.52920008         1.27934197E-06
   6.54120016         1.88063018E-06
   6.55319977         2.61163314E-06
   6.56519985         3.45774652E-06
   6.57719994         4.40095937E-06
   6.58920002         5.42058478E-06
   6.60120010         6.49414415E-06
   6.61320019         7.59835120E-06
   6.62519979         8.71014981E-06
   6.63719988         9.80774166E-06
   6.64919996         1.08715622E-05
   6.66120005         1.18851394E-05
   6.67320013         1.28358097E-05
   6.68520021         1.37152483E-05
   6.69719982         1.45198001E-05
   6.70919991         1.52505909E-05
   6.72119999         1.59134161E-05
   6.73320007         1.65184319E-05
   6.74520016         1.70796429E-05
   6.75719976         1.76142275E-05
   6.76919985         1.81417308E-05
   6.78119993         1.86831512E-05
   6.79320002         1.92599764E-05
   6.80520010         1.98932012E-05
   6.81720018         2.06023524E-05
   6.82919979         2.14046013E-05
   6.84119987         2.23139541E-05
   6.85319996         2.33405808E-05
   6.86520004         2.44902949E-05
   6.87720013         2.57642023E-05
   6.88920021         2.71585268E-05
   6.90119982         2.86646282E-05
   6.91319990         3.02691933E-05
   6.92519999         3.19545979E-05
   6.93720007         3.36994053E-05
   6.94920015         3.54789918E-05
   6.96120024         3.72663053E-05
   6.97319984         3.90326495E-05
   6.98519993         4.07485350E-05
   6.99720001         4.23845777E-05
   7.00920010         4.39123469E-05
   7.02120018         4.53051907E-05
   7.03319979         4.65390694E-05
   7.04519987         4.75932247E-05
   7.05719995         4.84508382E-05
   7.06920004         4.90995371E-05
   7.08120012         4.95318018E-05
   7.09320021         4.97452202E-05
   7.10519981         4.97426227E-05
   7.11719990         4.95320346E-05
   7.12919998         4.91264836E-05
   7.14120007         4.85436431E-05
   7.15320015         4.78053262E-05
   7.16520023         4.69368206E-05
   7.17719984         4.59660805E-05
   7.18919992         4.49228319E-05
   7.20120001         4.38375610E-05
   7.21320009         4.27404848E-05
   7.22520018         4.16604889E-05
   7.23719978         4.06241306E-05
   7.24919987         3.96546748E-05
   7.26119995         3.87713008E-05
   7.27320004         3.79884623E-05
   7.28520012         3.73154653E-05
   7.29720020         3.67562243E-05
   7.30919981         3.63093422E-05
   7.32119989         3.59683763E-05
   7.33319998         3.57223835E-05
   7.34520006         3.55566517E-05
   7.35720015         3.54535914E-05
   7.36920023         3.53937539E-05
   7.38119984         3.53569412E-05
   7.39319992         3.53232499E-05
   7.40520000         3.52741117E-05
   7.41720009         3.51931776E-05
   7.42920017         3.50670889E-05
   7.44119978         3.48860012E-05
   7.45319986         3.46439410E-05
   7.46519995         3.43389329E-05
   7.47720003         3.39729340E-05
   7.48920012         3.35515761E-05
   7.50120020         3.30837538E-05
   7.51319981         3.25811234E-05
   7.52519989         3.20575164E-05
   7.53719997         3.15283323E-05
   7.54920006         3.10099131E-05
   7.56120014         3.05189897E-05
   7.57320023         3.00721349E-05
   7.58519983         2.96853068E-05
   7.59719992         2.93734302E-05
   7.60920000         2.91500364E-05
   7.62120008         2.90269345E-05
   7.63320017         2.90139033E-05
   7.64519978         2.91183860E-05
   7.65719986         2.93452140E-05
   7.66919994         2.96962953E-05
   7.68120003         3.01703567E-05
   7.69320011         3.07627161E-05
   7.70520020         3.14651152E-05
   7.71719980         3.22656560E-05
   7.72919989         3.31488918E-05
   7.74119997         3.40960542E-05
   7.75320005         3.50854934E-05
   7.76520014         3.60933118E-05
   7.77720022         3.70941925E-05
   7.78919983         3.80623642E-05
   7.80119991         3.89727502E-05
   7.81320000         3.98021111E-05
   7.82520008         4.05302417E-05
   7.83720016         4.11410329E-05
   7.84919977         4.16233961E-05
   7.86119986         4.19719254E-05
   7.87319994         4.21872937E-05
   7.88520002         4.22762387E-05
   7.89720011         4.22512603E-05
   7.90920019         4.21298791E-05
   7.92119980         4.19336211E-05
   7.93319988         4.16866787E-05
   7.94519997         4.14144379E-05
   7.95720005         4.11418550E-05
   7.96920013         4.08918568E-05
   7.98120022         4.06838953E-05
   7.99319983         4.05326828E-05
   8.00520039         4.04472667E-05
   8.01720047         4.04304628E-05
   8.02919960         4.04787497E-05
   8.04119968         4.05825522E-05
   8.05319977         4.07269654E-05
   8.06519985         4.08928281E-05
   8.07719994         4.10581270E-05
   8.08920002         4.11995316E-05
   8.10120010         4.12940535E-05
   8.11320019         4.13206799E-05
   8.12520027         4.12618538E-05
   8.13720036         4.11046713E-05
   8.14920044         4.08418236E-05
   8.16119957         4.04720959E-05
   8.17319965         4.00004392E-05
   8.18519974         3.94376730E-05
   8.19719982         3.87997716E-05
   8.20919991         3.81067985E-05
   8.22119999         3.73816438E-05
   8.23320007         3.66485656E-05
   8.24520016         3.59316873E-05
   8.25720024         3.52535899E-05
   8.26920033         3.46339948E-05
   8.28120041         3.40887527E-05
   8.29319954         3.36290650E-05
   8.30519962         3.32610689E-05
   8.31719971         3.29857685E-05
   8.32919979         3.27992821E-05
   8.34119987         3.26933914E-05
   8.35319996         3.26563204E-05
   8.36520004         3.26736845E-05
   8.37720013         3.27295202E-05
   8.38920021         3.28073329E-05
   8.40120029         3.28910755E-05
   8.41320038         3.29660070E-05
   8.42520046         3.30193507E-05
   8.43719959         3.30407966E-05
   8.44919968         3.30227413E-05
   8.46119976         3.29603499E-05
   8.47319984         3.28514216E-05
   8.48519993         3.26961053E-05
   8.49720001         3.24965222E-05
   8.50920010         3.22563028E-05
   8.52120018         3.19801584E-05
   8.53320026         3.16733749E-05
   8.54520035         3.13414785E-05
   8.55720043         3.09898678E-05
   8.56919956         3.06235816E-05
   8.58119965         3.02471090E-05
   8.59319973         2.98642790E-05
   8.60519981         2.94782021E-05
   8.61719990         2.90912376E-05
   8.62919998         2.87049934E-05
   8.64120007         2.83203353E-05
   8.65320015         2.79374071E-05
   8.66520023         2.75556722E-05
   8.67720032         2.71739646E-05
   8.68920040         2.67905725E-05
   8.70119953         2.64033788E-05
   8.71319962         2.60100387E-05
   8.72519970         2.56082385E-05
   8.73719978         2.51960100E-05
   8.74919987         2.47721036E-05
   8.76119995         2.43363975E-05
   8.77320004         2.38903231E-05
   8.78520012         2.34372619E-05
   8.79720020         2.29828929E-05
   8.80920029         2.25353997E-05
   8.82120037         2.21055616E-05
   8.83320045         2.17066263E-05
   8.84519958         2.13540006E-05
   8.85719967         2.10646995E-05
   8.86919975         2.08565943E-05
   8.88119984         2.07474695E-05
   8.89319992         2.07539597E-05
   8.90520000         2.08903693E-05
   8.91720009         2.11675379E-05
   8.92920017         2.15917298E-05
   8.94120026         2.21637129E-05
   8.95320034         2.28780682E-05
   8.96520042         2.37227741E-05
   8.97719955         2.46791642E-05
   8.98919964         2.57222473E-05
   9.00119972         2.68214098E-05
   9.01319981         2.79414689E-05
   9.02519989         2.90440585E-05
   9.03719997         3.00892370E-05
   9.04920006         3.10372743E-05
   9.06120014         3.18504935E-05
   9.07320023         3.24950634E-05
   9.08520031         3.29426439E-05