 -0.622799993       0.00000000    
 -0.610800028       0.00000000    
 -0.598800004       0.00000000    
 -0.586799979      -6.07965187E-19
 -0.574800014      -7.21624260E-18
 -0.562799990      -3.94816119E-17
 -0.550800025      -1.40333891E-16
 -0.538800001      -3.68944603E-16
 -0.526799977      -7.60508108E-16
 -0.514800012      -1.25375424E-15
 -0.502799988      -1.62668464E-15
 -0.490799993      -1.52448895E-15
 -0.478799999      -6.73649009E-16
 -0.466800004       6.87543525E-16
 -0.454800010       1.28154740E-15
 -0.442799985      -1.52493247E-15
 -0.430799991      -1.14047066E-14
 -0.418799996      -3.18002901E-14
 -0.406800002      -6.37813980E-14
 -0.394800007      -1.03750735E-13
 -0.382800013      -1.42339604E-13
 -0.370799989      -1.66034992E-13
 -0.358799994      -1.62487035E-13
 -0.346799999      -1.28956538E-13
 -0.334800005      -8.13338586E-14
 -0.322800010      -5.94360173E-14
 -0.310799986      -1.23943838E-13
 -0.298799992      -3.42209849E-13
 -0.286799997      -7.64298401E-13
 -0.274800003      -1.39592851E-12
 -0.262800008      -2.17937951E-12
 -0.250800014      -2.99442719E-12
 -0.238800004      -3.68724972E-12
 -0.226799995      -4.12599989E-12
 -0.214800000      -4.26976206E-12
 -0.202800006      -4.22723488E-12
 -0.190799996      -4.27773485E-12
 -0.178800002      -4.83357365E-12
 -0.166800007      -6.33981929E-12
 -0.154799998      -9.13086013E-12
 -0.142800003      -1.32853051E-11
 -0.130799994      -1.85325002E-11
 -0.118799999      -2.42581493E-11
 -0.106799997      -2.96314709E-11
  -9.48000029E-02  -3.38372073E-11
  -8.28000009E-02  -3.63543327E-11
  -7.07999989E-02  -3.71945356E-11
  -5.88000007E-02  -3.70099541E-11
  -4.67999987E-02  -3.70076712E-11
  -3.48000005E-02  -3.86631387E-11
  -2.28000004E-02  -4.32914295E-11
  -1.08000003E-02  -5.15926538E-11
   1.20000006E-03  -6.33148950E-11
   1.31999999E-02  -7.71611594E-11
   2.52000000E-02  -9.10055920E-11
   3.72000001E-02  -1.02393850E-10
   4.91999984E-02  -1.09208510E-10
   6.12000003E-02  -1.10313647E-10
   7.32000023E-02  -1.05978192E-10
   8.51999968E-02  -9.79248141E-11
   9.71999988E-02  -8.89524218E-11
  0.109200001      -8.22072480E-11
  0.121200003      -8.02940908E-11
  0.133200005      -8.44849607E-11
  0.145199999      -9.42747477E-11
  0.157199994      -1.07445747E-10
  0.169200003      -1.20657803E-10
  0.181199998      -1.30418482E-10
  0.193200007      -1.34158198E-10
  0.205200002      -1.31082104E-10
  0.217199996      -1.22516663E-10
  0.229200006      -1.11606870E-10
  0.241200000      -1.02413723E-10
  0.253199995      -9.86527943E-11
  0.265199989      -1.02443304E-10
  0.277200013      -1.13458694E-10
  0.289200008      -1.28770591E-10
  0.301200002      -1.43483544E-10
  0.313199997      -1.52025226E-10
  0.325199991      -1.49756679E-10
  0.337199986      -1.34464814E-10
  0.349200010      -1.07327050E-10
  0.361200005      -7.30887781E-11
  0.373199999      -3.94184720E-11
  0.385199994      -1.56297007E-11
  0.397199988      -1.11092325E-11
  0.409200013      -3.38192564E-11
  0.421200007      -8.91434496E-11
  0.433200002      -1.79161533E-10
  0.445199996      -3.02236208E-10
  0.457199991      -4.52653193E-10
  0.469199985      -6.20027751E-10
  0.481200010      -7.88284937E-10
  0.493200004      -9.34205380E-10
  0.505200028      -1.02573894E-09
  0.517199993      -1.02044828E-09
  0.529200017      -8.64497696E-10
  0.541199982      -4.92550667E-10
  0.553200006       1.71216735E-10
  0.565199971       1.21097232E-09
  0.577199996       2.71610245E-09
  0.589200020       4.77742912E-09
  0.601199985       7.48317586E-09
  0.613200009       1.09152438E-08
  0.625199974       1.51465720E-08
  0.637199998       2.02406056E-08
  0.649200022       2.62543765E-08
  0.661199987       3.32470655E-08
  0.673200011       4.12963850E-08
  0.685199976       5.05253048E-08
  0.697200000       6.11417619E-08
  0.709200025       7.34937018E-08
  0.721199989       8.81413555E-08
  0.733200014       1.05948224E-07
  0.745199978       1.28191104E-07
  0.757200003       1.56688941E-07
  0.769200027       1.93949276E-07
  0.781199992       2.43329424E-07
  0.793200016       3.09208474E-07
  0.805199981       3.97163717E-07
  0.817200005       5.14144006E-07
  0.829200029       6.68628786E-07
  0.841199994       8.70761937E-07
  0.853200018       1.13244539E-06
  0.865199983       1.46738012E-06
  0.877200007       1.89103878E-06
  0.889199972       2.42056012E-06
  0.901199996       3.07455366E-06
  0.913200021       3.87280943E-06
  0.925199986       4.83591020E-06
  0.937200010       5.98474844E-06
  0.949199975       7.33995466E-06
  0.961199999       8.92125809E-06
  0.973200023       1.07467777E-05
  0.985199988       1.28322945E-05
  0.997200012       1.51904997E-05
   1.00919998       1.78302907E-05
   1.02119994       2.07561006E-05
   1.03320003       2.39673518E-05
   1.04519999       2.74580052E-05
   1.05719995       3.12162992E-05
   1.06920004       3.52246534E-05
   1.08120000       3.94597992E-05
   1.09319997       4.38931056E-05
   1.10520005       4.84911470E-05
   1.11720002       5.32164886E-05
   1.12919998       5.80286651E-05
   1.14119995       6.28853522E-05
   1.15320003       6.77436765E-05
   1.16520000       7.25616628E-05
   1.17719996       7.72996718E-05
   1.18920004       8.19218985E-05
   1.20120001       8.63977621E-05
   1.21319997       9.07031572E-05
   1.22520006       9.48214656E-05
   1.23720002       9.87443054E-05
   1.24919999       1.02471917E-04
   1.26119995       1.06013118E-04
   1.27320004       1.09384877E-04
   1.28520000       1.12611378E-04
   1.29719996       1.15722716E-04
   1.30920005       1.18753196E-04
   1.32120001       1.21739271E-04
   1.33319998       1.24717350E-04
   1.34519994       1.27721432E-04
   1.35720003       1.30780900E-04
   1.36919999       1.33918380E-04
   1.38119996       1.37148076E-04
   1.39320004       1.40474454E-04
   1.40520000       1.43891681E-04
   1.41719997       1.47383558E-04
   1.42920005       1.50924316E-04
   1.44120002       1.54480062E-04
   1.45319998       1.58010866E-04
   1.46519995       1.61473334E-04
   1.47720003       1.64823636E-04
   1.48920000       1.68020633E-04
   1.50119996       1.71028980E-04
   1.51320004       1.73821914E-04
   1.52520001       1.76383604E-04
   1.53719997       1.78710732E-04
   1.54920006       1.80813280E-04
   1.56120002       1.82714357E-04
   1.57319999       1.84449076E-04
   1.58519995       1.86062491E-04
   1.59720004       1.87606667E-04
   1.60920000       1.89137223E-04
   1.62119997       1.90709368E-04
   1.63320005       1.92373744E-04
   1.64520001       1.94172506E-04
   1.65719998       1.96135734E-04
   1.66919994       1.98278445E-04
   1.68120003       2.00598573E-04
   1.69319999       2.03075950E-04
   1.70519996       2.05672288E-04
   1.71720004       2.08332407E-04
   1.72920001       2.10986444E-04
   1.74119997       2.13552965E-04
   1.75320005       2.15942840E-04
   1.76520002       2.18063535E-04
   1.77719998       2.19823618E-04
   1.78919995       2.21137176E-04
   1.80120003       2.21927912E-04
   1.81320000       2.22132556E-04
   1.82519996       2.21703624E-04
   1.83720005       2.20611109E-04
   1.84920001       2.18843299E-04
   1.86119998       2.16406523E-04
   1.87320006       2.13324020E-04
   1.88520002       2.09634018E-04
   1.89719999       2.05387114E-04
   1.90919995       2.00643306E-04
   1.92120004       1.95468849E-04
   1.93320000       1.89932980E-04
   1.94519997       1.84105054E-04
   1.95720005       1.78052054E-04
   1.96920002       1.71836480E-04
   1.98119998       1.65515070E-04
   1.99319994       1.59138057E-04
   2.00519991       1.52749082E-04
   2.01719999       1.46385704E-04
   2.02920008       1.40080345E-04
   2.04119992       1.33861584E-04
   2.05320001       1.27755557E-04
   2.06520009       1.21787460E-04
   2.07719994       1.15982752E-04
   2.08920002       1.10368172E-04
   2.10120010       1.04972300E-04
   2.11319995       9.98256510E-05
   2.12520003       9.49603054E-05
   2.13720012       9.04090120E-05
   2.14919996       8.62038796E-05
   2.16120005       8.23748123E-05
   2.17319989       7.89476398E-05
   2.18519998       7.59422983E-05
   2.19720006       7.33710331E-05
   2.20919991       7.12369074E-05
   2.22119999       6.95326235E-05
   2.23320007       6.82399041E-05
   2.24519992       6.73294053E-05
   2.25720000       6.67612476E-05
   2.26920009       6.64861655E-05
   2.28119993       6.64472318E-05
   2.29320002       6.65820480E-05
   2.30520010       6.68253560E-05
   2.31719995       6.71117959E-05
   2.32920003       6.73787945E-05
   2.34120011       6.75692863E-05
   2.35319996       6.76341951E-05
   2.36520004       6.75344418E-05
   2.37719989       6.72424503E-05
   2.38919997       6.67429922E-05
   2.40120006       6.60333317E-05
   2.41319990       6.51227238E-05
   2.42519999       6.40312865E-05
   2.43720007       6.27882473E-05
   2.44919991       6.14298260E-05
   2.46120000       5.99967825E-05
   2.47320008       5.85318448E-05
   2.48519993       5.70771226E-05
   2.49720001       5.56717641E-05
   2.50920010       5.43498827E-05
   2.52119994       5.31389524E-05
   2.53320003       5.20587091E-05
   2.54520011       5.11206272E-05
   2.55719995       5.03279698E-05
   2.56920004       4.96763751E-05
   2.58119988       4.91548926E-05
   2.59319997       4.87474317E-05
   2.60520005       4.84344127E-05
   2.61719990       4.81945899E-05
   2.62919998       4.80068084E-05
   2.64120007       4.78516886E-05
   2.65319991       4.77130343E-05
   2.66520000       4.75789020E-05
   2.67720008       4.74423359E-05
   2.68919992       4.73015753E-05
   2.70120001       4.71599596E-05
   2.71320009       4.70253326E-05
   2.72519994       4.69091392E-05
   2.73720002       4.68252547E-05
   2.74920011       4.67885875E-05
   2.76119995       4.68136604E-05
   2.77320004       4.69131592E-05
   2.78520012       4.70966297E-05
   2.79719996       4.73694308E-05
   2.80920005       4.77319663E-05
   2.82119989       4.81792813E-05
   2.83319998       4.87011166E-05
   2.84520006       4.92823092E-05
   2.85719991       4.99036578E-05
   2.86919999       5.05430908E-05
   2.88120008       5.11771432E-05
   2.89319992       5.17825974E-05
   2.90520000       5.23381859E-05
   2.91720009       5.28262790E-05
   2.92919993       5.32343693E-05
   2.94120002       5.35563231E-05
   2.95320010       5.37932392E-05
   2.96519995       5.39538851E-05
   2.97720003       5.40546644E-05
   2.98920012       5.41190675E-05
   3.00119996       5.41766894E-05
   3.01320004       5.42617854E-05
   3.02519989       5.44115028E-05
   3.03719997       5.46638294E-05
   3.04920006       5.50554323E-05
   3.06119990       5.56194391E-05
   3.07319999       5.63833637E-05
   3.08520007       5.73672405E-05
   3.09719992       5.85821144E-05
   3.10920000       6.00289313E-05
   3.12120008       6.16979814E-05
   3.13319993       6.35688048E-05
   3.14520001       6.56107077E-05
   3.15720010       6.77837088E-05
   3.16919994       7.00400124E-05
   3.18120003       7.23258127E-05
   3.19320011       7.45834841E-05
   3.20519996       7.67538149E-05
   3.21720004       7.87785248E-05
   3.22919989       8.06026001E-05
   3.24119997       8.21766298E-05
   3.25320005       8.34588791E-05
   3.26519990       8.44170863E-05
   3.27719998       8.50298966E-05
   3.28920007       8.52878438E-05
   3.30119991       8.51939258E-05
   3.31320000       8.47636256E-05
   3.32520008       8.40244684E-05
   3.33719993       8.30151330E-05
   3.34920001       8.17840919E-05
   3.36120009       8.03878502E-05
   3.37319994       7.88889520E-05
   3.38520002       7.73536740E-05
   3.39720011       7.58496099E-05
   3.40919995       7.44432255E-05
   3.42120004       7.31974214E-05
   3.43319988       7.21693505E-05
   3.44519997       7.14083217E-05
   3.45720005       7.09541418E-05
   3.46919990       7.08358202E-05
   3.48119998       7.10706445E-05
   3.49320006       7.16638606E-05
   3.50519991       7.26086728E-05
   3.51719999       7.38868621E-05
   3.52920008       7.54697394E-05
   3.54119992       7.73194988E-05
   3.55320001       7.93908985E-05
   3.56520009       8.16331449E-05
   3.57719994       8.39918648E-05
   3.58920002       8.64111207E-05
   3.60120010       8.88353534E-05
   3.61319995       9.12112082E-05
   3.62520003       9.34891068E-05
   3.63720012       9.56245494E-05
   3.64919996       9.75791481E-05
   3.66120005       9.93213253E-05
   3.67319989       1.00826685E-04
   3.68519998       1.02078113E-04
   3.69720006       1.03065628E-04
   3.70919991       1.03785933E-04
   3.72119999       1.04241881E-04
   3.73320007       1.04441773E-04
   3.74519992       1.04398590E-04
   3.75720000       1.04129213E-04
   3.76920009       1.03653605E-04
   3.78119993       1.02994090E-04
   3.79320002       1.02174607E-04
   3.80520010       1.01220103E-04
   3.81719995       1.00155907E-04
   3.82920003       9.90072076E-05
   3.84120011       9.77985765E-05
   3.85319996       9.65534637E-05
   3.86520004       9.52937698E-05
   3.87719989       9.40394457E-05
   3.88919997       9.28080553E-05
   3.90120006       9.16144563E-05
   3.91319990       9.04704939E-05
   3.92519999       8.93848410E-05
   3.93720007       8.83628527E-05
   3.94919991       8.74067482E-05
   3.96120000       8.65158290E-05
   3.97320008       8.56870029E-05
   3.98519993       8.49154385E-05
   3.99720001       8.41954752E-05
   4.00920010       8.35215760E-05
   4.02120018       8.28894699E-05
   4.03319979       8.22971560E-05
   4.04519987       8.17458858E-05
   4.05719995       8.12409489E-05
   4.06920004       8.07920733E-05
   4.08120012       8.04135416E-05
   4.09320021       8.01238202E-05
   4.10519981       7.99447371E-05
   4.11719990       7.99002009E-05
   4.12919998       8.00144990E-05
   4.14120007       8.03102666E-05
   4.15320015       8.08063123E-05
   4.16520023       8.15153107E-05
   4.17719984       8.24417002E-05
   4.18919992       8.35798419E-05
   4.20120001       8.49126736E-05
   4.21320009       8.64110043E-05
   4.22520018       8.80335574E-05
   4.23719978       8.97277932E-05
   4.24919987       9.14315897E-05
   4.26119995       9.30756141E-05
   4.27320004       9.45864085E-05
   4.28520012       9.58898963E-05
   4.29720020       9.69151806E-05
   4.30919981       9.75983494E-05
   4.32119989       9.78860990E-05
   4.33319998       9.77388918E-05
   4.34520006       9.71334666E-05
   4.35720015       9.60645484E-05
   4.36920023       9.45456122E-05
   4.38119984       9.26086359E-05
   4.39319992       9.03029359E-05
   4.40520000       8.76930499E-05
   4.41720009       8.48558630E-05
   4.42920017       8.18771805E-05
   4.44119978       7.88478792E-05
   4.45319986       7.58599926E-05
   4.46519995       7.30028114E-05
   4.47720003       7.03593541E-05
   4.48920012       6.80033845E-05
   4.50120020       6.59969228E-05
   4.51319981       6.43886815E-05
   4.52519989       6.32130832E-05
   4.53719997       6.24901659E-05
   4.54920006       6.22260341E-05
   4.56120014       6.24139429E-05
   4.57320023       6.30357899E-05
   4.58519983       6.40638245E-05
   4.59719992       6.54625619E-05
   4.60920000       6.71905655E-05
   4.62120008       6.92021786E-05
   4.63320017       7.14489433E-05
   4.64519978       7.38807576E-05
   4.65719986       7.64466822E-05
   4.66919994       7.90955310E-05
   4.68120003       8.17761465E-05
   4.69320011       8.44375609E-05
   4.70520020       8.70290605E-05
   4.71719980       8.95003395E-05
   4.72919989       9.18017395E-05
   4.74119997       9.38847079E-05
   4.75320005       9.57025259E-05
   4.76520014       9.72112757E-05
   4.77720022       9.83710925E-05
   4.78919983       9.91475972E-05
   4.80119991       9.95134469E-05
   4.81320000       9.94498914E-05
   4.82520008       9.89482287E-05
   4.83720016       9.80110417E-05
   4.84919977       9.66530424E-05
   4.86119986       9.49014575E-05
   4.87319994       9.27959336E-05
   4.88520002       9.03877299E-05
   4.89720011       8.77384227E-05
   4.90920019       8.49179560E-05
   4.92119980       8.20022105E-05
   4.93319988       7.90701451E-05
   4.94519997       7.62007039E-05
   4.95720005       7.34696223E-05
   4.96920013       7.09462838E-05
   4.98120022       6.86908170E-05
   4.99319983       6.67516288E-05
   5.00519991       6.51634837E-05
   5.01719999       6.39462305E-05
   5.02920008       6.31042640E-05
   5.04120016       6.26267356E-05
   5.05319977       6.24885506E-05
   5.06519985       6.26519904E-05
   5.07719994       6.30689829E-05
   5.08920002       6.36837722E-05
   5.10120010       6.44359825E-05
   5.11320019       6.52637245E-05
   5.12519979       6.61067534E-05
   5.13719988       6.69093788E-05
   5.14919996       6.76230629E-05
   5.16120005       6.82084938E-05
   5.17320013       6.86371131E-05
   5.18520021       6.88920118E-05
   5.19719982       6.89681838E-05
   5.20919991       6.88721120E-05
   5.22119999       6.86208077E-05
   5.23320007       6.82403261E-05
   5.24520016       6.77638964E-05
   5.25719976       6.72297610E-05
   5.26919985       6.66788546E-05
   5.28119993       6.61524973E-05
   5.29320002       6.56901175E-05
   5.30520010       6.53272000E-05
   5.31720018       6.50935253E-05
   5.32919979       6.50117800E-05
   5.34119987       6.50965449E-05
   5.35319996       6.53538082E-05
   5.36520004       6.57808268E-05
   5.37720013       6.63664614E-05
   5.38920021       6.70919180E-05
   5.40119982       6.79317600E-05
   5.41319990       6.88552245E-05
   5.42519999       6.98277072E-05
   5.43720007       7.08123625E-05
   5.44920015       7.17717412E-05
   5.46120024       7.26694198E-05
   5.47319984       7.34715213E-05
   5.48519993       7.41481344E-05
   5.49720001       7.46745500E-05
   5.50920010       7.50322288E-05
   5.52120018       7.52096093E-05
   5.53319979       7.52025735E-05
   5.54519987       7.50146864E-05
   5.55719995       7.46570586E-05
   5.56920004       7.41480399E-05
   5.58120012       7.35125068E-05
   5.59320021       7.27810184E-05
   5.60519981       7.19886011E-05
   5.61719990       7.11734465E-05
   5.62919998       7.03753831E-05
   5.64120007       6.96342395E-05
   5.65320015       6.89881344E-05
   5.66520023       6.84717452E-05
   5.67719984       6.81146412E-05
   5.68919992       6.79397563E-05
   5.70120001       6.79619989E-05
   5.71320009       6.81872407E-05
   5.72520018       6.86116109E-05
   5.73719978       6.92212125E-05
   5.74919987       6.99923039E-05
   5.76119995       7.08920779E-05
   5.77320004       7.18798183E-05
   5.78520012       7.29086241E-05
   5.79720020       7.39274983E-05
   5.80919981       7.48837847E-05
   5.82119989       7.57257512E-05
   5.83319998       7.64052675E-05
   5.84520006       7.68804020E-05
   5.85720015       7.71177074E-05
   5.86920023       7.70941697E-05
   5.88119984       7.67985985E-05
   5.89319992       7.62323834E-05
   5.90520000       7.54096327E-05
   5.91720009       7.43565033E-05
   5.92920017       7.31099353E-05
   5.94119978       7.17157745E-05
   5.95319986       7.02264297E-05
   5.96519995       6.86981512E-05
   5.97720003       6.71882663E-05
   5.98920012       6.57523924E-05
   6.00120020       6.44418906E-05
   6.01319981       6.33017189E-05
   6.02519989       6.23687883E-05
   6.03719997       6.16709149E-05
   6.04920006       6.12263393E-05
   6.06120014       6.10439383E-05
   6.07320023       6.11239011E-05
   6.08519983       6.14588353E-05
   6.09719992       6.20352439E-05
   6.10920000       6.28350390E-05
   6.12120008       6.38371130E-05
   6.13320017       6.50187285E-05
   6.14519978       6.63566025E-05
   6.15719986       6.78276629E-05
   6.16919994       6.94093469E-05
   6.18120003       7.10794848E-05
   6.19320011       7.28158775E-05
   6.20520020       7.45955622E-05
   6.21719980       7.63939461E-05
   6.22919989       7.81839917E-05
   6.24119997       7.99355184E-05
   6.25320005       8.16147876E-05
   6.26520014       8.31845464E-05
   6.27720022       8.46044641E-05
   6.28919983       8.58321655E-05
   6.30119991       8.68246352E-05
   6.31320000       8.75401529E-05
   6.32520008       8.79403960E-05
   6.33720016       8.79928557E-05
   6.34919977       8.76731137E-05
   6.36119986       8.69669893E-05
   6.37319994       8.58723070E-05
   6.38520002       8.44001552E-05
   6.39720011       8.25754178E-05
   6.40920019       8.04366282E-05
   6.42119980       7.80350092E-05
   6.43319988       7.54327484E-05
   6.44519997       7.27006118E-05
   6.45720005       6.99149532E-05
   6.46920013       6.71544403E-05
   6.48120022       6.44965185E-05
   6.49319983       6.20139253E-05
   6.50519991       5.97715189E-05
   6.51719999       5.78234649E-05
   6.52920008       5.62111200E-05
   6.54120016       5.49615979E-05
   6.55319977       5.40872024E-05
   6.56519985       5.35856670E-05
   6.57719994       5.34412284E-05
   6.58920002       5.36264088E-05
   6.60120010       5.41044137E-05
   6.61320019       5.48319331E-05
   6.62519979       5.57621825E-05
   6.63719988       5.68479190E-05
   6.64919996       5.80442756E-05
   6.66120005       5.93111945E-05
   6.67320013       6.06152898E-05
   6.68520021       6.19310231E-05
   6.69719982       6.32411684E-05
   6.70919991       6.45364853E-05
   6.72119999       6.58147692E-05
   6.73320007       6.70792142E-05
   6.74520016       6.83364415E-05
   6.75719976       6.95942217E-05
   6.76919985       7.08591688E-05
   6.78119993       7.21345350E-05
   6.79320002       7.34184650E-05
   6.80520010       7.47026497E-05
   6.81720018       7.59716713E-05
   6.82919979       7.72030835E-05
   6.84119987       7.83681462E-05
   6.85319996       7.94332955E-05
   6.86520004       8.03621951E-05
   6.87720013       8.11181380E-05
   6.88920021       8.16667525E-05
   6.90119982       8.19786364E-05
   6.91319990       8.20318892E-05
   6.92519999       8.18140688E-05
   6.93720007       8.13236693E-05
   6.94920015       8.05707896E-05
   6.96120024       7.95770466E-05
   6.97319984       7.83746073E-05
   6.98519993       7.70045299E-05
   6.99720001       7.55144283E-05
   7.00920010       7.39556708E-05
   7.02120018       7.23804114E-05
   7.03319979       7.08385269E-05
   7.04519987       6.93748516E-05
   7.05719995       6.80268349E-05
   7.06920004       6.68228749E-05
   7.08120012       6.57813071E-05
   7.09320021       6.49103458E-05
   7.10519981       6.42086961E-05
   7.11719990       6.36669574E-05
   7.12919998       6.32695956E-05
   7.14120007       6.29972492E-05
   7.15320015       6.28292473E-05
   7.16520023       6.27460104E-05
   7.17719984       6.27311165E-05
   7.18919992       6.27729241E-05
   7.20120001       6.28654525E-05
   7.21320009       6.30086288E-05
   7.22520018       6.32076990E-05
   7.23719978       6.34720054E-05
   7.24919987       6.38132406E-05
   7.26119995       6.42433006E-05
   7.27320004       6.47720371E-05
   7.28520012       6.54051109E-05
   7.29720020       6.61422018E-05
   7.30919981       6.69757210E-05
   7.32119989       6.78902434E-05
   7.33319998       6.88626824E-05
   7.34520006       6.98632430E-05
   7.35720015       7.08571170E-05
   7.36920023       7.18066731E-05
   7.38119984       7.26740982E-05
   7.39319992       7.34241912E-05
   7.40520000       7.40270261E-05
   7.41720009       7.44603312E-05
   7.42920017       7.47112936E-05
   7.44119978       7.47776503E-05
   7.45319986       7.46680162E-05
   7.46519995       7.44013159E-05
   7.47720003       7.40053802E-05
   7.48920012       7.35149006E-05
   7.50120020       7.29688618E-05
   7.51319981       7.24075944E-05
   7.52519989       7.18698866E-05
   7.53719997       7.13901318E-05
   7.54920006       7.09960586E-05
   7.56120014       7.07068757E-05
   7.57320023       7.05323037E-05
   7.58519983       7.04722552E-05
   7.59719992       7.05173952E-05
   7.60920000       7.06503488E-05
   7.62120008       7.08474836E-05
   7.63320017       7.10812092E-05
   7.64519978       7.13223417E-05
   7.65719986       7.15426140E-05
   7.66919994       7.17169387E-05
   7.68120003       7.18253505E-05
   7.69320011       7.18543888E-05
   7.70520020       7.17980001E-05
   7.71719980       7.16576833E-05
   7.72919989       7.14421185E-05
   7.74119997       7.11662433E-05
   7.75320005       7.08498337E-05
   7.76520014       7.05158673E-05
   7.77720022       7.01886966E-05
   7.78919983       6.98922377E-05
   7.80119991       6.96484130E-05
   7.81320000       6.94757546E-05
   7.82520008       6.93884867E-05
   7.83720016       6.93959519E-05
   7.84919977       6.95025592E-05
   7.86119986       6.97080759E-05
   7.87319994       7.00082892E-05
   7.88520002       7.03959086E-05
   7.89720011       7.08616863E-05
   7.90920019       7.13955014E-05
   7.92119980       7.19874297E-05
   7.93319988       7.26285871E-05
   7.94519997       7.33117995E-05
   7.95720005       7.40318574E-05
   7.96920013       7.47855302E-05
   7.98120022       7.55712026E-05
   7.99319983       7.63883072E-05
   8.00520039       7.72363928E-05
   8.01720047       7.81142298E-05
   8.02919960       7.90188133E-05
   8.04119968       7.99443951E-05
   8.05319977       8.08817786E-05
   8.06519985       8.18177868E-05
   8.07719994       8.27350887E-05
   8.08920002       8.36123581E-05
   8.10120010       8.44248643E-05
   8.11320019       8.51453151E-05
   8.12520027       8.57450941E-05
   8.13720036       8.61957451E-05
   8.14920044       8.64705071E-05
   8.16119957       8.65459879E-05
   8.17319965       8.64036410E-05
   8.18519974       8.60310902E-05
   8.19719982       8.54231475E-05
   8.20919991       8.45823597E-05
   8.22119999       8.35191531E-05
   8.23320007       8.22514630E-05
   8.24520016       8.08039476E-05
   8.25720024       7.92067294E-05
   8.26920033       7.74938380E-05
   8.28120041       7.57015077E-05
   8.29319954       7.38662493E-05
   8.30519962       7.20231037E-05
   8.31719971       7.02040052E-05
   8.32919979       6.84364641E-05
   8.34119987       6.67426502E-05
   8.35319996       6.51389128E-05
   8.36520004       6.36358163E-05
   8.37720013       6.22386724E-05
   8.38920021       6.09484196E-05
   8.40120029       5.97629260E-05
   8.41320038       5.86784226E-05
   8.42520046       5.76909879E-05
   8.43719959       5.67979914E-05
   8.44919968       5.59992150E-05
   8.46119976       5.52976235E-05
   8.47319984       5.46997253E-05
   8.48519993       5.42153648E-05
   8.49720001       5.38570785E-05
   8.50920010       5.36389853E-05
   8.52120018       5.35753461E-05
   8.53320026       5.36789194E-05
   8.54520035       5.39592547E-05
   8.55720043       5.44210707E-05
   8.56919956       5.50629302E-05
   8.58119965       5.58762804E-05
   8.59319973       5.68450232E-05
   8.60519981       5.79456646E-05
   8.61719990       5.91480275E-05
   8.62919998       6.04165543E-05
   8.64120007       6.17120750E-05
   8.65320015       6.29938877E-05
   8.66520023       6.42220839E-05
   8.67720032       6.53597745E-05
   8.68920040       6.63752508E-05
   8.70119953       6.72437236E-05
   8.71319962       6.79485893E-05
   8.72519970       6.84821716E-05
   8.73719978       6.88458094E-05
   8.74919987       6.90493835E-05
   8.76119995       6.91102396E-05
   8.77320004       6.90516899E-05
   8.78520012       6.89012231E-05
   8.79720020       6.86885323E-05
   8.80920029       6.84434563E-05
   8.82120037       6.81941601E-05
   8.83320045       6.79654840E-05
   8.84519958       6.77777643E-05
   8.85719967       6.76460040E-05
   8.86919975       6.75795382E-05
   8.88119984       6.75821793E-05
   8.89319992       6.76527270E-05
   8.90520000       6.77858188E-05
   8.91720009       6.79730074E-05
   8.92920017       6.82039172E-05
   8.94120026       6.84674378E-05
   8.95320034       6.87527572E-05
   8.96520042       6.90502638E-05
   8.97719955       6.93521579E-05
   8.98919964       6.96528004E-05
   9.00119972       6.99487937E-05
   9.01319981       7.02388061E-05
   9.02519989       7.05231505E-05
   9.03719997       7.08032312E-05
   9.04920006       7.10809109E-05
   9.06120014       7.13577901E-05
   9.07320023       7.16346112E-05
   9.08520031       7.19106829E-05
   9.09720039       7.21835167E-05
   9.10919952       7.24485581E-05
   9.12119961       7.26992293E-05
   9.13319969       7.29269959E-05
   9.14519978       7.31217442E-05
   9.15719986       7.32722110E-05
   9.16919994       7.33665293E-05
   9.18120003       7.33928027E-05
   9.19320011       7.33397465E-05
   9.20520020       7.31972177E-05
   9.21720028       7.29567328E-05
   9.22920036       7.26118087E-05
   9.24120045       7.21582619E-05
   9.25319958       7.15943243E-05
   9.26519966       7.09206142E-05
   9.27719975       7.01399913E-05
   9.28919983       6.92573158E-05
   9.30119991       6.82790924E-05
   9.31320000       6.72131428E-05
   9.32520008       6.60681835E-05
   9.33720016       6.48535497E-05
   9.34920025       6.35789474E-05
   9.36120033       6.22543084E-05
   9.37320042       6.08898554E-05
   9.38519955       5.94962657E-05
   9.39719963       5.80849737E-05
   9.40919971       5.66686031E-05
   9.42119980       5.52614765E-05
   9.43319988       5.38801469E-05
   9.44519997       5.25438627E-05
