 -0.622799993       0.00000000    
 -0.610800028       0.00000000    
 -0.598800004       0.00000000    
 -0.586799979      -1.37634282E-18
 -0.574800014      -1.00202864E-17
 -0.562799990      -3.99784298E-17
 -0.550800025      -1.14785127E-16
 -0.538800001      -2.66474448E-16
 -0.526799977      -5.40306594E-16
 -0.514800012      -1.01851741E-15
 -0.502799988      -1.86500265E-15
 -0.490799993      -3.35894261E-15
 -0.478799999      -5.84694053E-15
 -0.466800004      -9.54310263E-15
 -0.454800010      -1.41873292E-14
 -0.442799985      -1.87330315E-14
 -0.430799991      -2.13988271E-14
 -0.418799996      -2.04420187E-14
 -0.406800002      -1.57625395E-14
 -0.394800007      -1.09138696E-14
 -0.382800013      -1.44766689E-14
 -0.370799989      -3.94214860E-14
 -0.358799994      -9.94530589E-14
 -0.346799999      -2.02562820E-13
 -0.334800005      -3.43830324E-13
 -0.322800010      -5.01123286E-13
 -0.310799986      -6.37707985E-13
 -0.298799992      -7.14109327E-13
 -0.286799997      -7.07851909E-13
 -0.274800003      -6.35083566E-13
 -0.262800008      -5.64553937E-13
 -0.250800014      -6.14195543E-13
 -0.238800004      -9.24940246E-13
 -0.226799995      -1.61488238E-12
 -0.214800000      -2.72681400E-12
 -0.202800006      -4.18939189E-12
 -0.190799996      -5.81271403E-12
 -0.178800002      -7.33077488E-12
 -0.166800007      -8.48742951E-12
 -0.154799998      -9.14395209E-12
 -0.142800003      -9.37213761E-12
 -0.130799994      -9.49387444E-12
 -0.118799999      -1.00397459E-11
 -0.106799997      -1.16237905E-11
  -9.48000029E-02  -1.47618463E-11
  -8.28000009E-02  -1.96865354E-11
  -7.07999989E-02  -2.62223802E-11
  -5.88000007E-02  -3.37739905E-11
  -4.67999987E-02  -4.14494029E-11
  -3.48000005E-02  -4.82978518E-11
  -2.28000004E-02  -5.36002805E-11
  -1.08000003E-02  -5.71253773E-11
   1.20000006E-03  -5.92647667E-11
   1.31999999E-02  -6.09895329E-11
   2.52000000E-02  -6.36205671E-11
   3.72000001E-02  -6.84624163E-11
   4.91999984E-02  -7.63972635E-11
   6.12000003E-02  -8.75572739E-11
   7.32000023E-02  -1.01181480E-10
   8.51999968E-02  -1.15718136E-10
   9.71999988E-02  -1.29167149E-10
  0.109200001      -1.39585871E-10
  0.121200003      -1.45626969E-10
  0.133200005      -1.46954435E-10
  0.145199999      -1.44403656E-10
  0.157199994      -1.39812301E-10
  0.169200003      -1.35536679E-10
  0.181199998      -1.33761988E-10
  0.193200007      -1.35788741E-10
  0.205200002      -1.41507125E-10
  0.217199996      -1.49241938E-10
  0.229200006      -1.56064925E-10
  0.241200000      -1.58544511E-10
  0.253199995      -1.53768998E-10
  0.265199989      -1.40376433E-10
  0.277200013      -1.19286928E-10
  0.289200008      -9.38820480E-11
  0.301200002      -6.95067476E-11
  0.313199997      -5.23523065E-11
  0.325199991      -4.79644172E-11
  0.337199986      -5.97530012E-11
  0.349200010      -8.79130171E-11
  0.361200005      -1.29078720E-10
  0.373199999      -1.76843540E-10
  0.385199994      -2.23032898E-10
  0.397199988      -2.59390509E-10
  0.409200013      -2.79200107E-10
  0.421200007      -2.78365414E-10
  0.433200002      -2.55617916E-10
  0.445199996      -2.11775888E-10
  0.457199991      -1.48265608E-10
  0.469199985      -6.53389218E-11
  0.481200010       3.94868478E-11
  0.493200004       1.72327111E-10
  0.505200028       3.42957468E-10
  0.517199993       5.64077340E-10
  0.529200017       8.50190307E-10
  0.541199982       1.21665611E-09
  0.553200006       1.67942416E-09
  0.565199971       2.25576891E-09
  0.577199996       2.96603897E-09
  0.589200020       3.83617582E-09
  0.601199985       4.90062968E-09
  0.613200009       6.20549478E-09
  0.625199974       7.81212695E-09
  0.637199998       9.80220616E-09
  0.649200022       1.22860113E-08
  0.661199987       1.54164024E-08
  0.673200011       1.94115390E-08
  0.685199976       2.45895304E-08
  0.697200000       3.14180539E-08
  0.709200025       4.05814191E-08
  0.721199989       5.30669091E-08
  0.733200014       7.02712626E-08
  0.745199978       9.41271168E-08
  0.757200003       1.27248228E-07
  0.769200027       1.73090683E-07
  0.781199992       2.36126098E-07
  0.793200016       3.22020554E-07
  0.805199981       4.37811565E-07
  0.817200005       5.92072070E-07
  0.829200029       7.95050141E-07
  0.841199994       1.05876882E-06
  0.853200018       1.39707197E-06
  0.865199983       1.82560132E-06
  0.877200007       2.36168853E-06
  0.889199972       3.02415151E-06
  0.901199996       3.83298675E-06
  0.913200021       4.80894823E-06
  0.925199986       5.97302187E-06
  0.937200010       7.34579498E-06
  0.949199975       8.94673303E-06
  0.961199999       1.07933947E-05
  0.973200023       1.29005921E-05
  0.985199988       1.52795474E-05
  0.997200012       1.79370745E-05
   1.00919998       2.08748097E-05
   1.02119994       2.40885693E-05
   1.03320003       2.75678358E-05
   1.04519999       3.12954289E-05
   1.05719995       3.52474053E-05
   1.06920004       3.93931805E-05
   1.08120000       4.36959199E-05
   1.09319997       4.81131719E-05
   1.10520005       5.25977957E-05
   1.11720002       5.70990705E-05
   1.12919998       6.15640456E-05
   1.14119995       6.59390280E-05
   1.15320003       7.01711760E-05
   1.16520000       7.42101402E-05
   1.17719996       7.80096743E-05
   1.18920004       8.15291205E-05
   1.20120001       8.47347692E-05
   1.21319997       8.76009435E-05
   1.22520006       9.01108579E-05
   1.23720002       9.22570471E-05
   1.24919999       9.40415557E-05
   1.26119995       9.54756761E-05
   1.27320004       9.65793588E-05
   1.28520000       9.73803035E-05
   1.29719996       9.79127144E-05
   1.30920005       9.82158745E-05
   1.32120001       9.83325372E-05
   1.33319998       9.83072532E-05
   1.34519994       9.81846388E-05
   1.35720003       9.80077893E-05
   1.36919999       9.78167955E-05
   1.38119996       9.76474548E-05
   1.39320004       9.75302755E-05
   1.40520000       9.74897412E-05
   1.41719997       9.75438961E-05
   1.42920005       9.77041927E-05
   1.44120002       9.79757242E-05
   1.45319998       9.83576174E-05
   1.46519995       9.88436732E-05
   1.47720003       9.94232178E-05
   1.48920000       1.00082027E-04
   1.50119996       1.00803336E-04
   1.51320004       1.01568861E-04
   1.52520001       1.02359816E-04
   1.53719997       1.03157879E-04
   1.54920006       1.03946084E-04
   1.56120002       1.04709616E-04
   1.57319999       1.05436513E-04
   1.58519995       1.06118314E-04
   1.59720004       1.06750529E-04
   1.60920000       1.07333057E-04
   1.62119997       1.07870510E-04
   1.63320005       1.08372442E-04
   1.64520001       1.08853412E-04
   1.65719998       1.09333057E-04
   1.66919994       1.09835841E-04
   1.68120003       1.10390873E-04
   1.69319999       1.11031462E-04
   1.70519996       1.11794441E-04
   1.71720004       1.12719456E-04
   1.72920001       1.13847935E-04
   1.74119997       1.15221999E-04
   1.75320005       1.16883137E-04
   1.76520002       1.18870776E-04
   1.77719998       1.21220852E-04
   1.78919995       1.23964244E-04
   1.80120003       1.27125299E-04
   1.81320000       1.30720538E-04
   1.82519996       1.34757400E-04
   1.83720005       1.39233307E-04
   1.84920001       1.44135003E-04
   1.86119998       1.49438260E-04
   1.87320006       1.55107802E-04
   1.88520002       1.61097880E-04
   1.89719999       1.67352904E-04
   1.90919995       1.73808658E-04
   1.92120004       1.80393748E-04
   1.93320000       1.87031226E-04
   1.94519997       1.93640517E-04
   1.95720005       2.00139359E-04
   1.96920002       2.06445795E-04
   1.98119998       2.12480081E-04
   1.99319994       2.18166490E-04
   2.00519991       2.23434865E-04
   2.01719999       2.28222008E-04
   2.02920008       2.32472579E-04
   2.04119992       2.36139909E-04
   2.05320001       2.39186324E-04
   2.06520009       2.41583344E-04
   2.07719994       2.43311442E-04
   2.08920002       2.44359690E-04
   2.10120010       2.44725263E-04
   2.11319995       2.44412950E-04
   2.12520003       2.43434391E-04
   2.13720012       2.41807560E-04
   2.14919996       2.39556335E-04
   2.16120005       2.36709864E-04
   2.17319989       2.33302300E-04
   2.18519998       2.29372483E-04
   2.19720006       2.24963762E-04
   2.20919991       2.20123606E-04
   2.22119999       2.14903426E-04
   2.23320007       2.09358113E-04
   2.24519992       2.03545584E-04
   2.25720000       1.97526082E-04
   2.26920009       1.91361309E-04
   2.28119993       1.85113298E-04
   2.29320002       1.78843256E-04
   2.30520010       1.72610089E-04
   2.31719995       1.66469006E-04
   2.32920003       1.60469921E-04
   2.34120011       1.54656227E-04
   2.35319996       1.49063490E-04
   2.36520004       1.43718527E-04
   2.37719989       1.38638934E-04
   2.38919997       1.33832786E-04
   2.40120006       1.29299064E-04
   2.41319990       1.25028368E-04
   2.42519999       1.21004065E-04
   2.43720007       1.17203876E-04
   2.44919991       1.13601658E-04
   2.46120000       1.10169443E-04
   2.47320008       1.06879401E-04
   2.48519993       1.03705883E-04
   2.49720001       1.00627061E-04
   2.50920010       9.76264200E-05
   2.52119994       9.46937289E-05
   2.53320003       9.18256337E-05
   2.54520011       8.90256997E-05
   2.55719995       8.63040041E-05
   2.56920004       8.36762993E-05
   2.58119988       8.11627615E-05
   2.59319997       7.87864919E-05
   2.60520005       7.65718287E-05
   2.61719990       7.45425932E-05
   2.62919998       7.27204097E-05
   2.64120007       7.11231696E-05
   2.65319991       6.97637734E-05
   2.66520000       6.86491840E-05
   2.67720008       6.77798816E-05
   2.68919992       6.71496528E-05
   2.70120001       6.67458226E-05
   2.71320009       6.65497791E-05
   2.72519994       6.65378466E-05
   2.73720002       6.66823107E-05
   2.74920011       6.69526999E-05
   2.76119995       6.73170434E-05
   2.77320004       6.77432254E-05
   2.78520012       6.82001992E-05
   2.79719996       6.86591666E-05
   2.80920005       6.90944944E-05
   2.82119989       6.94844857E-05
   2.83319998       6.98118893E-05
   2.84520006       7.00641322E-05
   2.85719991       7.02333782E-05
   2.86919999       7.03162877E-05
   2.88120008       7.03135884E-05
   2.89319992       7.02295147E-05
   2.90520000       7.00711025E-05
   2.91720009       6.98474032E-05
   2.92919993       6.95687122E-05
   2.94120002       6.92458125E-05
   2.95320010       6.88893051E-05
   2.96519995       6.85089835E-05
   2.97720003       6.81134843E-05
   2.98920012       6.77099306E-05
   3.00119996       6.73038812E-05
   3.01320004       6.68993016E-05
   3.02519989       6.64987674E-05
   3.03719997       6.61036902E-05
   3.04920006       6.57146666E-05
   3.06119990       6.53317984E-05
   3.07319999       6.49550275E-05
   3.08520007       6.45844048E-05
   3.09719992       6.42202722E-05
   3.10920000       6.38632919E-05
   3.12120008       6.35144170E-05
   3.13319993       6.31746880E-05
   3.14520001       6.28449998E-05
   3.15720010       6.25257162E-05
   3.16919994       6.22164080E-05
   3.18120003       6.19155398E-05
   3.19320011       6.16203179E-05
   3.20519996       6.13266966E-05
   3.21720004       6.10295283E-05
   3.22919989       6.07229995E-05
   3.24119997       6.04011802E-05
   3.25320005       6.00587991E-05
   3.26519990       5.96920800E-05
   3.27719998       5.92996257E-05
   3.28920007       5.88832809E-05
   3.30119991       5.84488189E-05
   3.31320000       5.80064043E-05
   3.32520008       5.75707709E-05
   3.33719993       5.71610290E-05
   3.34920001       5.68001524E-05
   3.36120009       5.65140108E-05
   3.37319994       5.63301364E-05
   3.38520002       5.62761961E-05
   3.39720011       5.63782996E-05
   3.40919995       5.66592316E-05
   3.42120004       5.71368000E-05
   3.43319988       5.78222935E-05
   3.44519997       5.87193099E-05
   3.45720005       5.98229490E-05
   3.46919990       6.11194700E-05
   3.48119998       6.25864341E-05
   3.49320006       6.41933730E-05
   3.50519991       6.59028592E-05
   3.51719999       6.76719792E-05
   3.52920008       6.94541231E-05
   3.54119992       7.12009059E-05
   3.55320001       7.28641535E-05
   3.56520009       7.43978526E-05
   3.57719994       7.57599119E-05
   3.58920002       7.69136313E-05
   3.60120010       7.78289468E-05
   3.61319995       7.84832228E-05
   3.62520003       7.88617399E-05
   3.63720012       7.89578407E-05
   3.64919996       7.87727549E-05
   3.66120005       7.83151845E-05
   3.67319989       7.76007437E-05
   3.68519998       7.66511730E-05
   3.69720006       7.54935973E-05
   3.70919991       7.41597178E-05
   3.72119999       7.26850194E-05
   3.73320007       7.11080211E-05
   3.74519992       6.94695773E-05
   3.75720000       6.78121723E-05
   3.76920009       6.61792437E-05
   3.78119993       6.46144908E-05
   3.79320002       6.31610965E-05
   3.80520010       6.18608610E-05
   3.81719995       6.07532784E-05
   3.82920003       5.98744955E-05
   3.84120011       5.92561992E-05
   3.85319996       5.89245028E-05
   3.86520004       5.88988114E-05
   3.87719989       5.91908101E-05
   3.88919997       5.98035840E-05
   3.90120006       6.07309703E-05
   3.91319990       6.19572020E-05
   3.92519999       6.34568714E-05
   3.93720007       6.51953014E-05
   3.94919991       6.71292510E-05
   3.96120000       6.92080357E-05
   3.97320008       7.13749687E-05
   3.98519993       7.35691283E-05
   3.99720001       7.57272501E-05
   4.00920010       7.77859095E-05
   4.02120018       7.96835739E-05
   4.03319979       8.13627121E-05
   4.04519987       8.27717085E-05
   4.05719995       8.38665364E-05
   4.06920004       8.46121984E-05
   4.08120012       8.49837452E-05
   4.09320021       8.49670250E-05
   4.10519981       8.45589093E-05
   4.11719990       8.37672706E-05
   4.12919998       8.26104806E-05
   4.14120007       8.11166756E-05
   4.15320015       7.93226282E-05
   4.16520023       7.72724379E-05
   4.17719984       7.50160398E-05
   4.18919992       7.26075377E-05
   4.20120001       7.01034805E-05
   4.21320009       6.75612100E-05
   4.22520018       6.50371294E-05
   4.23719978       6.25851462E-05
   4.24919987       6.02552500E-05
   4.26119995       5.80922278E-05
   4.27320004       5.61346387E-05
   4.28520012       5.44139948E-05
   4.29720020       5.29542231E-05
   4.30919981       5.17713815E-05
   4.32119989       5.08736885E-05
   4.33319998       5.02617986E-05
   4.34520006       4.99293601E-05
   4.35720015       4.98637819E-05
   4.36920023       5.00472051E-05
   4.38119984       5.04575619E-05
   4.39319992       5.10697646E-05
   4.40520000       5.18568158E-05
   4.41720009       5.27909142E-05
   4.42920017       5.38444001E-05
   4.44119978       5.49905599E-05
   4.45319986       5.62041860E-05
   4.46519995       5.74619335E-05
   4.47720003       5.87424875E-05
   4.48920012       6.00264793E-05
   4.50120020       6.12962758E-05
   4.51319981       6.25356406E-05
   4.52519989       6.37293342E-05
   4.53719997       6.48626810E-05
   4.54920006       6.59212310E-05
   4.56120014       6.68904831E-05
   4.57320023       6.77557473E-05
   4.58519983       6.85022460E-05
   4.59719992       6.91153109E-05
   4.60920000       6.95807903E-05
   4.62120008       6.98856747E-05
   4.63320017       7.00187811E-05
   4.64519978       6.99715092E-05
   4.65719986       6.97386204E-05
   4.66919994       6.93189431E-05
   4.68120003       6.87160209E-05
   4.69320011       6.79384830E-05
   4.70520020       6.70002846E-05
   4.71719980       6.59206780E-05
   4.72919989       6.47239140E-05
   4.74119997       6.34387397E-05
   4.75320005       6.20975989E-05
   4.76520014       6.07357288E-05
   4.77720022       5.93900149E-05
   4.78919983       5.80978449E-05
   4.80119991       5.68958676E-05
   4.81320000       5.58187749E-05
   4.82520008       5.48982025E-05
   4.83720016       5.41617301E-05
   4.84919977       5.36320586E-05
   4.86119986       5.33263956E-05
   4.87319994       5.32560407E-05
   4.88520002       5.34262399E-05
   4.89720011       5.38361746E-05
   4.90920019       5.44792638E-05
   4.92119980       5.53435639E-05
   4.93319988       5.64124020E-05
   4.94519997       5.76650491E-05
   4.95720005       5.90775489E-05
   4.96920013       6.06235553E-05
   4.98120022       6.22751322E-05
   4.99319983       6.40036087E-05
   5.00519991       6.57802157E-05
   5.01719999       6.75767878E-05
   5.02920008       6.93661786E-05
   5.04120016       7.11226894E-05
   5.05319977       7.28222949E-05
   5.06519985       7.44428398E-05
   5.07719994       7.59640170E-05
   5.08920002       7.73674474E-05
   5.10120010       7.86365854E-05
   5.11320019       7.97566390E-05
   5.12519979       8.07145625E-05
   5.13719988       8.14989544E-05
   5.14919996       8.21001158E-05
   5.16120005       8.25100724E-05
   5.17320013       8.27227341E-05
   5.18520021       8.27340555E-05
   5.19719982       8.25423122E-05
   5.20919991       8.21483409E-05
   5.22119999       8.15558960E-05
   5.23320007       8.07718461E-05
   5.24520016       7.98065012E-05
   5.25719976       7.86737510E-05
   5.26919985       7.73911379E-05
   5.28119993       7.59799004E-05
   5.29320002       7.44647987E-05
   5.30520010       7.28739178E-05
   5.31720018       7.12383480E-05
   5.32919979       6.95917624E-05
   5.34119987       6.79699006E-05
   5.35319996       6.64099862E-05
   5.36520004       6.49500798E-05
   5.37720013       6.36283949E-05
   5.38920021       6.24824897E-05
   5.40119982       6.15484969E-05
   5.41319990       6.08602495E-05
   5.42519999       6.04484230E-05
   5.43720007       6.03396074E-05
   5.44920015       6.05553796E-05
   5.46120024       6.11114301E-05
   5.47319984       6.20166102E-05
   5.48519993       6.32721494E-05
   5.49720001       6.48708956E-05
   5.50920010       6.67967470E-05
   5.52120018       6.90242523E-05
   5.53319979       7.15184942E-05
   5.54519987       7.42352859E-05
   5.55719995       7.71217092E-05
   5.56920004       8.01170900E-05
   5.58120012       8.31543075E-05
   5.59320021       8.61615990E-05
   5.60519981       8.90646115E-05
   5.61719990       9.17888174E-05
   5.62919998       9.42620609E-05
   5.64120007       9.64172577E-05
   5.65320015       9.81949706E-05
   5.66520023       9.95458977E-05
   5.67719984       1.00432961E-04
   5.68919992       1.00833066E-04
   5.70120001       1.00738253E-04
   5.71320009       1.00156263E-04
   5.72520018       9.91105044E-05
   5.73719978       9.76392257E-05
   5.74919987       9.57941375E-05
   5.76119995       9.36384022E-05
   5.77320004       9.12441465E-05
   5.78520012       8.86895505E-05
   5.79720020       8.60557629E-05
   5.80919981       8.34236926E-05
   5.82119989       8.08709592E-05
   5.83319998       7.84689109E-05
   5.84520006       7.62802010E-05
   5.85720015       7.43566779E-05
   5.86920023       7.27379083E-05
   5.88119984       7.14503112E-05
   5.89319992       7.05068232E-05
   5.90520000       6.99072843E-05
   5.91720009       6.96393327E-05
   5.92920017       6.96797797E-05
   5.94119978       6.99964367E-05
   5.95319986       7.05502098E-05
   5.96519995       7.12973633E-05
   5.97720003       7.21918914E-05
   5.98920012       7.31877517E-05
   6.00120020       7.42410339E-05
   6.01319981       7.53117711E-05
   6.02519989       7.63655480E-05
   6.03719997       7.73745705E-05
   6.04920006       7.83184369E-05
   6.06120014       7.91844432E-05
   6.07320023       7.99674599E-05
   6.08519983       8.06694079E-05
   6.09719992       8.12984435E-05
   6.10920000       8.18678018E-05
   6.12120008       8.23944283E-05
   6.13320017       8.28974735E-05
   6.14519978       8.33967933E-05
   6.15719986       8.39113127E-05
   6.16919994       8.44576134E-05
   6.18120003       8.50486249E-05
   6.19320011       8.56925326E-05
   6.20520020       8.63919704E-05
   6.21719980       8.71434895E-05
   6.22919989       8.79373256E-05
   6.24119997       8.87575879E-05
   6.25320005       8.95826306E-05
   6.26520014       9.03858454E-05
   6.27720022       9.11366951E-05
   6.28919983       9.18019359E-05
   6.30119991       9.23470725E-05
   6.31320000       9.27379224E-05
   6.32520008       9.29422240E-05
   6.33720016       9.29312228E-05
   6.34919977       9.26812572E-05
   6.36119986       9.21751052E-05
   6.37319994       9.14031916E-05
   6.38520002       9.03645632E-05
   6.39720011       8.90674419E-05
   6.40920019       8.75295664E-05
   6.42119980       8.57780979E-05
   6.43319988       8.38491542E-05
   6.44519997       8.17869659E-05
   6.45720005       7.96426975E-05
   6.46920013       7.74729124E-05
   6.48120022       7.53378336E-05
   6.49319983       7.32993503E-05
   6.50519991       7.14189009E-05
   6.51719999       6.97553551E-05
   6.52920008       6.83628969E-05
   6.54120016       6.72890455E-05
   6.55319977       6.65728876E-05
   6.56519985       6.62435559E-05
   6.57719994       6.63190585E-05
   6.58920002       6.68055072E-05
   6.60120010       6.76967393E-05
   6.61320019       6.89743829E-05
   6.62519979       7.06084029E-05
   6.63719988       7.25580394E-05
   6.64919996       7.47731247E-05
   6.66120005       7.71957712E-05
   6.67320013       7.97622852E-05
   6.68520021       8.24053132E-05
   6.69719982       8.50560100E-05
   6.70919991       8.76462946E-05
   6.72119999       9.01109524E-05
   6.73320007       9.23896005E-05
   6.74520016       9.44284111E-05
   6.75719976       9.61815676E-05
   6.76919985       9.76123338E-05
   6.78119993       9.86937739E-05
   6.79320002       9.94091242E-05
   6.80520010       9.97517564E-05
   6.81720018       9.97248280E-05
   6.82919979       9.93406065E-05
   6.84119987       9.86195810E-05
   6.85319996       9.75893199E-05
   6.86520004       9.62832928E-05
   6.87720013       9.47395019E-05
   6.88920021       9.29992239E-05
   6.90119982       9.11056923E-05
   6.91319990       8.91028831E-05
   6.92519999       8.70344302E-05
   6.93720007       8.49425778E-05
   6.94920015       8.28673219E-05
   6.96120024       8.08456462E-05
   6.97319984       7.89109763E-05
   6.98519993       7.70926563E-05
   6.99720001       7.54156790E-05
   7.00920010       7.39004900E-05
   7.02120018       7.25628997E-05
   7.03319979       7.14141643E-05
   7.04519987       7.04611448E-05
   7.05719995       6.97065479E-05
   7.06920004       6.91492824E-05
   7.08120012       6.87848515E-05
   7.09320021       6.86058484E-05
   7.10519981       6.86024869E-05
   7.11719990       6.87631036E-05
   7.12919998       6.90748129E-05
   7.14120007       6.95239723E-05
   7.15320015       7.00967794E-05
   7.16520023       7.07796717E-05
   7.17719984       7.15597489E-05
   7.18919992       7.24249840E-05
   7.20120001       7.33644047E-05
   7.21320009       7.43681085E-05
   7.22520018       7.54270804E-05
   7.23719978       7.65330406E-05
   7.24919987       7.76780143E-05
   7.26119995       7.88540201E-05
   7.27320004       8.00525304E-05
   7.28520012       8.12641156E-05
   7.29720020       8.24780072E-05
   7.30919981       8.36818290E-05
   7.32119989       8.48613490E-05
   7.33319998       8.60004438E-05
   7.34520006       8.70812364E-05
   7.35720015       8.80842999E-05
   7.36920023       8.89890944E-05
   7.38119984       8.97745413E-05
   7.39319992       9.04196786E-05
   7.40520000       9.09044393E-05
   7.41720009       9.12104661E-05
   7.42920017       9.13219556E-05
   7.44119978       9.12264513E-05
   7.45319986       9.09155715E-05
   7.46519995       9.03856053E-05
   7.47720003       8.96379570E-05
   7.48920012       8.86794296E-05
   7.50120020       8.75222395E-05
   7.51319981       8.61839362E-05
   7.52519989       8.46869734E-05
   7.53719997       8.30582430E-05
   7.54920006       8.13283405E-05
   7.56120014       7.95307715E-05
   7.57320023       7.77010137E-05
   7.58519983       7.58755414E-05
   7.59719992       7.40908945E-05
   7.60920000       7.23826597E-05
   7.62120008       7.07846266E-05
   7.63320017       6.93279289E-05
   7.64519978       6.80403609E-05
   7.65719986       6.69457950E-05
   7.66919994       6.60636942E-05
   7.68120003       6.54088435E-05
   7.69320011       6.49911817E-05
   7.70520020       6.48157802E-05
   7.71719980       6.48829591E-05
   7.72919989       6.51885057E-05
   7.74119997       6.57240089E-05
   7.75320005       6.64772451E-05
   7.76520014       6.74326002E-05
   7.77720022       6.85715422E-05
   7.78919983       6.98730946E-05
   7.80119991       7.13142363E-05
   7.81320000       7.28703089E-05
   7.82520008       7.45154030E-05
   7.83720016       7.62226264E-05
   7.84919977       7.79643960E-05
   7.86119986       7.97126559E-05
   7.87319994       8.14391460E-05
   7.88520002       8.31155776E-05
   7.89720011       8.47138872E-05
   7.90920019       8.62065135E-05
   7.92119980       8.75667465E-05
   7.93319988       8.87690549E-05
   7.94519997       8.97896170E-05
   7.95720005       9.06068017E-05
   7.96920013       9.12017858E-05
   7.98120022       9.15591445E-05
   7.99319983       9.16675417E-05
   8.00520039       9.15202618E-05
   8.01720047       9.11158422E-05
   8.02919960       9.04584231E-05
   8.04119968       8.95581397E-05
   8.05319977       8.84311739E-05
   8.06519985       8.70997246E-05
   8.07719994       8.55916660E-05
   8.08920002       8.39400600E-05
   8.10120010       8.21824069E-05
   8.11320019       8.03597068E-05
   8.12520027       7.85153388E-05
   8.13720036       7.66938683E-05
   8.14920044       7.49397368E-05
   8.16119957       7.32959452E-05
   8.17319965       7.18027586E-05
   8.18519974       7.04965714E-05
   8.19719982       6.94088012E-05
   8.20919991       6.85650957E-05
   8.22119999       6.79846053E-05
   8.23320007       6.76796190E-05
   8.24520016       6.76553100E-05
   8.25720024       6.79097720E-05
   8.26920033       6.84342303E-05
   8.28120041       6.92135218E-05
   8.29319954       7.02265897E-05
   8.30519962       7.14472772E-05
   8.31719971       7.28450905E-05
   8.32919979       7.43861747E-05
   8.34119987       7.60342373E-05
   8.35319996       7.77515379E-05
   8.36520004       7.94998632E-05
   8.37720013       8.12415165E-05
   8.38920021       8.29402125E-05
   8.40120029       8.45619361E-05
   8.41320038       8.60756845E-05
   8.42520046       8.74541656E-05
   8.43719959       8.86743219E-05
   8.44919968       8.97177379E-05
   8.46119976       9.05709676E-05
   8.47319984       9.12256583E-05
   8.48519993       9.16785284E-05
   8.49720001       9.19312588E-05
   8.50920010       9.19901577E-05
   8.52120018       9.18657533E-05
   8.53320026       9.15722558E-05
   8.54520035       9.11269744E-05
   8.55720043       9.05495835E-05
   8.56919956       8.98614380E-05
   8.58119965       8.90848460E-05
   8.59319973       8.82423701E-05
   8.60519981       8.73562167E-05
   8.61719990       8.64476388E-05
   8.62919998       8.55364488E-05
   8.64120007       8.46406692E-05
   8.65320015       8.37761763E-05
   8.66520023       8.29565470E-05
   8.67720032       8.21929279E-05
   8.68920040       8.14940067E-05
   8.70119953       8.08660261E-05
   8.71319962       8.03129296E-05
   8.72519970       7.98364636E-05
   8.73719978       7.94364023E-05
   8.74919987       7.91107595E-05
   8.76119995       7.88560792E-05
   8.77320004       7.86676828E-05
   8.78520012       7.85400189E-05
   8.79720020       7.84669537E-05
   8.80920029       7.84420845E-05
   8.82120037       7.84590011E-05
   8.83320045       7.85116281E-05
   8.84519958       7.85944212E-05
   8.85719967       7.87026147E-05
   8.86919975       7.88323450E-05
   8.88119984       7.89807309E-05
   8.89319992       7.91459606E-05
   8.90520000       7.93271684E-05
   8.91720009       7.95243686E-05
   8.92920017       7.97382600E-05
   8.94120026       7.99699556E-05
   8.95320034       8.02207069E-05
   8.96520042       8.04915471E-05
   8.97719955       8.07829711E-05
   8.98919964       8.10945421E-05
   9.00119972       8.14246232E-05
   9.01319981       8.17700493E-05
   9.02519989       8.21259819E-05
   9.03719997       8.24857416E-05
   9.04920006       8.28408447E-05
   9.06120014       8.31810612E-05
   9.07320023       8.34946186E-05
   9.08520031       8.37685511E-05
   9.09720039       8.39890636E-05
   9.10919952       8.41420187E-05
   9.12119961       8.42135050E-05
   9.13319969       8.41903602E-05
   9.14519978       8.40607754E-05
   9.15719986       8.38148626E-05
   9.16919994       8.34451930E-05
   9.18120003       8.29472265E-05
   9.19320011       8.23197115E-05
   9.20520020       8.15649837E-05
   9.21720028       8.06890821E-05
   9.22920036       7.97018147E-05
   9.24120045       7.86166420E-05
   9.25319958       7.74504078E-05
   9.26519966       7.62229974E-05
   9.27719975       7.49568280E-05
   9.28919983       7.36762522E-05
   9.30119991       7.24068959E-05
   9.31320000       7.11749599E-05
   9.32520008       7.00065211E-05
   9.33720016       6.89267763E-05
   9.34920025       6.79594086E-05
   9.36120033       6.71259986E-05
   9.37320042       6.64454201E-05
   9.38519955       6.59334692E-05
   9.39719963       6.56024786E-05
   9.40919971       6.54610558E-05
   9.42119980       6.55140102E-05
   9.43319988       6.57622440E-05
   9.44519997       6.62029124E-05
