 -0.622799993         1.00000012E-24
 -0.610800028         1.00000012E-24
 -0.598800004         1.00000012E-24
 -0.586799979        -6.07651117E-19
 -0.574800014        -7.21491828E-18
 -0.562799990        -3.94788756E-17
 -0.550800025        -1.40329060E-16
 -0.538800001        -3.68930018E-16
 -0.526799977        -7.60453527E-16
 -0.514800012        -1.25359097E-15
 -0.502799988        -1.62631152E-15
 -0.490799993        -1.52382942E-15
 -0.478799999        -6.72762218E-16
 -0.466800004         6.88348630E-16
 -0.454800010         1.28170135E-15
 -0.442799985        -1.52604410E-15
 -0.430799991        -1.14072578E-14
 -0.418799996        -3.18033902E-14
 -0.406800002        -6.37826651E-14
 -0.394800007        -1.03746520E-13
 -0.382800013        -1.42326147E-13
 -0.370799989        -1.66010421E-13
 -0.358799994        -1.62453587E-13
 -0.346799999        -1.28921735E-13
 -0.334800005        -8.13093963E-14
 -0.322800010        -5.94337405E-14
 -0.310799986        -1.23969438E-13
 -0.298799992        -3.42256388E-13
 -0.286799997        -7.64342420E-13
 -0.274800003        -1.39593220E-12
 -0.262800008        -2.17929949E-12
 -0.250800014        -2.99422900E-12
 -0.238800004        -3.68692403E-12
 -0.226799995        -4.12557358E-12
 -0.214800000        -4.26929716E-12
 -0.202800006        -4.22681551E-12
 -0.190799996        -4.27743778E-12
 -0.178800002        -4.83343530E-12
 -0.166800007        -6.33980759E-12
 -0.154799998        -9.13086187E-12
 -0.142800003        -1.32851421E-11
 -0.130799994        -1.85319659E-11
 -0.118799999        -2.42570651E-11
 -0.106799997        -2.96297466E-11
  -9.48000029E-02    -3.38348793E-11
  -8.28000009E-02    -3.63515988E-11
  -7.07999989E-02    -3.71916942E-11
  -5.88000007E-02    -3.70073347E-11
  -4.67999987E-02    -3.70055236E-11
  -3.48000005E-02    -3.86615184E-11
  -2.28000004E-02    -4.32901423E-11
  -1.08000003E-02    -5.15912382E-11
   1.20000006E-03    -6.33127231E-11
   1.31999999E-02    -7.71575512E-11
   2.52000000E-02    -9.10000408E-11
   3.72000001E-02    -1.02386273E-10
   4.91999984E-02    -1.09199379E-10
   6.12000003E-02    -1.10304064E-10
   7.32000023E-02    -1.05969747E-10
   8.51999968E-02    -9.79192422E-11
   9.71999988E-02    -8.89510549E-11
  0.109200001        -8.22104537E-11
  0.121200003        -8.03007591E-11
  0.133200005        -8.44923645E-11
  0.145199999        -9.42788070E-11
  0.157199994        -1.07441750E-10
  0.169200003        -1.20641636E-10
  0.181199998        -1.30388075E-10
  0.193200007        -1.34115011E-10
  0.205200002        -1.31032227E-10
  0.217199996        -1.22471047E-10
  0.229200006        -1.11580273E-10
  0.241200000        -1.02421766E-10
  0.253199995        -9.87071536E-11
  0.265199989        -1.02545888E-10
  0.277200013        -1.13596459E-10
  0.289200008        -1.28913449E-10
  0.301200002        -1.43587905E-10
  0.313199997        -1.52044169E-10
  0.325199991        -1.49655607E-10
  0.337199986        -1.34238315E-10
  0.349200010        -1.07010373E-10
  0.361200005        -7.27573488E-11
  0.373199999        -3.91716243E-11
  0.385199994        -1.55603221E-11
  0.397199988        -1.12676292E-11
  0.409200013        -3.41844608E-11
  0.421200007        -8.96154193E-11
  0.433200002        -1.79582710E-10
  0.445199996        -3.02440156E-10
  0.457199991        -4.52527432E-10
  0.469199985        -6.19567952E-10
  0.481200010        -7.87617471E-10
  0.493200004        -9.33563449E-10
  0.505200028        -1.02539255E-09
  0.517199993        -1.02060560E-09
  0.529200017        -8.65212235E-10
  0.541199982        -4.93670438E-10
  0.553200006         1.70029268E-10
  0.565199971         1.21014232E-09
  0.577199996         2.71598855E-09
  0.589200020         4.77815476E-09
  0.601199985         7.48450191E-09
  0.613200009         1.09165370E-08
  0.625199974         1.51468704E-08
  0.637199998         2.02388204E-08
  0.649200022         2.62495554E-08
  0.661199987         3.32386634E-08
  0.673200011         4.12844763E-08
  0.685199976         5.05106712E-08
  0.697200000         6.11257960E-08
  0.709200025         7.34781054E-08
  0.721199989         8.81277487E-08
  0.733200014         1.05937623E-07
  0.745199978         1.28183430E-07
  0.757200003         1.56682745E-07
  0.769200027         1.93941560E-07
  0.781199992         2.43315867E-07
  0.793200016         3.09183662E-07
  0.805199981         3.97121795E-07
  0.817200005         5.14079034E-07
  0.829200029         6.68535449E-07
  0.841199994         8.70635404E-07
  0.853200018         1.13228157E-06
  0.865199983         1.46717491E-06
  0.877200007         1.89078798E-06
  0.889199972         2.42025862E-06
  0.901199996         3.07419464E-06
  0.913200021         3.87238515E-06
  0.925199986         4.83541044E-06
  0.937200010         5.98416227E-06
  0.949199975         7.33927254E-06
  0.961199999         8.92046864E-06
  0.973200023         1.07458727E-05
  0.985199988         1.28312622E-05
  0.997200012         1.51893328E-05
   1.00919998         1.78289829E-05
   1.02119994         2.07546473E-05
   1.03320003         2.39657493E-05
   1.04519999         2.74562517E-05
   1.05719995         3.12143966E-05
   1.06920004         3.52226125E-05
   1.08120000         3.94576309E-05
   1.09319997         4.38908246E-05
   1.10520005         4.84887787E-05
   1.11720002         5.32140548E-05
   1.12919998         5.80261949E-05
   1.14119995         6.28828711E-05
   1.15320003         6.77412099E-05
   1.16520000         7.25592108E-05
   1.17719996         7.72972562E-05
   1.18920004         8.19195266E-05
   1.20120001         8.63954338E-05
   1.21319997         9.07008725E-05
   1.22520006         9.48192246E-05
   1.23720002         9.87421226E-05
   1.24919999         1.02469785E-04
   1.26119995         1.06011052E-04
   1.27320004         1.09382883E-04
   1.28520000         1.12609465E-04
   1.29719996         1.15720883E-04
   1.30920005         1.18751435E-04
   1.32120001         1.21737568E-04
   1.33319998         1.24715691E-04
   1.34519994         1.27719803E-04
   1.35720003         1.30779270E-04
   1.36919999         1.33916736E-04
   1.38119996         1.37146402E-04
   1.39320004         1.40472723E-04
   1.40520000         1.43889891E-04
   1.41719997         1.47381681E-04
   1.42920005         1.50922366E-04
   1.44120002         1.54478039E-04
   1.45319998         1.58008770E-04
   1.46519995         1.61471180E-04
   1.47720003         1.64821467E-04
   1.48920000         1.68018480E-04
   1.50119996         1.71026870E-04
   1.51320004         1.73819892E-04
   1.52520001         1.76381698E-04
   1.53719997         1.78708942E-04
   1.54920006         1.80811650E-04
   1.56120002         1.82712902E-04
   1.57319999         1.84447781E-04
   1.58519995         1.86061327E-04
   1.59720004         1.87605634E-04
   1.60920000         1.89136292E-04
   1.62119997         1.90708495E-04
   1.63320005         1.92372885E-04
   1.64520001         1.94171662E-04
   1.65719998         1.96134861E-04
   1.66919994         1.98277528E-04
   1.68120003         2.00597628E-04
   1.69319999         2.03074946E-04
   1.70519996         2.05671269E-04
   1.71720004         2.08331388E-04
   1.72920001         2.10985454E-04
   1.74119997         2.13552063E-04
   1.75320005         2.15942069E-04
   1.76520002         2.18062967E-04
   1.77719998         2.19823298E-04
   1.78919995         2.21137176E-04
   1.80120003         2.21928261E-04
   1.81320000         2.22133298E-04
   1.82519996         2.21704788E-04
   1.83720005         2.20612681E-04
   1.84920001         2.18845249E-04
   1.86119998         2.16408851E-04
   1.87320006         2.13326683E-04
   1.88520002         2.09636957E-04
   1.89719999         2.05390286E-04
   1.90919995         2.00646682E-04
   1.92120004         1.95472356E-04
   1.93320000         1.89936589E-04
   1.94519997         1.84108780E-04
   1.95720005         1.78055838E-04
   1.96920002         1.71840322E-04
   1.98119998         1.65518941E-04
   1.99319994         1.59141913E-04
   2.00519991         1.52752880E-04
   2.01719999         1.46389430E-04
   2.02920008         1.40083939E-04
   2.04119992         1.33865004E-04
   2.05320001         1.27758773E-04
   2.06520009         1.21790443E-04
   2.07719994         1.15985495E-04
   2.08920002         1.10370660E-04
   2.10120010         1.04974533E-04
   2.11319995         9.98276591E-05
   2.12520003         9.49620880E-05
   2.13720012         9.04105764E-05
   2.14919996         8.62052329E-05
   2.16120005         8.23759474E-05
   2.17319989         7.89485421E-05
   2.18519998         7.59429604E-05
   2.19720006         7.33714623E-05
   2.20919991         7.12371184E-05
   2.22119999         6.95326598E-05
   2.23320007         6.82398022E-05
   2.24519992         6.73292161E-05
   2.25720000         6.67610148E-05
   2.26920009         6.64859181E-05
   2.28119993         6.64469771E-05
   2.29320002         6.65817934E-05
   2.30520010         6.68250868E-05
   2.31719995         6.71114976E-05
   2.32920003         6.73784525E-05
   2.34120011         6.75688934E-05
   2.35319996         6.76337586E-05
   2.36520004         6.75339834E-05
   2.37719989         6.72419847E-05
   2.38919997         6.67425193E-05
   2.40120006         6.60328515E-05
   2.41319990         6.51222508E-05
   2.42519999         6.40308062E-05
   2.43720007         6.27877598E-05
   2.44919991         6.14293313E-05
   2.46120000         5.99963023E-05
   2.47320008         5.85313937E-05
   2.48519993         5.70767297E-05
   2.49720001         5.56714331E-05
   2.50920010         5.43496135E-05
   2.52119994         5.31387195E-05
   2.53320003         5.20584690E-05
   2.54520011         5.11203216E-05
   2.55719995         5.03275369E-05
   2.56920004         4.96757602E-05
   2.58119988         4.91540741E-05
   2.59319997         4.87464058E-05
   2.60520005         4.84332195E-05
   2.61719990         4.81932875E-05
   2.62919998         4.80054732E-05
   2.64120007         4.78504080E-05
   2.65319991         4.77118701E-05
   2.66520000         4.75779052E-05
   2.67720008         4.74415065E-05
   2.68919992         4.73009022E-05
   2.70120001         4.71593958E-05
   2.71320009         4.70248233E-05
   2.72519994         4.69086335E-05
   2.73720002         4.68247017E-05
   2.74920011         4.67879727E-05
   2.76119995         4.68129765E-05
   2.77320004         4.69124207E-05
   2.78520012         4.70958657E-05
   2.79719996         4.73686632E-05
   2.80920005         4.77311987E-05
   2.82119989         4.81785210E-05
   2.83319998         4.87003454E-05
   2.84520006         4.92814979E-05
   2.85719991         4.99027810E-05
   2.86919999         5.05421340E-05
   2.88120008         5.11760991E-05
   2.89319992         5.17814733E-05
   2.90520000         5.23369999E-05
   2.91720009         5.28250384E-05
   2.92919993         5.32330887E-05
   2.94120002         5.35549989E-05
   2.95320010         5.37918495E-05
   2.96519995         5.39524081E-05
   2.97720003         5.40530673E-05
   2.98920012         5.41173431E-05
   3.00119996         5.41748450E-05
   3.01320004         5.42598536E-05
   3.02519989         5.44095383E-05
   3.03719997         5.46618976E-05
   3.04920006         5.50535806E-05
   3.06119990         5.56177038E-05
   3.07319999         5.63817484E-05
   3.08520007         5.73657198E-05
   3.09719992         5.85806265E-05
   3.10920000         6.00274143E-05
   3.12120008         6.16963735E-05
   3.13319993         6.35670658E-05
   3.14520001         6.56088232E-05
   3.15720010         6.77816861E-05
   3.16919994         7.00378805E-05
   3.18120003         7.23236226E-05
   3.19320011         7.45812576E-05
   3.20519996         7.67515739E-05
   3.21720004         7.87762619E-05
   3.22919989         8.06003009E-05
   3.24119997         8.21742724E-05
   3.25320005         8.34564489E-05
   3.26519990         8.44145907E-05
   3.27719998         8.50273791E-05
   3.28920007         8.52853627E-05
   3.30119991         8.51915393E-05
   3.31320000         8.47613846E-05
   3.32520008         8.40224093E-05
   3.33719993         8.30132558E-05
   3.34920001         8.17823457E-05
   3.36120009         8.03861767E-05
   3.37319994         7.88872567E-05
   3.38520002         7.73518695E-05
   3.39720011         7.58476381E-05
   3.40919995         7.44410499E-05
   3.42120004         7.31950786E-05
   3.43319988         7.21668766E-05
   3.44519997         7.14057678E-05
   3.45720005         7.09515734E-05
   3.46919990         7.08332736E-05
   3.48119998         7.10681488E-05
   3.49320006         7.16614013E-05
   3.50519991         7.26062353E-05
   3.51719999         7.38844101E-05
   3.52920008         7.54672365E-05
   3.54119992         7.73169450E-05
   3.55320001         7.93882864E-05
   3.56520009         8.16304746E-05
   3.57719994         8.39891363E-05
   3.58920002         8.64083486E-05
   3.60120010         8.88325376E-05
   3.61319995         9.12083560E-05
   3.62520003         9.34862182E-05
   3.63720012         9.56216390E-05
   3.64919996         9.75762523E-05
   3.66120005         9.93184731E-05
   3.67319989         1.00823927E-04
   3.68519998         1.02075508E-04
   3.69720006         1.03063219E-04
   3.70919991         1.03783772E-04
   3.72119999         1.04240004E-04
   3.73320007         1.04440223E-04
   3.74519992         1.04397397E-04
   3.75720000         1.04128383E-04
   3.76920009         1.03653139E-04
   3.78119993         1.02993959E-04
   3.79320002         1.02174767E-04
   3.80520010         1.01220474E-04
   3.81719995         1.00156394E-04
   3.82920003         9.90077388E-05
   3.84120011         9.77990712E-05
   3.85319996         9.65538857E-05
   3.86520004         9.52941191E-05
   3.87719989         9.40397658E-05
   3.88919997         9.28084046E-05
   3.90120006         9.16149147E-05
   3.91319990         9.04711342E-05
   3.92519999         8.93856923E-05
   3.93720007         8.83639150E-05
   3.94919991         8.74079706E-05
   3.96120000         8.65171605E-05
   3.97320008         8.56883489E-05
   3.98519993         8.49167627E-05
   3.99720001         8.41967267E-05
   4.00920010         8.35227620E-05
   4.02120018         8.28905977E-05
   4.03319979         8.22982329E-05
   4.04519987         8.17469336E-05
   4.05719995         8.12419385E-05
   4.06920004         8.07929537E-05
   4.08120012         8.04142546E-05
   4.09320021         8.01243004E-05
   4.10519981         7.99449263E-05
   4.11719990         7.99000773E-05
   4.12919998         8.00140624E-05
   4.14120007         8.03095681E-05
   4.15320015         8.08053883E-05
   4.16520023         8.15142193E-05
   4.17719984         8.24404633E-05
   4.18919992         8.35784522E-05
   4.20120001         8.49111020E-05
   4.21320009         8.64092435E-05
   4.22520018         8.80316002E-05
   4.23719978         8.97256687E-05
   4.24919987         9.14293560E-05
   4.26119995         9.30733804E-05
   4.27320004         9.45842839E-05
   4.28520012         9.58879973E-05
   4.29720020         9.69135726E-05
   4.30919981         9.75970470E-05
   4.32119989         9.78850803E-05
   4.33319998         9.77380842E-05
   4.34520006         9.71327972E-05
   4.35720015         9.60639591E-05
   4.36920023         9.45450738E-05
   4.38119984         9.26081557E-05
   4.39319992         9.03025502E-05
   4.40520000         8.76927952E-05
   4.41720009         8.48557756E-05
   4.42920017         8.18772533E-05
   4.44119978         7.88480829E-05
   4.45319986         7.58602400E-05
   4.46519995         7.30030079E-05
   4.47720003         7.03594269E-05
   4.48920012         6.80032608E-05
   4.50120020         6.59966026E-05
   4.51319981         6.43881867E-05
   4.52519989         6.32124793E-05
   4.53719997         6.24894965E-05
   4.54920006         6.22253356E-05
   4.56120014         6.24132153E-05
   4.57320023         6.30349823E-05
   4.58519983         6.40628859E-05
   4.59719992         6.54614341E-05
   4.60920000         6.71892340E-05
   4.62120008         6.92006724E-05
   4.63320017         7.14473281E-05
   4.64519978         7.38791277E-05
   4.65719986         7.64451397E-05
   4.66919994         7.90941704E-05
   4.68120003         8.17750042E-05
   4.69320011         8.44366150E-05
   4.70520020         8.70282456E-05
   4.71719980         8.94995610E-05
   4.72919989         9.18009100E-05
   4.74119997         9.38837766E-05
   4.75320005         9.57014854E-05
   4.76520014         9.72101770E-05
   4.77720022         9.83700302E-05
   4.78919983         9.91466804E-05
   4.80119991         9.95127630E-05
   4.81320000         9.94494985E-05
   4.82520008         9.89481559E-05
   4.83720016         9.80112673E-05
   4.84919977         9.66535226E-05
   4.86119986         9.49021487E-05
   4.87319994         9.27967849E-05
   4.88520002         9.03887267E-05
   4.89720011         8.77395505E-05
   4.90920019         8.49192147E-05
   4.92119980         8.20035784E-05
   4.93319988         7.90715712E-05
   4.94519997         7.62021373E-05
   4.95720005         7.34709756E-05
   4.96920013         7.09474625E-05
   4.98120022         6.86917410E-05
   4.99319983         6.67522545E-05
   5.00519991         6.51638111E-05
   5.01719999         6.39462814E-05
   5.02920008         6.31040966E-05
   5.04120016         6.26264155E-05
   5.05319977         6.24881141E-05
   5.06519985         6.26514520E-05
   5.07719994         6.30683062E-05
   5.08920002         6.36829209E-05
   5.10120010         6.44349057E-05
   5.11320019         6.52624003E-05
   5.12519979         6.61052036E-05
   5.13719988         6.69076835E-05
   5.14919996         6.76213240E-05
   5.16120005         6.82068348E-05
   5.17320013         6.86356580E-05
   5.18520021         6.88908476E-05
   5.19719982         6.89673543E-05
   5.20919991         6.88716245E-05
   5.22119999         6.86206040E-05
   5.23320007         6.82403479E-05
   5.24520016         6.77640710E-05
   5.25719976         6.72300303E-05
   5.26919985         6.66791966E-05
   5.28119993         6.61529048E-05
   5.29320002         6.56905686E-05
   5.30520010         6.53276729E-05
   5.31720018         6.50939764E-05
   5.32919979         6.50121365E-05
   5.34119987         6.50967340E-05
   5.35319996         6.53537572E-05
   5.36520004         6.57804849E-05
   5.37720013         6.63658211E-05
   5.38920021         6.70910231E-05
   5.40119982         6.79306759E-05
   5.41319990         6.88540385E-05
   5.42519999         6.98264776E-05
   5.43720007         7.08111111E-05
   5.44920015         7.17704534E-05
   5.46120024         7.26680373E-05
   5.47319984         7.34699570E-05
   5.48519993         7.41463155E-05
   5.49720001         7.46724327E-05
   5.50920010         7.50298350E-05
   5.52120018         7.52070264E-05
   5.53319979         7.51999323E-05
   5.54519987         7.50121253E-05
   5.55719995         7.46547230E-05
   5.56920004         7.41460244E-05
   5.58120012         7.35108551E-05
   5.59320021         7.27796942E-05
   5.60519981         7.19875461E-05
   5.61719990         7.11725734E-05
   5.62919998         7.03746045E-05
   5.64120007         6.96335046E-05
   5.65320015         6.89874141E-05
   5.66520023         6.84710685E-05
   5.67719984         6.81140373E-05
   5.68919992         6.79392542E-05
   5.70120001         6.79616132E-05
   5.71320009         6.81869642E-05
   5.72520018         6.86114145E-05
   5.73719978         6.92210306E-05
   5.74919987         6.99921075E-05
   5.76119995         7.08918451E-05
   5.77320004         7.18795491E-05
   5.78520012         7.29083476E-05
   5.79720020         7.39272509E-05
   5.80919981         7.48835810E-05
   5.82119989         7.57255984E-05
   5.83319998         7.64051656E-05
   5.84520006         7.68803002E-05
   5.85720015         7.71175692E-05
   5.86920023         7.70939441E-05
   5.88119984         7.67982565E-05
   5.89319992         7.62319178E-05
   5.90520000         7.54090288E-05
   5.91720009         7.43557539E-05
   5.92920017         7.31090549E-05
   5.94119978         7.17147705E-05
   5.95319986         7.02252801E-05
   5.96519995         6.86968633E-05
   5.97720003         6.71868402E-05
   5.98920012         6.57508572E-05
   6.00120020         6.44402826E-05
   6.01319981         6.33000891E-05
   6.02519989         6.23671949E-05
   6.03719997         6.16693796E-05
   6.04920006         6.12248768E-05
   6.06120014         6.10425341E-05
   6.07320023         6.11225114E-05
   6.08519983         6.14574310E-05
   6.09719992         6.20338033E-05
   6.10920000         6.28335620E-05
   6.12120008         6.38356360E-05
   6.13320017         6.50173170E-05
   6.14519978         6.63553146E-05
   6.15719986         6.78265351E-05
   6.16919994         6.94083719E-05
   6.18120003         7.10786117E-05
   6.19320011         7.28150189E-05
   6.20520020         7.45946090E-05
   6.21719980         7.63928329E-05
   6.22919989         7.81826893E-05
   6.24119997         7.99340633E-05
   6.25320005         8.16132815E-05
   6.26520014         8.31831348E-05
   6.27720022         8.46032926E-05
   6.28919983         8.58313288E-05
   6.30119991         8.68241841E-05
   6.31320000         8.75400292E-05
   6.32520008         8.79405052E-05
   6.33720016         8.79930667E-05
   6.34919977         8.76733029E-05
   6.36119986         8.69670839E-05
   6.37319994         8.58722997E-05
   6.38520002         8.44000751E-05
   6.39720011         8.25753377E-05
   6.40920019         8.04366064E-05
   6.42119980         7.80350529E-05
   6.43319988         7.54328212E-05
   6.44519997         7.27005972E-05
   6.45720005         6.99147422E-05
   6.46920013         6.71539092E-05
   6.48120022         6.44956017E-05
   6.49319983         6.20126302E-05
   6.50519991         5.97699363E-05
   6.51719999         5.78217259E-05
   6.52920008         5.62093846E-05
   6.54120016         5.49600009E-05
   6.55319977         5.40858200E-05
   6.56519985         5.35845065E-05
   6.57719994         5.34402316E-05
   6.58920002         5.36254811E-05
   6.60120010         5.41034569E-05
   6.61320019         5.48308781E-05
   6.62519979         5.57609965E-05
   6.63719988         5.68466166E-05
   6.64919996         5.80429078E-05
   6.66120005         5.93098193E-05
   6.67320013         6.06139511E-05
   6.68520021         6.19297571E-05
   6.69719982         6.32399824E-05
   6.70919991         6.45353721E-05
   6.72119999         6.58137214E-05
   6.73320007         6.70782538E-05
   6.74520016         6.83355902E-05
   6.75719976         6.95935087E-05
   6.76919985         7.08586231E-05
   6.78119993         7.21341712E-05
   6.79320002         7.34182540E-05
   6.80520010         7.47025188E-05
   6.81720018         7.59715331E-05
   6.82919979         7.72028216E-05
   6.84119987         7.83676514E-05
   6.85319996         7.94325097E-05
   6.86520004         8.03610892E-05
   6.87720013         8.11167265E-05
   6.88920021         8.16650863E-05
   6.90119982         8.19768175E-05
   6.91319990         8.20299902E-05
   6.92519999         8.18121698E-05
   6.93720007         8.13218358E-05
   6.94920015         8.05690725E-05
   6.96120024         7.95754968E-05
   6.97319984         7.83732758E-05
   6.98519993         7.70034749E-05
   6.99720001         7.55136934E-05
   7.00920010         7.39552925E-05
   7.02120018         7.23803969E-05
   7.03319979         7.08388543E-05
   7.04519987         6.93754700E-05
   7.05719995         6.80276498E-05
   7.06920004         6.68237772E-05
   7.08120012         6.57821947E-05
   7.09320021         6.49111171E-05
   7.10519981         6.42092782E-05
   7.11719990         6.36673285E-05
   7.12919998         6.32697338E-05
   7.14120007         6.29971764E-05
   7.15320015         6.28289781E-05
   7.16520023         6.27455665E-05
   7.17719984         6.27305126E-05
   7.18919992         6.27721674E-05
   7.20120001         6.28645648E-05
   7.21320009         6.30076247E-05
   7.22520018         6.32066003E-05
   7.23719978         6.34708340E-05
   7.24919987         6.38120255E-05
   7.26119995         6.42420709E-05
   7.27320004         6.47708148E-05
   7.28520012         6.54039250E-05
   7.29720020         6.61410813E-05
   7.30919981         6.69746878E-05
   7.32119989         6.78893266E-05
   7.33319998         6.88619039E-05
   7.34520006         6.98626172E-05
   7.35720015         7.08566367E-05
   7.36920023         7.18063166E-05
   7.38119984         7.26738290E-05
   7.39319992         7.34239584E-05
   7.40520000         7.40267933E-05
   7.41720009         7.44600547E-05
   7.42920017         7.47109589E-05
   7.44119978         7.47772719E-05
   7.45319986         7.46676305E-05
   7.46519995         7.44009449E-05
   7.47720003         7.40050382E-05
   7.48920012         7.35145950E-05
   7.50120020         7.29685562E-05
   7.51319981         7.24072597E-05
   7.52519989         7.18694646E-05
   7.53719997         7.13896006E-05
   7.54920006         7.09954256E-05
   7.56120014         7.07061918E-05
   7.57320023         7.05316488E-05
   7.58519983         7.04717240E-05
   7.59719992         7.05170751E-05
   7.60920000         7.06502833E-05
   7.62120008         7.08476800E-05
   7.63320017         7.10816166E-05
   7.64519978         7.13228728E-05
   7.65719986         7.15431670E-05
   7.66919994         7.17174189E-05
   7.68120003         7.18256852E-05
   7.69320011         7.18545489E-05
   7.70520020         7.17979638E-05
   7.71719980         7.16574505E-05
   7.72919989         7.14417110E-05
   7.74119997         7.11656539E-05
   7.75320005         7.08490406E-05
   7.76520014         7.05148559E-05
   7.77720022         7.01874305E-05
   7.78919983         6.98907461E-05
   7.80119991         6.96467323E-05
   7.81320000         6.94739501E-05
   7.82520008         6.93866459E-05
   7.83720016         6.93941693E-05
   7.84919977         6.95009003E-05
   7.86119986         6.97065771E-05
   7.87319994         7.00069431E-05
   7.88520002         7.03946935E-05
   7.89720011         7.08605439E-05
   7.90920019         7.13943809E-05
   7.92119980         7.19862728E-05
   7.93319988         7.26273793E-05
   7.94519997         7.33105117E-05
   7.95720005         7.40304968E-05
   7.96920013         7.47840968E-05
   7.98120022         7.55697183E-05
   7.99319983         7.63867647E-05
   8.00520039         7.72347994E-05
   8.01720047         7.81126291E-05
   8.02919960         7.90172271E-05
   8.04119968         7.99429035E-05
   8.05319977         8.08804543E-05
   8.06519985         8.18167027E-05
   8.07719994         8.27343101E-05
   8.08920002         8.36119216E-05
   8.10120010         8.44247552E-05
   8.11320019         8.51454970E-05
   8.12520027         8.57455234E-05
   8.13720036         8.61963490E-05
   8.14920044         8.64712565E-05
   8.16119957         8.65468755E-05
   8.17319965         8.64046815E-05
   8.18519974         8.60323562E-05
   8.19719982         8.54247046E-05
   8.20919991         8.45842515E-05
   8.22119999         8.35213941E-05
   8.23320007         8.22540242E-05
   8.24520016         8.08067416E-05
   8.25720024         7.92096253E-05
   8.26920033         7.74966902E-05
   8.28120041         7.57041562E-05
   8.29319954         7.38685849E-05
   8.30519962         7.20250537E-05
   8.31719971         7.02055477E-05
   8.32919979         6.84376209E-05
   8.34119987         6.67434579E-05
   8.35319996         6.51394294E-05
   8.36520004         6.36361074E-05
   8.37720013         6.22387743E-05
   8.38920021         6.09483723E-05
   8.40120029         5.97627441E-05
   8.41320038         5.86781134E-05
   8.42520046         5.76905550E-05
   8.43719959         5.67974203E-05
   8.44919968         5.59984728E-05
   8.46119976         5.52966667E-05
   8.47319984         5.46984957E-05
   8.48519993         5.42137968E-05
   8.49720001         5.38551030E-05
   8.50920010         5.36365660E-05
   8.52120018         5.35724866E-05
   8.53320026         5.36756743E-05
   8.54520035         5.39557077E-05
   8.55720043         5.44173490E-05
   8.56919956         5.50591649E-05
   8.58119965         5.58725988E-05
   8.59319973         5.68415162E-05
   8.60519981         5.79423831E-05
   8.61719990         5.91449789E-05
   8.62919998         6.04137203E-05
   8.64120007         6.17094192E-05
   8.65320015         6.29913775E-05
   8.66520023         6.42196828E-05
   8.67720032         6.53574825E-05
   8.68920040         6.63730752E-05
   8.70119953         6.72416791E-05
   8.71319962         6.79466903E-05
   8.72519970         6.84804254E-05
   8.73719978         6.88442306E-05
   8.74919987         6.90479501E-05
   8.76119995         6.91089226E-05
   8.77320004         6.90504748E-05
   8.78520012         6.89000954E-05
   8.79720020         6.86874555E-05
   8.80920029         6.84424012E-05
   8.82120037         6.81930978E-05
   8.83320045         6.79644072E-05
   8.84519958         6.77766729E-05
   8.85719967         6.76448981E-05
   8.86919975         6.75784613E-05
   8.88119984         6.75811680E-05
   8.89319992         6.76518393E-05
   8.90520000         6.77851203E-05
   8.91720009         6.79725490E-05
   8.92920017         6.82037426E-05
   8.94120026         6.84675542E-05
   8.95320034         6.87531501E-05
   8.96520042         6.90508969E-05
   8.97719955         6.93529728E-05
   8.98919964         6.96537390E-05
   9.00119972         6.99498050E-05
   9.01319981         7.02398393E-05
   9.02519989         7.05241837E-05
   9.03719997         7.08042498E-05
   9.04920006         7.10819004E-05
   9.06120014         7.13587506E-05
   9.07320023         7.16355280E-05
   9.08520031         7.19115342E-05