 -0.622799993         1.00000002E-24
 -0.610800028         1.00000002E-24
 -0.598800004         1.00000002E-24
 -0.586799979         1.00000002E-24
 -0.574800014         1.00000002E-24
 -0.562799990         1.00000002E-24
 -0.550800025         1.00000002E-24
 -0.538800001         1.00000002E-24
 -0.526799977         1.00000012E-24
 -0.514800012         1.00000022E-24
 -0.502799988         1.00000032E-24
 -0.490799993         1.00000032E-24
 -0.478799999         1.00000051E-24
 -0.466800004         1.00000179E-24
 -0.454800010         1.00000712E-24
 -0.442799985         1.00002359E-24
 -0.430799991         1.00006451E-24
 -0.418799996         1.00014300E-24
 -0.406800002         1.00024831E-24
 -0.394800007         1.00030334E-24
 -0.382800013         1.00016144E-24
 -0.370799989         9.99846586E-25
 -0.358799994         1.00044898E-24
 -0.346799999         1.00616211E-24
 -0.334800005         1.02728258E-24
 -0.322800010         1.08163371E-24
 -0.310799986         1.18694635E-24
 -0.298799992         1.32994119E-24
 -0.286799997         1.39394296E-24
 -0.274800003         1.03672909E-24
 -0.262800008        -4.49871400E-25
 -0.250800014        -4.18446495E-24
 -0.238800004        -1.14143124E-23
 -0.226799995        -2.25848353E-23
 -0.214800000        -3.54943231E-23
 -0.202800006        -4.26468082E-23
 -0.190799996        -2.87573563E-23
 -0.178800002         2.93897893E-23
 -0.166800007         1.57336414E-22
 -0.154799998         3.68045214E-22
 -0.142800003         6.36380630E-22
 -0.130799994         8.67477496E-22
 -0.118799999         8.72832460E-22
 -0.106799997         3.78286193E-22
  -9.48000029E-02    -9.06339838E-22
  -8.28000009E-02    -3.13357786E-21
  -7.07999989E-02    -6.08647775E-21
  -5.88000007E-02    -8.92574491E-21
  -4.67999987E-02    -1.00377608E-20
  -3.48000005E-02    -7.15819403E-21
  -2.28000004E-02     2.05257498E-21
  -1.08000003E-02     1.88975227E-20
   1.20000006E-03     4.21177427E-20
   1.31999999E-02     6.63802166E-20
   2.52000000E-02     8.15189014E-20
   3.72000001E-02     7.34468594E-20
   4.91999984E-02     2.75215268E-20
   6.12000003E-02    -6.54420517E-20
   7.32000023E-02    -2.01366910E-19
   8.51999968E-02    -3.55500385E-19
   9.71999988E-02    -4.78753010E-19
  0.109200001        -5.01605942E-19
  0.121200003        -3.48549689E-19
  0.133200005         3.64782288E-20
  0.145199999         6.57182279E-19
  0.157199994         1.43273958E-18
  0.169200003         2.17858859E-18
  0.181199998         2.61393499E-18
  0.193200007         2.40719443E-18
  0.205200002         1.26303138E-18
  0.217199996        -9.57620274E-19
  0.229200006        -4.10828309E-18
  0.241200000        -7.65655663E-18
  0.253199995        -1.06598013E-17
  0.265199989        -1.18624301E-17
  0.277200013        -9.94362086E-18
  0.289200008        -3.91027632E-18
  0.301200002         6.41936203E-18
  0.313199997         1.99527561E-17
  0.325199991         3.40419564E-17
  0.337199986         4.45674856E-17
  0.349200010         4.65420881E-17
  0.361200005         3.52927031E-17
  0.373199999         8.11184180E-18
  0.385199994        -3.39464964E-17
  0.397199988        -8.46618629E-17
  0.409200013        -1.32294423E-16
  0.421200007        -1.60894385E-16
  0.433200002        -1.53588739E-16
  0.445199996        -9.76118452E-17
  0.457199991         9.86890908E-18
  0.469199985         1.56773821E-16
  0.481200010         3.14017401E-16
  0.493200004         4.38173002E-16
  0.505200028         4.79858299E-16
  0.517199993         3.97191801E-16
  0.529200017         1.71672522E-16
  0.541199982        -1.77959743E-16
  0.553200006        -5.89190454E-16
  0.565199971        -9.61119603E-16
  0.577199996        -1.17381466E-15
  0.589200020        -1.11957480E-15
  0.601199985        -7.39416035E-16
  0.613200009        -5.43856099E-17
  0.625199974         8.19848907E-16
  0.637199998         1.68420294E-15
  0.649200022         2.29598297E-15
  0.661199987         2.43132401E-15
  0.673200011         1.95541960E-15
  0.685199976         8.79857115E-16
  0.697200000        -6.13724022E-16
  0.709200025        -2.19749569E-15
  0.721199989        -3.46965532E-15
  0.733200014        -4.06006990E-15
  0.745199978        -3.74094346E-15
  0.757200003        -2.50802453E-15
  0.769200027        -6.02633290E-16
  0.781199992         1.53951224E-15
  0.793200016         3.40384721E-15
  0.805199981         4.54517329E-15
  0.817200005         4.72205537E-15
  0.829200029         3.97079051E-15
  0.841199994         2.58893439E-15
  0.853200018         1.02781021E-15
  0.865199983        -2.73387348E-16
  0.877200007        -1.05432954E-15
  0.889199972        -1.33723230E-15
  0.901199996        -1.42081127E-15
  0.913200021        -1.75512310E-15
  0.925199986        -2.73365865E-15
  0.937200010        -4.47674362E-15
  0.949199975        -6.69414246E-15
  0.961199999        -8.69605274E-15
  0.973200023        -9.57298595E-15
  0.985199988        -8.50110980E-15
  0.997200012        -5.07321321E-15
   1.00919998         4.70139443E-16
   1.02119994         7.21479456E-15
   1.03320003         1.37934259E-14
   1.04519999         1.88020342E-14
   1.05719995         2.12764885E-14
   1.06920004         2.10467596E-14
   1.08120000         1.88046430E-14
   1.09319997         1.58072831E-14
   1.10520005         1.32722211E-14
   1.11720002         1.16569708E-14
   1.12919998         1.01055808E-14
   1.14119995         6.34341068E-15
   1.15320003        -2.80672372E-15
   1.16520000        -2.03096444E-14
   1.17719996        -4.74551632E-14
   1.18920004        -8.24853423E-14
   1.20120001        -1.19821498E-13
   1.21319997        -1.50314304E-13
   1.22520006        -1.62698522E-13
   1.23720002        -1.46091133E-13
   1.24919999        -9.30247903E-14
   1.26119995        -2.26519480E-15
   1.27320004         1.19388345E-13
   1.28520000         2.56940058E-13
   1.29719996         3.88915435E-13
   1.30920005         4.90723998E-13
   1.32120001         5.38987474E-13
   1.33319998         5.15883831E-13
   1.34519994         4.12543887E-13
   1.35720003         2.30803766E-13
   1.36919999        -1.69229390E-14
   1.38119996        -3.09369690E-13
   1.39320004        -6.19051793E-13
   1.40520000        -9.14976428E-13
   1.41719997        -1.16476132E-12
   1.42920005        -1.33593321E-12
   1.44120002        -1.39673548E-12
   1.45319998        -1.31723517E-12
   1.46519995        -1.07169221E-12
   1.47720003        -6.42891664E-13
   1.48920000        -2.84743915E-14
   1.50119996         7.51631830E-13
   1.51320004         1.64847216E-12
   1.52520001         2.58037038E-12
   1.53719997         3.43458226E-12
   1.54920006         4.07582995E-12
   1.56120002         4.36187588E-12
   1.57319999         4.16459228E-12
   1.58519995         3.39343375E-12
   1.59720004         2.01721777E-12
   1.60920000         8.00205036E-14
   1.62119997        -2.29213393E-12
   1.63320005        -4.89548723E-12
   1.64520001        -7.46339362E-12
   1.65719998        -9.68977069E-12
   1.66919994        -1.12580518E-11
   1.68120003        -1.18723711E-11
   1.69319999        -1.12883661E-11
   1.70519996        -9.34207572E-12
   1.71720004        -5.97637087E-12
   1.72920001        -1.26454554E-12
   1.74119997         4.56999629E-12
   1.75320005         1.11407420E-11
   1.76520002         1.78964586E-11
   1.77719998         2.41371229E-11
   1.78919995         2.90535044E-11
   1.80120003         3.17943449E-11
   1.81320000         3.15606673E-11
   1.82519996         2.77208482E-11
   1.83720005         1.99335704E-11
   1.84920001         8.26066125E-12
   1.86119998        -6.75072108E-12
   1.87320006        -2.40359156E-11
   1.88520002        -4.20448572E-11
   1.89719999        -5.88444155E-11
   1.90919995        -7.22869611E-11
   1.92120004        -8.02313910E-11
   1.93320000        -8.07948222E-11
   1.94519997        -7.26083846E-11
   1.95720005        -5.50489446E-11
   1.96920002        -2.84204396E-11
   1.98119998         5.93803435E-12
   1.99319994         4.56353601E-11
   2.00519991         8.73152453E-11
   2.01719999         1.26853597E-10
   2.02920008         1.59665933E-10
   2.04119992         1.81115595E-10
   2.05320001         1.87001220E-10
   2.06520009         1.74088743E-10
   2.07719994         1.40637516E-10
   2.08920002         8.68576461E-11
   2.10120010         1.52283550E-11
   2.11319995        -6.93916036E-11
   2.12520003        -1.59916871E-10
   2.13720012        -2.47482146E-10
   2.14919996        -3.22177535E-10
   2.16120005        -3.74026421E-10
   2.17319989        -3.94118821E-10
   2.18519998        -3.75779741E-10
   2.19720006        -3.15631854E-10
   2.20919991        -2.14410087E-10
   2.22119999        -7.74006345E-11
   2.23320007         8.55876689E-11
   2.24519992         2.60765437E-10
   2.25720000         4.31409908E-10
   2.26920009         5.79353732E-10
   2.28119993         6.86800505E-10
   2.29320002         7.38312966E-10
   2.30520010         7.22786664E-10
   2.31719995         6.35209829E-10
   2.32920003         4.78003914E-10
   2.34120011         2.61755700E-10
   2.35319996         5.17965011E-12
   2.36520004        -2.65803601E-10
   2.37719989        -5.19919496E-10
   2.38919997        -7.23286431E-10
   2.40120006        -8.42922787E-10
   2.41319990        -8.50775395E-10
   2.42519999        -7.27929717E-10
   2.43720007        -4.68581896E-10
   2.44919991        -8.33021499E-11
   2.46120000         3.98880678E-10
   2.47320008         9.29992250E-10
   2.48519993         1.44453194E-09
   2.49720001         1.86294336E-09
   2.50920010         2.09707895E-09
   2.52119994         2.05737982E-09
   2.53320003         1.66126790E-09
   2.54520011         8.42041437E-10
   2.55719995        -4.42593934E-10
   2.56920004        -2.20334395E-09
   2.58119988        -4.41453007E-09
   2.59319997        -7.01271352E-09
   2.60520005        -9.89970683E-09
   2.61719990        -1.29508191E-08
   2.62919998        -1.60290181E-08
   2.64120007        -1.90054532E-08
   2.65319991        -2.17865423E-08
   2.66520000        -2.43474609E-08
   2.67720008        -2.67715805E-08
   2.68919992        -2.92949469E-08
   2.70120001        -3.23544889E-08
   2.71320009        -3.66383119E-08
   2.72519994        -4.31359375E-08
   2.73720002        -5.31861168E-08
   2.74920011        -6.85195403E-08
   2.76119995        -9.12936784E-08
   2.77320004        -1.24116923E-07
   2.78520012        -1.70059195E-07
   2.79719996        -2.32646684E-07
   2.80920005        -3.15838264E-07
   2.82119989        -4.23982158E-07
   2.83319998        -5.61751392E-07
   2.84520006        -7.34057835E-07
   2.85719991        -9.45944635E-07
   2.86919999        -1.20245875E-06
   2.88120008        -1.50850553E-06
   2.89319992        -1.86868749E-06
   2.90520000        -2.28713338E-06
   2.91720009        -2.76731953E-06
   2.92919993        -3.31189221E-06
   2.94120002        -3.92249558E-06
   2.95320010        -4.59961211E-06
   2.96519995        -5.34242236E-06
   2.97720003        -6.14869350E-06
   2.98920012        -7.01469753E-06
   3.00119996        -7.93517120E-06
   3.01320004        -8.90331557E-06
   3.02519989        -9.91084471E-06
   3.03719997        -1.09480825E-05
   3.04920006        -1.20041050E-05
   3.06119990        -1.30669287E-05
   3.07319999        -1.41237515E-05
   3.08520007        -1.51612157E-05
   3.09719992        -1.61657172E-05
   3.10920000        -1.71237243E-05
   3.12120008        -1.80221268E-05
   3.13319993        -1.88485537E-05
   3.14520001        -1.95917273E-05
   3.15720010        -2.02417596E-05
   3.16919994        -2.07904286E-05
   3.18120003        -2.12314153E-05
   3.19320011        -2.15604850E-05
   3.20519996        -2.17756078E-05
   3.21720004        -2.18770274E-05
   3.22919989        -2.18672449E-05
   3.24119997        -2.17509369E-05
   3.25320005        -2.15348318E-05
   3.26519990        -2.12274863E-05
   3.27719998        -2.08390447E-05
   3.28920007        -2.03809286E-05
   3.30119991        -1.98654980E-05
   3.31320000        -1.93057003E-05
   3.32520008        -1.87146943E-05
   3.33719993        -1.81055002E-05
   3.34920001        -1.74906454E-05
   3.36120009        -1.68818424E-05
   3.37319994        -1.62897322E-05
   3.38520002        -1.57236354E-05
   3.39720011        -1.51913982E-05
   3.40919995        -1.46992670E-05
   3.42120004        -1.42518402E-05
   3.43319988        -1.38520718E-05
   3.44519997        -1.35013352E-05
   3.45720005        -1.31995303E-05
   3.46919990        -1.29452364E-05
   3.48119998        -1.27358999E-05
   3.49320006        -1.25680381E-05
   3.50519991        -1.24374646E-05
   3.51719999        -1.23395130E-05
   3.52920008        -1.22692563E-05
   3.54119992        -1.22217170E-05
   3.55320001        -1.21920493E-05
   3.56520009        -1.21757030E-05
   3.57719994        -1.21685516E-05
   3.58920002        -1.21669964E-05
   3.60120010        -1.21680287E-05
   3.61319995        -1.21692710E-05
   3.62520003        -1.21689864E-05
   3.63720012        -1.21660514E-05
   3.64919996        -1.21599160E-05
   3.66120005        -1.21505427E-05
   3.67319989        -1.21383182E-05
   3.68519998        -1.21239591E-05
   3.69720006        -1.21084158E-05
   3.70919991        -1.20927507E-05
   3.72119999        -1.20780369E-05
   3.73320007        -1.20652448E-05
   3.74519992        -1.20551395E-05
   3.75720000        -1.20481955E-05
   3.76920009        -1.20445175E-05
   3.78119993        -1.20437926E-05
   3.79320002        -1.20452651E-05
   3.80520010        -1.20477371E-05
   3.81719995        -1.20496097E-05
   3.82920003        -1.20489512E-05
   3.84120011        -1.20436043E-05
   3.85319996        -1.20313198E-05
   3.86520004        -1.20099212E-05
   3.87719989        -1.19774759E-05
   3.88919997        -1.19324850E-05
   3.90120006        -1.18740609E-05
   3.91319990        -1.18020780E-05
   3.92519999        -1.17173058E-05
   3.93720007        -1.16214733E-05
   3.94919991        -1.15172879E-05
   3.96120000        -1.14083805E-05
   3.97320008        -1.12991775E-05
   3.98519993        -1.11947038E-05
   3.99720001        -1.11003183E-05
   4.00920010        -1.10213969E-05
   4.02120018        -1.09629827E-05
   4.03319979        -1.09294233E-05
   4.04519987        -1.09240154E-05
   4.05719995        -1.09486982E-05
   4.06920004        -1.10038009E-05
   4.08120012        -1.10878927E-05
   4.09320021        -1.11977279E-05
   4.10519981        -1.13283240E-05
   4.11719990        -1.14731565E-05
   4.12919998        -1.16244864E-05
   4.14120007        -1.17737900E-05
   4.15320015        -1.19122806E-05
   4.16520023        -1.20314890E-05
   4.17719984        -1.21238763E-05
   4.18919992        -1.21834255E-05
   4.20120001        -1.22061865E-05
   4.21320009        -1.21907287E-05
   4.22520018        -1.21384719E-05
   4.23719978        -1.20538662E-05
   4.24919987        -1.19444067E-05
   4.26119995        -1.18204698E-05
   4.27320004        -1.16949786E-05
   4.28520012        -1.15829089E-05
   4.29720020        -1.15006615E-05
   4.30919981        -1.14653340E-05
   4.32119989        -1.14939257E-05
   4.33319998        -1.16025285E-05
   4.34520006        -1.18055377E-05
   4.35720015        -1.21149296E-05
   4.36920023        -1.25396555E-05
   4.38119984        -1.30851631E-05
   4.39319992        -1.37530897E-05
   4.40520000        -1.45411359E-05
   4.41720009        -1.54431200E-05
   4.42920017        -1.64492085E-05
   4.44119978        -1.75463192E-05
   4.45319986        -1.87186542E-05
   4.46519995        -1.99483511E-05
   4.47720003        -2.12162067E-05
   4.48920012        -2.25024178E-05
   4.50120020        -2.37873519E-05
   4.51319981        -2.50522535E-05
   4.52519989        -2.62798785E-05
   4.53719997        -2.74550312E-05
   4.54920006        -2.85649730E-05
   4.56120014        -2.95996961E-05
   4.57320023        -3.05520371E-05
   4.58519983        -3.14176687E-05
   4.59719992        -3.21949374E-05
   4.60920000        -3.28845781E-05
   4.62120008        -3.34893411E-05
   4.63320017        -3.40135593E-05
   4.64519978        -3.44626351E-05
   4.65719986        -3.48425165E-05
   4.66919994        -3.51592280E-05
   4.68120003        -3.54183940E-05
   4.69320011        -3.56248602E-05
   4.70520020        -3.57823701E-05
   4.71719980        -3.58933685E-05
   4.72919989        -3.59588885E-05
   4.74119997        -3.59785590E-05
   4.75320005        -3.59507067E-05
   4.76520014        -3.58725629E-05
   4.77720022        -3.57405333E-05
   4.78919983        -3.55505472E-05
   4.80119991        -3.52984171E-05
   4.81320000        -3.49802613E-05
   4.82520008        -3.45928747E-05
   4.83720016        -3.41340892E-05
   4.84919977        -3.36031117E-05
   4.86119986        -3.30007679E-05
   4.87319994        -3.23296881E-05
   4.88520002        -3.15944199E-05
   4.89720011        -3.08014423E-05
   4.90920019        -2.99591138E-05
   4.92119980        -2.90775151E-05
   4.93319988        -2.81682387E-05
   4.94519997        -2.72441139E-05
   4.95720005        -2.63188522E-05
   4.96920013        -2.54066708E-05
   4.98120022        -2.45218853E-05
   4.99319983        -2.36784690E-05
   5.00519991        -2.28896151E-05
   5.01719999        -2.21673126E-05
   5.02920008        -2.15219206E-05
   5.04120016        -2.09618083E-05
   5.05319977        -2.04930129E-05
   5.06519985        -2.01189869E-05
   5.07719994        -1.98403959E-05
   5.08920002        -1.96550227E-05
   5.10120010        -1.95577577E-05
   5.11320019        -1.95407138E-05
   5.12519979        -1.95934244E-05
   5.13719988        -1.97031877E-05
   5.14919996        -1.98554972E-05
   5.16120005        -2.00345748E-05
   5.17320013        -2.02239917E-05
   5.18520021        -2.04073349E-05
   5.19719982        -2.05689084E-05
   5.20919991        -2.06944314E-05
   5.22119999        -2.07716967E-05
   5.23320007        -2.07911526E-05
   5.24520016        -2.07463690E-05
   5.25719976        -2.06343811E-05
   5.26919985        -2.04558473E-05
   5.28119993        -2.02150495E-05
   5.29320002        -1.99196929E-05
   5.30520010        -1.95805424E-05
   5.31720018        -1.92108673E-05
   5.32919979        -1.88257800E-05
   5.34119987        -1.84414239E-05
   5.35319996        -1.80741208E-05
   5.36520004        -1.77394959E-05
   5.37720013        -1.74515990E-05
   5.38920021        -1.72221171E-05
   5.40119982        -1.70596904E-05
   5.41319990        -1.69693849E-05
   5.42519999        -1.69523191E-05
   5.43720007        -1.70055137E-05
   5.44920015        -1.71219290E-05
   5.46120024        -1.72907057E-05
   5.47319984        -1.74976103E-05
   5.48519993        -1.77256152E-05
   5.49720001        -1.79556428E-05
   5.50920010        -1.81673840E-05
   5.52120018        -1.83401789E-05
   5.53319979        -1.84539076E-05
   5.54519987        -1.84898363E-05
   5.55719995        -1.84313958E-05
   5.56920004        -1.82648491E-05
   5.58120012        -1.79798244E-05
   5.59320021        -1.75696659E-05
   5.60519981        -1.70316380E-05
   5.61719990        -1.63669447E-05
   5.62919998        -1.55805810E-05
   5.64120007        -1.46810389E-05
   5.65320015        -1.36798772E-05
   5.66520023        -1.25912056E-05
   5.67719984        -1.14310878E-05
   5.68919992        -1.02169279E-05
   5.70120001        -8.96684469E-06
   5.71320009        -7.69909366E-06
   5.72520018        -6.43152998E-06
   5.73719978        -5.18117122E-06
   5.74919987        -3.96383348E-06
   5.76119995        -2.79387314E-06
   5.77320004        -1.68401812E-06
   5.78520012        -6.45286832E-07
   5.79720020         3.13028892E-07
   5.80919981         1.18332673E-06
   5.82119989         1.95962957E-06
   5.83319998         2.63751235E-06
   5.84520006         3.21403854E-06
   5.85720015         3.68772203E-06
   5.86920023         4.05852143E-06
   5.88119984         4.32787465E-06
   5.89319992         4.49876097E-06
   5.90520000         4.57578881E-06
   5.91720009         4.56528460E-06
   5.92920017         4.47537195E-06
   5.94119978         4.31600483E-06
   5.95319986         4.09894756E-06
   5.96519995         3.83767156E-06
   5.97720003         3.54715871E-06
   5.98920012         3.24360326E-06
   6.00120020         2.94400797E-06
   6.01319981         2.66569373E-06
   6.02519989         2.42572855E-06
   6.03719997         2.24031101E-06
   6.04920006         2.12413693E-06
   6.06120014         2.08978554E-06
   6.07320023         2.14716306E-06
   6.08519983         2.30304386E-06
   6.09719992         2.56073463E-06
   6.10920000         2.91989090E-06
   6.12120008         3.37650340E-06
   6.13320017         3.92305901E-06
   6.14519978         4.54886867E-06
   6.15719986         5.24055667E-06
   6.16919994         5.98267115E-06
   6.18120003         6.75840010E-06
   6.19320011         7.55033716E-06
   6.20520020         8.34126604E-06
   6.21719980         9.11491588E-06
   6.22919989         9.85664065E-06
   6.24119997         1.05540003E-05
   6.25320005         1.11971967E-05
   6.26520014         1.17793606E-05
   6.27720022         1.22966740E-05
   6.28919983         1.27483290E-05
   6.30119991         1.31363313E-05
   6.31320000         1.34651746E-05
   6.32520008         1.37414218E-05
   6.33720016         1.39731910E-05
   6.34919977         1.41696219E-05
   6.36119986         1.43403240E-05
   6.37319994         1.44948499E-05
   6.38520002         1.46422099E-05
   6.39720011         1.47904657E-05
   6.40920019         1.49463885E-05
   6.42119980         1.51152135E-05
   6.43319988         1.53004694E-05
   6.44519997         1.55038852E-05
   6.45720005         1.57253671E-05
   6.46920013         1.59630272E-05
   6.48120022         1.62132474E-05
   6.49319983         1.64707708E-05
   6.50519991         1.67288290E-05
   6.51719999         1.69792529E-05
   6.52920008         1.72126329E-05
   6.54120016         1.74184734E-05
   6.55319977         1.75853929E-05
   6.56519985         1.77013499E-05
   6.57719994         1.77539387E-05
   6.58920002         1.77307284E-05
   6.60120010         1.76196791E-05
   6.61320019         1.74096131E-05
   6.62519979         1.70907479E-05
   6.63719988         1.66552600E-05
   6.64919996         1.60978598E-05
   6.66120005         1.54163372E-05
   6.67320013         1.46120592E-05
   6.68520021         1.36903382E-05
   6.69719982         1.26606656E-05
   6.70919991         1.15367557E-05
   6.72119999         1.03363736E-05
   6.73320007         9.08093170E-06
   6.74520016         7.79484344E-06
   6.75719976         6.50466609E-06
   6.76919985         5.23804056E-06
   6.78119993         4.02249816E-06
   6.79320002         2.88418278E-06
   6.80520010         1.84656642E-06
   6.81720018         9.29242049E-07
   6.82919979         1.46868913E-07
   6.84119987        -4.91651178E-07
   6.85319996        -9.83701625E-07
   6.86520004        -1.33313699E-06
   6.87720013        -1.55009968E-06
   6.88920021        -1.65046765E-06
   6.90119982        -1.65495260E-06
   6.91319990        -1.58790112E-06
   6.92519999        -1.47586672E-06
   6.93720007        -1.34604068E-06
   6.94920015        -1.22464121E-06
   6.96120024        -1.13536453E-06
   6.97319984        -1.09800044E-06
   6.98519993        -1.12729970E-06
   6.99720001        -1.23217171E-06
   7.00920010        -1.41526141E-06
   7.02120018        -1.67293376E-06
   7.03319979        -1.99566352E-06
   7.04519987        -2.36880351E-06
   7.05719995        -2.77367531E-06
   7.06920004        -3.18891057E-06
   7.08120012        -3.59195246E-06
   7.09320021        -3.96061614E-06
   7.10519981        -4.27460873E-06
   7.11719990        -4.51691312E-06
   7.12919998        -4.67494920E-06
   7.14120007        -4.74143917E-06
   7.15320015        -4.71494013E-06
   7.16520023        -4.60000456E-06
   7.17719984        -4.40697477E-06
   7.18919992        -4.15142722E-06
   7.20120001        -3.85331214E-06
   7.21320009        -3.53583505E-06
   7.22520018        -3.22416167E-06
   7.23719978        -2.94401048E-06
   7.24919987        -2.72022021E-06
   7.26119995        -2.57536612E-06
   7.27320004        -2.52849850E-06
   7.28520012        -2.59406374E-06
   7.29720020        -2.78106359E-06
   7.30919981        -3.09248776E-06
   7.32119989        -3.52504799E-06
   7.33319998        -4.06921845E-06
   7.34520006        -4.70958776E-06
   7.35720015        -5.42549515E-06
   7.36920023        -6.19192997E-06
   7.38119984        -6.98064741E-06
   7.39319992        -7.76145316E-06
   7.40520000        -8.50359993E-06
   7.41720009        -9.17722355E-06
   7.42920017        -9.75475905E-06
   7.44119978        -1.02122685E-05
   7.45319986        -1.05305971E-05
   7.46519995        -1.06963180E-05
   7.47720003        -1.07023980E-05
   7.48920012        -1.05485460E-05
   7.50120020        -1.02412187E-05
   7.51319981        -9.79327160E-06
   7.52519989        -9.22327581E-06
   7.53719997        -8.55451617E-06
   7.54920006        -7.81373092E-06
   7.56120014        -7.02965963E-06
   7.57320023        -6.23146889E-06
   7.58519983        -5.44715704E-06
   7.59719992        -4.70202303E-06
   7.60920000        -4.01728630E-06
   7.62120008        -3.40895190E-06
   7.63320017        -2.88696947E-06
   7.64519978        -2.45475462E-06
   7.65719986        -2.10908775E-06
   7.66919994        -1.84039982E-06
   7.68120003        -1.63342770E-06
   7.69320011        -1.46819457E-06
   7.70520020        -1.32125729E-06
   7.71719980        -1.16714841E-06
   7.72919989        -9.79923698E-07
   7.74119997        -7.34730691E-07
   7.75320005        -4.09310474E-07
   7.76520014         1.46471963E-08
   7.77720022         5.50362188E-07
   7.78919983         1.20509003E-06
   7.80119991         1.97954751E-06
   7.81320000         2.86765680E-06
   7.82520008         3.85660996E-06
   7.83720016         4.92722666E-06
   7.84919977         6.05458899E-06
   7.86119986         7.20889648E-06
   7.87319994         8.35650371E-06
   7.88520002         9.46108139E-06
   7.89720011         1.04848559E-05
   7.90920019         1.13898686E-05
   7.92119980         1.21392150E-05
   7.93319988         1.26982286E-05
   7.94519997         1.30355711E-05
   7.95720005         1.31242105E-05
   7.96920013         1.29422606E-05
   7.98120022         1.24736925E-05
   7.99319983         1.17088794E-05
   8.00520039         1.06449988E-05
   8.01720047         9.28627287E-06
   8.02919960         7.64405559E-06
   8.04119968         5.73675652E-06
   8.05319977         3.58961529E-06
   8.06519985         1.23429686E-06
   8.07719994        -1.29166040E-06
   8.08920002        -3.94556901E-06
   8.10120010        -6.68047687E-06
   8.11320019        -9.44621115E-06
   8.12520027        -1.21905568E-05
   8.13720036        -1.48605723E-05
   8.14920044        -1.74040015E-05
   8.16119957        -1.97707413E-05
   8.17319965        -2.19143458E-05
   8.18519974        -2.37934873E-05
   8.19719982        -2.53733397E-05
   8.20919991        -2.66268144E-05
   8.22119999        -2.75355997E-05
   8.23320007        -2.80909226E-05
   8.24520016        -2.82940255E-05
   8.25720024        -2.81562679E-05
   8.26920033        -2.76988885E-05
   8.28120041        -2.69523553E-05
   8.29319954        -2.59553599E-05
   8.30519962        -2.47534681E-05
   8.31719971        -2.33974715E-05
   8.32919979        -2.19415033E-05
   8.34119987        -2.04410080E-05
   8.35319996        -1.89506318E-05
   8.36520004        -1.75221630E-05
   8.37720013        -1.62025754E-05
   8.38920021        -1.50322894E-05
   8.40120029        -1.40437360E-05
   8.41320038        -1.32602736E-05
   8.42520046        -1.26955247E-05
   8.43719959        -1.23531427E-05
   8.44919968        -1.22270339E-05
   8.46119976        -1.23020036E-05
   8.47319984        -1.25547986E-05
   8.48519993        -1.29554874E-05
   8.49720001        -1.34690999E-05
   8.50920010        -1.40574466E-05
   8.52120018        -1.46810244E-05
   8.53320026        -1.53009078E-05
   8.54520035        -1.58805378E-05
   8.55720043        -1.63873301E-05
   8.56919956        -1.67940179E-05
   8.58119965        -1.70796684E-05
   8.59319973        -1.72303626E-05
   8.60519981        -1.72394830E-05
   8.61719990        -1.71076408E-05
   8.62919998        -1.68422393E-05
   8.64120007        -1.64567409E-05
   8.65320015        -1.59696610E-05
   8.66520023        -1.54033605E-05
   8.67720032        -1.47827432E-05
   8.68920040        -1.41338624E-05
   8.70119953        -1.34825850E-05
   8.71319962        -1.28533266E-05
   8.72519970        -1.22679376E-05
   8.73719978        -1.17447880E-05
   8.74919987        -1.12980715E-05
   8.76119995        -1.09373605E-05
   8.77320004        -1.06674051E-05
   8.78520012        -1.04881738E-05
   8.79720020        -1.03951015E-05
   8.80920029        -1.03795410E-05
   8.82120037        -1.04293476E-05
   8.83320045        -1.05295894E-05
   8.84519958        -1.06633270E-05
   8.85719967        -1.08124314E-05
   8.86919975        -1.09584071E-05
   8.88119984        -1.10831897E-05
   8.89319992        -1.11698955E-05
   8.90520000        -1.12035150E-05
   8.91720009        -1.11715090E-05
   8.92920017        -1.10643241E-05
   8.94120026        -1.08758031E-05
   8.95320034        -1.06034922E-05
   8.96520042        -1.02488220E-05
   8.97719955        -9.81717767E-06
   8.98919964        -9.31784052E-06
   9.00119972        -8.76379818E-06
   9.01319981        -8.17143427E-06
   9.02519989        -7.56007375E-06
   9.03719997        -6.95142080E-06
   9.04920006        -6.36886944E-06
   9.06120014        -5.83671999E-06
   9.07320023        -5.37931510E-06
   9.08520031        -5.02012153E-06