 -0.622799993         1.00000002E-24
 -0.610800028         1.00000002E-24
 -0.598800004         1.00000002E-24
 -0.586799979         1.00000002E-24
 -0.574800014         1.00000002E-24
 -0.562799990         9.99999921E-25
 -0.550800025         1.00000002E-24
 -0.538800001         1.00000012E-24
 -0.526799977         1.00000022E-24
 -0.514800012         1.00000022E-24
 -0.502799988         1.00000022E-24
 -0.490799993         1.00000022E-24
 -0.478799999         1.00000002E-24
 -0.466800004         9.99998836E-25
 -0.454800010         9.99993709E-25
 -0.442799985         9.99973297E-25
 -0.430799991         9.99903976E-25
 -0.418799996         9.99700450E-25
 -0.406800002         9.99183549E-25
 -0.394800007         9.98057943E-25
 -0.382800013         9.96027020E-25
 -0.370799989         9.93313536E-25
 -0.358799994         9.92013493E-25
 -0.346799999         9.98656688E-25
 -0.334800005         1.02757426E-24
 -0.322800010         1.10248410E-24
 -0.310799986         1.24971128E-24
 -0.298799992         1.47177040E-24
 -0.286799997         1.68894903E-24
 -0.274800003         1.64762613E-24
 -0.262800008         8.28330870E-25
 -0.250800014        -1.55018514E-24
 -0.238800004        -6.25647359E-24
 -0.226799995        -1.32858881E-23
 -0.214800000        -2.04912852E-23
 -0.202800006        -2.18286979E-23
 -0.190799996        -6.10935774E-24
 -0.178800002         4.19743453E-23
 -0.166800007         1.36126330E-22
 -0.154799998         2.75967905E-22
 -0.142800003         4.28104388E-22
 -0.130799994         5.06039402E-22
 -0.118799999         3.61337548E-22
 -0.106799997        -1.94969093E-22
  -9.48000029E-02    -1.32060193E-21
  -8.28000009E-02    -3.01043034E-21
  -7.07999989E-02    -4.92293957E-21
  -5.88000007E-02    -6.22568158E-21
  -4.67999987E-02    -5.56772241E-21
  -3.48000005E-02    -1.31422066E-21
  -2.28000004E-02     7.84734211E-21
  -1.08000003E-02     2.19274934E-20
   1.20000006E-03     3.84766293E-20
   1.31999999E-02     5.16929172E-20
   2.52000000E-02     5.24524758E-20
   3.72000001E-02     2.99570600E-20
   4.91999984E-02    -2.45789966E-20
   6.12000003E-02    -1.12443055E-19
   7.32000023E-02    -2.21369378E-19
   8.51999968E-02    -3.21207803E-19
   9.71999988E-02    -3.64309625E-19
  0.109200001        -2.93450413E-19
  0.121200003        -5.86461749E-20
  0.133200005         3.58605078E-19
  0.145199999         9.18870378E-19
  0.157199994         1.50497706E-18
  0.169200003         1.91983740E-18
  0.181199998         1.91200875E-18
  0.193200007         1.23425025E-18
  0.205200002        -2.68505748E-19
  0.217199996        -2.55689282E-18
  0.229200006        -5.30737651E-18
  0.241200000        -7.87023972E-18
  0.253199995        -9.31178640E-18
  0.265199989        -8.56827262E-18
  0.277200013        -4.71802232E-18
  0.289200008         2.65467694E-18
  0.301200002         1.30712379E-17
  0.313199997         2.48549014E-17
  0.325199991         3.50501241E-17
  0.337199986         3.97062080E-17
  0.349200010         3.46235471E-17
  0.361200005         1.65609516E-17
  0.373199999        -1.52536423E-17
  0.385199994        -5.76555475E-17
  0.397199988        -1.02635902E-16
  0.409200013        -1.37587916E-16
  0.421200007        -1.47200337E-16
  0.433200002        -1.17155893E-16
  0.445199996        -3.92264664E-17
  0.457199991         8.33419076E-17
  0.469199985         2.31885222E-16
  0.481200010         3.71825441E-16
  0.493200004         4.57283919E-16
  0.505200028         4.41355755E-16
  0.517199993         2.90809387E-16
  0.529200017         1.90550484E-18
  0.541199982        -3.87649896E-16
  0.553200006        -7.96114356E-16
  0.565199971        -1.10867867E-15
  0.577199996        -1.20291850E-15
  0.589200020        -9.84912441E-16
  0.601199985        -4.27274706E-16
  0.613200009         4.03037943E-16
  0.625199974         1.33939086E-15
  0.637199998         2.14064030E-15
  0.649200022         2.54660011E-15
  0.661199987         2.35318098E-15
  0.673200011         1.48720510E-15
  0.685199976         5.61927216E-17
  0.697200000        -1.64868409E-15
  0.709200025        -3.20709014E-15
  0.721199989        -4.17464974E-15
  0.733200014        -4.21323590E-15
  0.745199978        -3.20756385E-15
  0.757200003        -1.32704355E-15
  0.769200027         9.96054948E-16
  0.781199992         3.17644873E-15
  0.793200016         4.64757237E-15
  0.805199981         5.04307662E-15
  0.817200005         4.32493414E-15
  0.829200029         2.80564142E-15
  0.841199994         1.04407017E-15
  0.853200018        -3.60615992E-16
  0.865199983        -1.00991961E-15
  0.877200007        -8.91210162E-16
  0.889199972        -4.24439951E-16
  0.901199996        -3.29248324E-16
  0.913200021        -1.33618643E-15
  0.925199986        -3.83238236E-15
  0.937200010        -7.57444644E-15
  0.949199975        -1.15989058E-14
  0.961199999        -1.44060297E-14
  0.973200023        -1.43991010E-14
  0.985199988        -1.04578194E-14
  0.997200012        -2.45069036E-15
   1.00919998         8.51907452E-15
   1.02119994         2.02715499E-14
   1.03320003         3.01160294E-14
   1.04519999         3.56715119E-14
   1.05719995         3.56644069E-14
   1.06920004         3.03901056E-14
   1.08120000         2.16065823E-14
   1.09319997         1.18163002E-14
   1.10520005         3.13272256E-15
   1.11720002        -3.86383269E-15
   1.12919998        -1.07871636E-14
   1.14119995        -2.12156512E-14
   1.15320003        -3.94283334E-14
   1.16520000        -6.83371748E-14
   1.17719996        -1.07213947E-13
   1.18920004        -1.50034688E-13
   1.20120001        -1.85239058E-13
   1.21319997        -1.97389617E-13
   1.22520006        -1.70676719E-13
   1.23720002        -9.35953314E-14
   1.24919999         3.63838632E-14
   1.26119995         2.09533102E-13
   1.27320004         4.03160686E-13
   1.28520000         5.84076787E-13
   1.29719996         7.13999281E-13
   1.30920005         7.56831989E-13
   1.32120001         6.86168245E-13
   1.33319998         4.91247722E-13
   1.34519994         1.79983849E-13
   1.35720003        -2.21518848E-13
   1.36919999        -6.72575277E-13
   1.38119996        -1.12346070E-12
   1.39320004        -1.52130175E-12
   1.40520000        -1.81492560E-12
   1.41719997        -1.95797480E-12
   1.42920005        -1.91056893E-12
   1.44120002        -1.64065300E-12
   1.45319998        -1.12656726E-12
   1.46519995        -3.62062837E-13
   1.47720003         6.36028123E-13
   1.48920000         1.81869732E-12
   1.50119996         3.09687779E-12
   1.51320004         4.33824851E-12
   1.52520001         5.37205350E-12
   1.53719997         6.00397509E-12
   1.54920006         6.04089478E-12
   1.56120002         5.32276783E-12
   1.57319999         3.75652374E-12
   1.58519995         1.34565807E-12
   1.59720004        -1.79069140E-12
   1.60920000        -5.41370811E-12
   1.62119997        -9.17769680E-12
   1.63320005        -1.26584377E-11
   1.64520001        -1.53932474E-11
   1.65719998        -1.69275358E-11
   1.66919994        -1.68627022E-11
   1.68120003        -1.49015539E-11
   1.69319999        -1.08891290E-11
   1.70519996        -4.84824377E-12
   1.71720004         2.99088684E-12
   1.72920001         1.21689585E-11
   1.74119997         2.19884909E-11
   1.75320005         3.15247863E-11
   1.76520002         3.96659650E-11
   1.77719998         4.51900080E-11
   1.78919995         4.68824077E-11
   1.80120003         4.36901834E-11
   1.81320000         3.48986014E-11
   1.82519996         2.03074276E-11
   1.83720005         3.77135009E-13
   1.84920001        -2.36861121E-11
   1.86119998        -4.99328703E-11
   1.87320006        -7.57756913E-11
   1.88520002        -9.81975473E-11
   1.89719999        -1.14047466E-10
   1.90919995        -1.20392890E-10
   1.92120004        -1.14889036E-10
   1.93320000        -9.61224433E-11
   1.94519997        -6.38887485E-11
   1.95720005        -1.93732096E-11
   1.96920002         3.47879087E-11
   1.98119998         9.45764231E-11
   1.99319994         1.54795302E-10
   2.00519991         2.09402426E-10
   2.01719999         2.51966004E-10
   2.02920008         2.76225209E-10
   2.04119992         2.76729195E-10
   2.05320001         2.49511800E-10
   2.06520009         1.92744237E-10
   2.07719994         1.07289962E-10
   2.08920002        -2.92337682E-12
   2.10120010        -1.30798275E-10
   2.11319995        -2.66296263E-10
   2.12520003        -3.97036903E-10
   2.13720012        -5.09257581E-10
   2.14919996        -5.89072513E-10
   2.16120005        -6.23920082E-10
   2.17319989        -6.04046868E-10
   2.18519998        -5.23858568E-10
   2.19720006        -3.82968962E-10
   2.20919991        -1.86805862E-10
   2.22119999         5.33219302E-11
   2.23320007         3.20733329E-10
   2.24519992         5.94436111E-10
   2.25720000         8.50659154E-10
   2.26920009         1.06473153E-09
   2.28119993         1.21315147E-09
   2.29320002         1.27567645E-09
   2.30520010         1.23726107E-09
   2.31719995         1.08968290E-09
   2.32920003         8.32713787E-10
   2.34120011         4.74719652E-10
   2.35319996         3.26130477E-11
   2.36520004        -4.68879768E-10
   2.37719989        -9.98616745E-10
   2.38919997        -1.52102297E-09
   2.40120006        -1.99851624E-09
   2.41319990        -2.39417242E-09
   2.42519999        -2.67438960E-09
   2.43720007        -2.81128809E-09
   2.44919991        -2.78460055E-09
   2.46120000        -2.58285882E-09
   2.47320008        -2.20376117E-09
   2.48519993        -1.65371195E-09
   2.49720001        -9.46636658E-10
   2.50920010        -1.02257786E-10
   2.52119994         8.55901849E-10
   2.53320003         1.90252036E-09
   2.54520011         3.01224090E-09
   2.55719995         4.16105017E-09
   2.56920004         5.32724931E-09
   2.58119988         6.49215348E-09
   2.59319997         7.64080532E-09
   2.60520005         8.76314044E-09
   2.61719990         9.85615767E-09
   2.62919998         1.09276854E-08
   2.64120007         1.20024009E-08
   2.65319991         1.31306876E-08
   2.66520000         1.44008530E-08
   2.67720008         1.59550968E-08
   2.68919992         1.80094517E-08
   2.70120001         2.08776836E-08
   2.71320009         2.49988599E-08
   2.72519994         3.09679891E-08
   2.73720002         3.95687927E-08
   2.74920011         5.18072234E-08
   2.76119995         6.89439972E-08
   2.77320004         9.25240613E-08
   2.78520012         1.24400600E-07
   2.79719996         1.66750937E-07
   2.80920005         2.22081596E-07
   2.82119989         2.93219983E-07
   2.83319998         3.83290200E-07
   2.84520006         4.95670974E-07
   2.85719991         6.33934008E-07
   2.86919999         8.01762326E-07
   2.88120008         1.00284797E-06
   2.89319992         1.24077087E-06
   2.90520000         1.51885922E-06
   2.91720009         1.84003716E-06
   2.92919993         2.20666061E-06
   2.94120002         2.62034837E-06
   2.95320010         3.08181620E-06
   2.96519995         3.59071691E-06
   2.97720003         4.14549913E-06
   2.98920012         4.74328954E-06
   3.00119996         5.37980623E-06
   3.01320004         6.04931574E-06
   3.02519989         6.74462945E-06
   3.03719997         7.45716261E-06
   3.04920006         8.17703403E-06
   3.06119990         8.89323474E-06
   3.07319999         9.59384215E-06
   3.08520007         1.02662889E-05
   3.09719992         1.08976756E-05
   3.10920000         1.14751138E-05
   3.12120008         1.19861024E-05
   3.13319993         1.24189082E-05
   3.14520001         1.27629428E-05
   3.15720010         1.30091312E-05
   3.16919994         1.31502402E-05
   3.18120003         1.31811639E-05
   3.19320011         1.30991466E-05
   3.20519996         1.29039454E-05
   3.21720004         1.25979068E-05
   3.22919989         1.21859621E-05
   3.24119997         1.16755436E-05
   3.25320005         1.10764149E-05
   3.26519990         1.04004248E-05
   3.27719998         9.66118841E-06
   3.28920007         8.87371243E-06
   3.30119991         8.05397849E-06
   3.31320000         7.21848346E-06
   3.32520008         6.38378287E-06
   3.33719993         5.56602299E-06
   3.34920001         4.78049560E-06
   3.36120009         4.04122738E-06
   3.37319994         3.36061407E-06
   3.38520002         2.74911713E-06
   3.39720011         2.21502614E-06
   3.40919995         1.76429421E-06
   3.42120004         1.40045245E-06
   3.43319988         1.12460270E-06
   3.44519997         9.35483001E-07
   3.45720005         8.29605369E-07
   3.46919990         8.01453893E-07
   3.48119998         8.43736302E-07
   3.49320006         9.47676767E-07
   3.50519991         1.10333929E-06
   3.51719999         1.29996863E-06
   3.52920008         1.52633595E-06
   3.54119992         1.77108063E-06
   3.55320001         2.02303431E-06
   3.56520009         2.27151872E-06
   3.57719994         2.50661287E-06
   3.58920002         2.71937984E-06
   3.60120010         2.90205071E-06
   3.61319995         3.04816672E-06
   3.62520003         3.15267357E-06
   3.63720012         3.21197444E-06
   3.64919996         3.22394021E-06
   3.66120005         3.18788284E-06
   3.67319989         3.10449582E-06
   3.68519998         2.97576321E-06
   3.69720006         2.80484710E-06
   3.70919991         2.59595299E-06
   3.72119999         2.35417974E-06
   3.73320007         2.08535630E-06
   3.74519992         1.79587153E-06
   3.75720000         1.49249604E-06
   3.76920009         1.18220157E-06
   3.78119993         8.71978102E-07
   3.79320002         5.68654173E-07
   3.80520010         2.78718176E-07
   3.81719995         8.14803691E-09
   3.82920003        -2.37750584E-07
   3.84120011        -4.54492010E-07
   3.85319996        -6.38541223E-07
   3.86520004        -7.87422778E-07
   3.87719989        -8.99801876E-07
   3.88919997        -9.75534249E-07
   3.90120006        -1.01567991E-06
   3.91319990        -1.02247691E-06
   3.92519999        -9.99273311E-07
   3.93720007        -9.50415881E-07
   3.94919991        -8.81098913E-07
   3.96120000        -7.97173811E-07
   3.97320008        -7.04927970E-07
   3.98519993        -6.10839606E-07
   3.99720001        -5.21320885E-07
   4.00920010        -4.42459594E-07
   4.02120018        -3.79770739E-07
   4.03319979        -3.37974342E-07
   4.04519987        -3.20806691E-07
   4.05719995        -3.30879516E-07
   4.06920004        -3.69591618E-07
   4.08120012        -4.37099516E-07
   4.09320021        -5.32348849E-07
   4.10519981        -6.53162772E-07
   4.11719990        -7.96383858E-07
   4.12919998        -9.58058536E-07
   4.14120007        -1.13365127E-06
   4.15320015        -1.31827619E-06
   4.16520023        -1.50692915E-06
   4.17719984        -1.69470502E-06
   4.18919992        -1.87698549E-06
   4.20120001        -2.04958587E-06
   4.21320009        -2.20885045E-06
   4.22520018        -2.35169273E-06
   4.23719978        -2.47557955E-06
   4.24919987        -2.57846159E-06
   4.26119995        -2.65866038E-06
   4.27320004        -2.71472118E-06
   4.28520012        -2.74524768E-06
   4.29720020        -2.74873537E-06
   4.30919981        -2.72341708E-06
   4.32119989        -2.66714187E-06
   4.33319998        -2.57729698E-06
   4.34520006        -2.45078877E-06
   4.35720015        -2.28408612E-06
   4.36920023        -2.07333323E-06
   4.38119984        -1.81452879E-06
   4.39319992        -1.50376275E-06
   4.40520000        -1.13750309E-06
   4.41720009        -7.12915835E-07
   4.42920017        -2.28198758E-07
   4.44119978         3.17089075E-07
   4.45319986         9.21724961E-07
   4.46519995         1.58256717E-06
   4.47720003         2.29436614E-06
   4.48920012         3.04965874E-06
   4.50120020         3.83875613E-06
   4.51319981         4.64983486E-06
   4.52519989         5.46913725E-06
   4.53719997         6.28127373E-06
   4.54920006         7.06962146E-06
   4.56120014         7.81680592E-06
   4.57320023         8.50525339E-06
   4.58519983         9.11777897E-06
   4.59719992         9.63820366E-06
   4.60920000         1.00519665E-05
   4.62120008         1.03466982E-05
   4.63320017         1.05127438E-05
   4.64519978         1.05435984E-05
   4.65719986         1.04362498E-05
   4.66919994         1.01913984E-05
   4.68120003         9.81354151E-06
   4.69320011         9.31092836E-06
   4.70520020         8.69536871E-06
   4.71719980         7.98190649E-06
   4.72919989         7.18836964E-06
   4.74119997         6.33480431E-06
   4.75320005         5.44281738E-06
   4.76520014         4.53484836E-06
   4.77720022         3.63340405E-06
   4.78919983         2.76028209E-06
   4.80119991         1.93580809E-06
   4.81320000         1.17812851E-06
   4.82520008         5.02576597E-07
   4.83720016        -7.88545051E-08
   4.84919977        -5.57915314E-07
   4.86119986        -9.30358681E-07
   4.87319994        -1.19604567E-06
   4.88520002        -1.35889309E-06
   4.89720011        -1.42666295E-06
   4.90920019        -1.41060480E-06
   4.92119980        -1.32496280E-06
   4.93319988        -1.18636990E-06
   4.94519997        -1.01315368E-06
   4.95720005        -8.24581377E-07
   4.96920013        -6.40080600E-07
   4.98120022        -4.78462823E-07
   4.99319983        -3.57189379E-07
   5.00519991        -2.91706982E-07
   5.01719999        -2.94881772E-07
   5.02920008        -3.76556528E-07
   5.04120016        -5.43246244E-07
   5.05319977        -7.97983944E-07
   5.06519985        -1.14032230E-06
   5.07719994        -1.56648002E-06
   5.08920002        -2.06962909E-06
   5.10120010        -2.64029950E-06
   5.11320019        -3.26687723E-06
   5.12519979        -3.93617438E-06
   5.13719988        -4.63402739E-06
   5.14919996        -5.34590663E-06
   5.16120005        -6.05749392E-06
   5.17320013        -6.75520050E-06
   5.18520021        -7.42661086E-06
   5.19719982        -8.06081698E-06
   5.20919991        -8.64863978E-06
   5.22119999        -9.18273599E-06
   5.23320007        -9.65758682E-06
   5.24520016        -1.00693715E-05
   5.25719976        -1.04157716E-05
   5.26919985        -1.06956859E-05
   5.28119993        -1.09089187E-05
   5.29320002        -1.10558449E-05
   5.30520010        -1.11370946E-05
   5.31720018        -1.11532781E-05
   5.32919979        -1.11047639E-05
   5.34119987        -1.09915500E-05
   5.35319996        -1.08132190E-05
   5.36520004        -1.05689787E-05
   5.37720013        -1.02578078E-05
   5.38920021        -9.87867043E-06
   5.40119982        -9.43078794E-06
   5.41319990        -8.91395848E-06
   5.42519999        -8.32887235E-06
   5.43720007        -7.67743222E-06
   5.44920015        -6.96300640E-06
   5.46120024        -6.19063212E-06
   5.47319984        -5.36712014E-06
   5.48519993        -4.50106336E-06
   5.49720001        -3.60273634E-06
   5.50920010        -2.68388749E-06
   5.52120018        -1.75742025E-06
   5.53319979        -8.36998936E-07
   5.54519987         6.34181347E-08
   5.55719995         9.30079864E-07
   5.56920004         1.74996467E-06
   5.58120012         2.51128404E-06
   5.59320021         3.20394224E-06
   5.60519981         3.81993004E-06
   5.61719990         4.35362654E-06
   5.62919998         4.80199651E-06
   5.64120007         5.16467526E-06
   5.65320015         5.44392879E-06
   5.66520023         5.64450875E-06
   5.67719984         5.77339870E-06
   5.68919992         5.83946530E-06
   5.70120001         5.85304497E-06
   5.71320009         5.82547591E-06
   5.72520018         5.76860521E-06
   5.73719978         5.69429267E-06
   5.74919987         5.61392562E-06
   5.76119995         5.53798191E-06
   5.77320004         5.47563241E-06
   5.78520012         5.43442184E-06
   5.79720020         5.42001499E-06
   5.80919981         5.43603255E-06
   5.82119989         5.48396429E-06
   5.83319998         5.56317309E-06
   5.84520006         5.67097186E-06
   5.85720015         5.80278038E-06
   5.86920023         5.95234815E-06
   5.88119984         6.11203177E-06
   5.89319992         6.27312011E-06
   5.90520000         6.42619079E-06
   5.91720009         6.56148495E-06
   5.92920017         6.66928327E-06
   5.94119978         6.74027478E-06
   5.95319986         6.76590344E-06
   5.96519995         6.73867771E-06
   5.97720003         6.65244124E-06
   5.98920012         6.50258426E-06
   6.00120020         6.28620091E-06
   6.01319981         6.00217845E-06
   6.02519989         5.65121900E-06
   6.03719997         5.23579138E-06
   6.04920006         4.76002106E-06
   6.06120014         4.22951507E-06
   6.07320023         3.65113465E-06
   6.08519983         3.03272054E-06
   6.09719992         2.38278790E-06
   6.10920000         1.71020361E-06
   6.12120008         1.02385866E-06
   6.13320017         3.32348606E-07
   6.14519978        -3.56318765E-07
   6.15719986        -1.03498337E-06
   6.16919994        -1.69754526E-06
   6.18120003        -2.33912374E-06
   6.19320011        -2.95615769E-06
   6.20520020        -3.54644317E-06
   6.21719980        -4.10910889E-06
   6.22919989        -4.64452978E-06
   6.24119997        -5.15418242E-06
   6.25320005        -5.64044967E-06
   6.26520014        -6.10638153E-06
   6.27720022        -6.55542908E-06
   6.28919983        -6.99115662E-06
   6.30119991        -7.41695203E-06
   6.31320000        -7.83575069E-06
   6.32520008        -8.24978360E-06
   6.33720016        -8.66037590E-06
   6.34919977        -9.06778587E-06
   6.36119986        -9.47112039E-06
   6.37319994        -9.86830946E-06
   6.38520002        -1.02561662E-05
   6.39720011        -1.06305069E-05
   6.40920019        -1.09863486E-05
   6.42119980        -1.13181686E-05
   6.43319988        -1.16202173E-05
   6.44519997        -1.18868620E-05
   6.45720005        -1.21129606E-05
   6.46920013        -1.22942347E-05
   6.48120022        -1.24276266E-05
   6.49319983        -1.25116121E-05
   6.50519991        -1.25464567E-05
   6.51719999        -1.25343868E-05
   6.52920008        -1.24796688E-05
   6.54120016        -1.23885793E-05
   6.55319977        -1.22692500E-05
   6.56519985        -1.21314124E-05
   6.57719994        -1.19860169E-05
   6.58920002        -1.18447642E-05
   6.60120010        -1.17195532E-05
   6.61320019        -1.16218753E-05
   6.62519979        -1.15621806E-05
   6.63719988        -1.15492576E-05
   6.64919996        -1.15896501E-05
   6.66120005        -1.16871524E-05
   6.67320013        -1.18424186E-05
   6.68520021        -1.20527020E-05
   6.69719982        -1.23117698E-05
   6.70919991        -1.26099912E-05
   6.72119999        -1.29346090E-05
   6.73320007        -1.32702053E-05
   6.74520016        -1.35993187E-05
   6.75719976        -1.39032236E-05
   6.76919985        -1.41628052E-05
   6.78119993        -1.43595062E-05
   6.79320002        -1.44762889E-05
   6.80520010        -1.44985715E-05
   6.81720018        -1.44150690E-05
   6.82919979        -1.42185072E-05
   6.84119987        -1.39061513E-05
   6.85319996        -1.34801230E-05
   6.86520004        -1.29474811E-05
   6.87720013        -1.23200389E-05
   6.88920021        -1.16139372E-05
   6.90119982        -1.08489730E-05
   6.91319990        -1.00477173E-05
   6.92519999        -9.23446623E-06
   6.93720007        -8.43406451E-06
   6.94920015        -7.67067831E-06
   6.96120024        -6.96656798E-06
   6.97319984        -6.34092794E-06
   6.98519993        -5.80886672E-06
   6.99720001        -5.38057293E-06
   7.00920010        -5.06072001E-06
   7.02120018        -4.84815155E-06
   7.03319979        -4.73585396E-06
   7.04519987        -4.71124258E-06
   7.05719995        -4.75673187E-06
   7.06920004        -4.85057808E-06
   7.08120012        -4.96794064E-06
   7.09320021        -5.08212088E-06
   7.10519981        -5.16590944E-06
   7.11719990        -5.19297237E-06
   7.12919998        -5.13920713E-06
   7.14120007        -4.98400050E-06
   7.15320015        -4.71131898E-06
   7.16520023        -4.31058288E-06
   7.17719984        -3.77727179E-06
   7.18919992        -3.11324425E-06
   7.20120001        -2.32674142E-06
   7.21320009        -1.43208990E-06
   7.22520018        -4.49113884E-07
   7.23719978         5.97705878E-07
   7.24919987         1.68028305E-06
   7.26119995         2.76813012E-06
   7.27320004         3.82965209E-06
   7.28520012         4.83346184E-06
   7.29720020         5.74966089E-06
   7.30919981         6.55100803E-06
   7.32119989         7.21393781E-06
   7.33319998         7.71937903E-06
   7.34520006         8.05334366E-06
   7.35720015         8.20726382E-06
   7.36920023         8.17808996E-06
   7.38119984         7.96813401E-06
   7.39319992         7.58470287E-06
   7.40520000         7.03954538E-06
   7.41720009         6.34813705E-06
   7.42920017         5.52887832E-06
   7.44119978         4.60221736E-06
   7.45319986         3.58976854E-06
   7.46519995         2.51345728E-06
   7.47720003         1.39473104E-06
   7.48920012         2.53871576E-07
   7.50120020        -8.90574881E-07
   7.51319981        -2.02222532E-06
   7.52519989        -3.12714337E-06
   7.53719997        -4.19398066E-06
   7.54920006        -5.21397624E-06
   7.56120014        -6.18083777E-06
   7.57320023        -7.09051028E-06
   7.58519983        -7.94086736E-06
   7.59719992        -8.73133649E-06
   7.60920000        -9.46249111E-06
   7.62120008        -1.01356254E-05
   7.63320017        -1.07523420E-05
   7.64519978        -1.13141723E-05
   7.65719986        -1.18222433E-05
   7.66919994        -1.22770089E-05
   7.68120003        -1.26780606E-05
   7.69320011        -1.30240178E-05
   7.70520020        -1.33125113E-05
   7.71719980        -1.35402497E-05
   7.72919989        -1.37031666E-05
   7.74119997        -1.37966526E-05
   7.75320005        -1.38158412E-05
   7.76520014        -1.37559446E-05
   7.77720022        -1.36126328E-05
   7.78919983        -1.33824096E-05
   7.80119991        -1.30629933E-05
   7.81320000        -1.26536761E-05
   7.82520008        -1.21556232E-05
   7.83720016        -1.15721296E-05
   7.84919977        -1.09087841E-05
   7.86119986        -1.01735604E-05
   7.87319994        -9.37679943E-06
   7.88520002        -8.53110214E-06
   7.89720011        -7.65112236E-06
   7.90920019        -6.75327146E-06
   7.92119980        -5.85532689E-06
   7.93319988        -4.97597603E-06
   7.94519997        -4.13430098E-06
   7.95720005        -3.34921970E-06
   7.96920013        -2.63890297E-06
   7.98120022        -2.02019305E-06
   7.99319983        -1.50803567E-06
   8.00520039        -1.11495592E-06
   8.01720047        -8.50591789E-07
   8.02919960        -7.21307515E-07
   8.04119968        -7.29902411E-07
   8.05319977        -8.75430146E-07
   8.06519985        -1.15313787E-06
   8.07719994        -1.55453051E-06
   8.08920002        -2.06756658E-06
   8.10120010        -2.67697874E-06
   8.11320019        -3.36471203E-06
   8.12520027        -4.11047222E-06
   8.13720036        -4.89236072E-06
   8.14920044        -5.68758151E-06
   8.16119957        -6.47319530E-06
   8.17319965        -7.22689219E-06
   8.18519974        -7.92775609E-06
   8.19719982        -8.55699727E-06
   8.20919991        -9.09861501E-06
   8.22119999        -9.53997915E-06
   8.23320007        -9.87228941E-06
   8.24520016        -1.00909137E-05
   8.25720024        -1.01955629E-05
   8.26920033        -1.01903179E-05
   8.28120041        -1.00834895E-05
   8.29319954        -9.88730699E-06
   8.30519962        -9.61745536E-06
   8.31719971        -9.29245925E-06
   8.32919979        -8.93294964E-06
   8.34119987        -8.56081078E-06
   8.35319996        -8.19826346E-06
   8.36520004        -7.86690362E-06
   8.37720013        -7.58673696E-06
   8.38920021        -7.37524897E-06
   8.40120029        -7.24654592E-06
   8.41320038        -7.21061997E-06
   8.42520046        -7.27275983E-06
   8.43719959        -7.43315013E-06
   8.44919968        -7.68668451E-06
   8.46119976        -8.02300747E-06
   8.47319984        -8.42680220E-06
   8.48519993        -8.87831266E-06
   8.49720001        -9.35409298E-06
   8.50920010        -9.82796337E-06
   8.52120018        -1.02721269E-05
   8.53320026        -1.06584002E-05
   8.54520035        -1.09595121E-05
   8.55720043        -1.11503996E-05
   8.56919956        -1.12094403E-05
   8.58119965        -1.11195604E-05
   8.59319973        -1.08691547E-05
   8.60519981        -1.04527835E-05
   8.61719990        -9.87158455E-06
   8.62919998        -9.13340136E-06
   8.64120007        -8.25258940E-06
   8.65320015        -7.24953225E-06
   8.66520023        -6.14986493E-06
   8.67720032        -4.98345980E-06
   8.68920040        -3.78320829E-06
   8.70119953        -2.58366617E-06
   8.71319962        -1.41962948E-06
   8.72519970        -3.24708168E-07
   8.73719978         6.70028498E-07
   8.74919987         1.53727240E-06
   8.76119995         2.25450390E-06
   8.77320004         2.80478298E-06
   8.78520012         3.17727131E-06
   8.79720020         3.36747303E-06
   8.80920029         3.37719075E-06
   8.82120037         3.21421771E-06
   8.83320045         2.89178593E-06
   8.84519958         2.42781834E-06
   8.85719967         1.84402472E-06
   8.86919975         1.16489377E-06
   8.88119984         4.16636766E-07
   8.89319992        -3.73870080E-07
   8.90520000        -1.18009393E-06
   8.91720009        -1.97676854E-06
   8.92920017        -2.74069657E-06
   8.94120026        -3.45141098E-06
   8.95320034        -4.09168297E-06
   8.96520042        -4.64786990E-06
   8.97719955        -5.11011194E-06
   8.98919964        -5.47238051E-06
   9.00119972        -5.73239777E-06
   9.01319981        -5.89144429E-06
   9.02519989        -5.95406618E-06
   9.03719997        -5.92770402E-06
   9.04920006        -5.82225675E-06
   9.06120014        -5.64959691E-06
   9.07320023        -5.42304770E-06
   9.08520031        -5.15683678E-06