 -0.622799993         1.00000002E-24
 -0.610800028         1.00000002E-24
 -0.598800004         1.00000002E-24
 -0.586799979         1.00000002E-24
 -0.574800014         1.00000002E-24
 -0.562799990         1.00000002E-24
 -0.550800025         1.00000002E-24
 -0.538800001         1.00000012E-24
 -0.526799977         1.00000022E-24
 -0.514800012         1.00000022E-24
 -0.502799988         9.99999527E-25
 -0.490799993         9.99994399E-25
 -0.478799999         9.99970043E-25
 -0.466800004         9.99896186E-25
 -0.454800010         9.99770461E-25
 -0.442799985         9.99822920E-25
 -0.430799991         1.00096559E-24
 -0.418799996         1.00516045E-24
 -0.406800002         1.01432425E-24
 -0.394800007         1.02518943E-24
 -0.382800013         1.01849338E-24
 -0.370799989         9.47863611E-25
 -0.358799994         7.48748758E-25
 -0.346799999         4.02830811E-25
 -0.334800005         8.35562272E-26
 -0.322800010         3.37205053E-25
 -0.310799986         2.10622509E-24
 -0.298799992         6.24308425E-24
 -0.286799997         1.21878600E-23
 -0.274800003         1.59706010E-23
 -0.262800008         8.80136372E-24
 -0.250800014        -2.11188162E-23
 -0.238800004        -8.04464006E-23
 -0.226799995        -1.55275152E-22
 -0.214800000        -1.93764042E-22
 -0.202800006        -1.01447405E-22
 -0.190799996         2.28984359E-22
 -0.178800002         8.36124856E-22
 -0.166800007         1.56500270E-21
 -0.154799998         1.95590127E-21
 -0.142800003         1.25787877E-21
 -0.130799994        -1.30216262E-21
 -0.118799999        -5.93058813E-21
 -0.106799997        -1.14806901E-20
  -9.48000029E-02    -1.48688946E-20
  -8.28000009E-02    -1.13352146E-20
  -7.07999989E-02     3.81981061E-21
  -5.88000007E-02     3.18695048E-20
  -4.67999987E-02     6.65316747E-20
  -3.48000005E-02     9.12336401E-20
  -2.28000004E-02     8.08323156E-20
  -1.08000003E-02     1.04307354E-20
   1.20000006E-03    -1.28572276E-19
   1.31999999E-02    -3.09613962E-19
   2.52000000E-02    -4.58896022E-19
   3.72000001E-02    -4.62749236E-19
   4.91999984E-02    -2.04481258E-19
   6.12000003E-02     3.69784165E-19
   7.32000023E-02     1.17429889E-18
   8.51999968E-02     1.93267193E-18
   9.71999988E-02     2.19913886E-18
  0.109200001         1.48800879E-18
  0.121200003        -4.90327076E-19
  0.133200005        -3.54810149E-18
  0.145199999        -6.81669162E-18
  0.157199994        -8.77553596E-18
  0.169200003        -7.63497962E-18
  0.181199998        -2.07910027E-18
  0.193200007         7.80724743E-18
  0.205200002         1.97914608E-17
  0.217199996         2.93927977E-17
  0.229200006         3.08156476E-17
  0.241200000         1.89934698E-17
  0.253199995        -7.67824779E-18
  0.265199989        -4.48724340E-17
  0.277200013        -8.13991317E-17
  0.289200008        -1.00953701E-16
  0.301200002        -8.69615177E-17
  0.313199997        -2.97088865E-17
  0.325199991         6.64222789E-17
  0.337199986         1.78746570E-16
  0.349200010         2.68155146E-16
  0.361200005         2.88698739E-16
  0.373199999         2.03793043E-16
  0.385199994         4.74877276E-18
  0.397199988        -2.75203069E-16
  0.409200013        -5.58744595E-16
  0.421200007        -7.39143449E-16
  0.433200002        -7.11533193E-16
  0.445199996        -4.13804473E-16
  0.457199991         1.35907866E-16
  0.469199985         8.20736121E-16
  0.481200010         1.43830800E-15
  0.493200004         1.74973174E-15
  0.505200028         1.55577019E-15
  0.517199993         7.79081741E-16
  0.529200017        -4.76229346E-16
  0.541199982        -1.91504768E-15
  0.553200006        -3.10693993E-15
  0.565199971        -3.60193773E-15
  0.577199996        -3.07841377E-15
  0.589200020        -1.47780335E-15
  0.601199985         9.23213291E-16
  0.613200009         3.53951860E-15
  0.625199974         5.61159582E-15
  0.637199998         6.41917228E-15
  0.649200022         5.51510945E-15
  0.661199987         2.90467482E-15
  0.673200011        -8.96286431E-16
  0.685199976        -4.95818740E-15
  0.697200000        -8.17524268E-15
  0.709200025        -9.58087352E-15
  0.721199989        -8.64621163E-15
  0.733200014        -5.46446196E-15
  0.745199978        -7.54540443E-16
  0.757200003         4.32698353E-15
  0.769200027         8.51350952E-15
  0.781199992         1.07944320E-14
  0.793200016         1.07016972E-14
  0.805199981         8.42236284E-15
  0.817200005         4.69977290E-15
  0.829200029         5.58439875E-16
  0.841199994        -3.04992022E-15
  0.853200018        -5.55215909E-15
  0.865199983        -6.89968009E-15
  0.877200007        -7.49985841E-15
  0.889199972        -7.95727230E-15
  0.901199996        -8.72275546E-15
  0.913200021        -9.78895564E-15
  0.925199986        -1.05625347E-14
  0.937200010        -9.98565363E-15
  0.949199975        -6.89175271E-15
  0.961199999        -4.92660885E-16
  0.973200023         9.16296271E-15
  0.985199988         2.09244057E-14
  0.997200012         3.25805938E-14
   1.00919998         4.12318461E-14
   1.02119994         4.39152702E-14
   1.03320003         3.83311479E-14
   1.04519999         2.34899922E-14
   1.05719995         1.26153990E-16
   1.06920004        -2.92084167E-14
   1.08120000        -6.03756886E-14
   1.09319997        -8.81489976E-14
   1.10520005        -1.06888788E-13
   1.11720002        -1.11318405E-13
   1.12919998        -9.73499845E-14
   1.14119995        -6.29293912E-14
   1.15320003        -8.85080736E-15
   1.16520000         6.05687036E-14
   1.17719996         1.37149542E-13
   1.18920004         2.09102606E-13
   1.20120001         2.62121217E-13
   1.21319997         2.81431643E-13
   1.22520006         2.54678467E-13
   1.23720002         1.75209931E-13
   1.24919999         4.50425186E-14
   1.26119995        -1.23359778E-13
   1.27320004        -3.07267097E-13
   1.28520000        -4.76244315E-13
   1.29719996        -5.96938460E-13
   1.30920005        -6.39300462E-13
   1.32120001        -5.82934146E-13
   1.33319998        -4.22060688E-13
   1.34519994        -1.67810901E-13
   1.35720003         1.52816277E-13
   1.36919999         5.01106860E-13
   1.38119996         8.32812660E-13
   1.39320004         1.10471734E-12
   1.40520000         1.27990858E-12
   1.41719997         1.33062495E-12
   1.42920005         1.23851819E-12
   1.44120002         9.93256801E-13
   1.45319998         5.91173974E-13
   1.46519995         3.58066882E-14
   1.47720003        -6.58491762E-13
   1.48920000        -1.46002351E-12
   1.50119996        -2.31208390E-12
   1.51320004        -3.12729660E-12
   1.52520001        -3.78759654E-12
   1.53719997        -4.15283823E-12
   1.54920006        -4.07913330E-12
   1.56120002        -3.44536552E-12
   1.57319999        -2.18353807E-12
   1.58519995        -3.06586137E-13
   1.59720004         2.07333976E-12
   1.60920000         4.74193818E-12
   1.62119997         7.39820618E-12
   1.63320005         9.68754764E-12
   1.64520001         1.12479670E-11
   1.65719998         1.17619352E-11
   1.66919994         1.10052982E-11
   1.68120003         8.88540023E-12
   1.69319999         5.46300808E-12
   1.70519996         9.55968052E-13
   1.71720004        -4.27421683E-12
   1.72920001        -9.74947987E-12
   1.74119997        -1.49118547E-11
   1.75320005        -1.91664740E-11
   1.76520002        -2.19295988E-11
   1.77719998        -2.26823543E-11
   1.78919995        -2.10321361E-11
   1.80120003        -1.67833976E-11
   1.81320000        -1.00175103E-11
   1.82519996        -1.17840308E-12
   1.83720005         8.84293940E-12
   1.84920001         1.86348090E-11
   1.86119998         2.62129329E-11
   1.87320006         2.90009856E-11
   1.88520002         2.38519170E-11
   1.89719999         7.11683837E-12
   1.90919995        -2.52333727E-11
   1.92120004        -7.74266068E-11
   1.93320000        -1.53637866E-10
   1.94519997        -2.57650651E-10
   1.95720005        -3.92410215E-10
   1.96920002        -5.59444768E-10
   1.98119998        -7.58137164E-10
   1.99319994        -9.84844539E-10
   2.00519991        -1.23189159E-09
   2.01719999        -1.48649704E-09
   2.02920008        -1.72973691E-09
   2.04119992        -1.93567895E-09
   2.05320001        -2.07083861E-09
   2.06520009        -2.09409268E-09
   2.07719994        -1.95711336E-09
   2.08920002        -1.60525870E-09
   2.10120010        -9.78654158E-10
   2.11319995        -1.29223151E-11
   2.12520003         1.36131872E-09
   2.13720012         3.22146887E-09
   2.14919996         5.66017810E-09
   2.16120005         8.79889317E-09
   2.17319989         1.28101778E-08
   2.18519998         1.79515336E-08
   2.19720006         2.46134366E-08
   2.20919991         3.33842074E-08
   2.22119999         4.51338380E-08
   2.23320007         6.11181932E-08
   2.24519992         8.31037283E-08
   2.25720000         1.13511582E-07
   2.26920009         1.55578007E-07
   2.28119993         2.13526050E-07
   2.29320002         2.92741447E-07
   2.30520010         3.99943247E-07
   2.31719995         5.43338331E-07
   2.32920003         7.32746514E-07
   2.34120011         9.79682682E-07
   2.35319996         1.29738237E-06
   2.36520004         1.70075577E-06
   2.37719989         2.20626089E-06
   2.38919997         2.83168265E-06
   2.40120006         3.59581668E-06
   2.41319990         4.51805181E-06
   2.42519999         5.61785919E-06
   2.43720007         6.91419200E-06
   2.44919991         8.42481950E-06
   2.46120000         1.01656033E-05
   2.47320008         1.21497542E-05
   2.48519993         1.43870930E-05
   2.49720001         1.68833449E-05
   2.50920010         1.96395049E-05
   2.52119994         2.26513203E-05
   2.53320003         2.59088883E-05
   2.54520011         2.93964313E-05
   2.55719995         3.30922594E-05
   2.56920004         3.69689296E-05
   2.58119988         4.09936001E-05
   2.59319997         4.51286214E-05
   2.60520005         4.93322805E-05
   2.61719990         5.35597464E-05
   2.62919998         5.77641658E-05
   2.64120007         6.18978083E-05
   2.65319991         6.59133802E-05
   2.66520000         6.97652067E-05
   2.67720008         7.34105561E-05
   2.68919992         7.68107348E-05
   2.70120001         7.99321642E-05
   2.71320009         8.27472177E-05
   2.72519994         8.52349040E-05
   2.73720002         8.73813115E-05
   2.74920011         8.91798190E-05
   2.76119995         9.06310306E-05
   2.77320004         9.17425205E-05
   2.78520012         9.25283093E-05
   2.79719996         9.30081442E-05
   2.80920005         9.32066396E-05
   2.82119989         9.31522372E-05
   2.83319998         9.28761583E-05
   2.84520006         9.24112392E-05
   2.85719991         9.17908546E-05
   2.86919999         9.10478557E-05
   2.88120008         9.02136380E-05
   2.89319992         8.93173419E-05
   2.90520000         8.83852263E-05
   2.91720009         8.74402322E-05
   2.92919993         8.65017500E-05
   2.94120002         8.55855906E-05
   2.95320010         8.47041010E-05
   2.96519995         8.38665073E-05
   2.97720003         8.30793288E-05
   2.98920012         8.23469381E-05
   3.00119996         8.16721367E-05
   3.01320004         8.10567508E-05
   3.02519989         8.05022064E-05
   3.03719997         8.00100170E-05
   3.04920006         7.95821907E-05
   3.06119990         7.92214778E-05
   3.07319999         7.89314872E-05
   3.08520007         7.87166355E-05
   3.09719992         7.85819939E-05
   3.10920000         7.85329175E-05
   3.12120008         7.85746670E-05
   3.13319993         7.87118770E-05
   3.14520001         7.89480328E-05
   3.15720010         7.92849314E-05
   3.16919994         7.97222019E-05
   3.18120003         8.02568829E-05
   3.19320011         8.08831901E-05
   3.20519996         8.15923559E-05
   3.21720004         8.23726659E-05
   3.22919989         8.32097139E-05
   3.24119997         8.40867506E-05
   3.25320005         8.49852731E-05
   3.26519990         8.58856874E-05
   3.27719998         8.67680792E-05
   3.28920007         8.76131089E-05
   3.30119991         8.84028195E-05
   3.31320000         8.91215241E-05
   3.32520008         8.97565042E-05
   3.33719993         9.02987085E-05
   3.34920001         9.07431750E-05
   3.36120009         9.10893068E-05
   3.37319994         9.13409822E-05
   3.38520002         9.15063210E-05
   3.39720011         9.15973287E-05
   3.40919995         9.16292629E-05
   3.42120004         9.16198405E-05
   3.43319988         9.15882556E-05
   3.44519997         9.15541023E-05
   3.45720005         9.15362398E-05
   3.46919990         9.15516503E-05
   3.48119998         9.16143545E-05
   3.49320006         9.17344223E-05
   3.50519991         9.19172526E-05
   3.51719999         9.21629544E-05
   3.52920008         9.24661290E-05
   3.54119992         9.28158988E-05
   3.55320001         9.31962568E-05
   3.56520009         9.35867793E-05
   3.57719994         9.39636084E-05
   3.58920002         9.43007835E-05
   3.60120010         9.45717038E-05
   3.61319995         9.47508161E-05
   3.62520003         9.48153393E-05
   3.63720012         9.47470253E-05
   3.64919996         9.45337597E-05
   3.66120005         9.41710241E-05
   3.67319989         9.36629804E-05
   3.68519998         9.30233218E-05
   3.69720006         9.22755644E-05
   3.70919991         9.14530319E-05
   3.72119999         9.05981724E-05
   3.73320007         8.97615973E-05
   3.74519992         8.90005394E-05
   3.75720000         8.83769753E-05
   3.76920009         8.79555009E-05
   3.78119993         8.78008432E-05
   3.79320002         8.79754662E-05
   3.80520010         8.85370027E-05
   3.81719995         8.95358826E-05
   3.82920003         9.10132003E-05
   3.84120011         9.29988819E-05
   3.85319996         9.55102223E-05
   3.86520004         9.85508959E-05
   3.87719989         1.02110505E-04
   3.88919997         1.06164567E-04
   3.90120006         1.10675057E-04
   3.91319990         1.15591378E-04
   3.92519999         1.20851771E-04
   3.93720007         1.26385159E-04
   3.94919991         1.32113128E-04
   3.96120000         1.37952302E-04
   3.97320008         1.43816666E-04
   3.98519993         1.49620057E-04
   3.99720001         1.55278525E-04
   4.00920010         1.60712676E-04
   4.02120018         1.65849720E-04
   4.03319979         1.70625382E-04
   4.04519987         1.74985369E-04
   4.05719995         1.78886679E-04
   4.06920004         1.82298376E-04
   4.08120012         1.85202065E-04
   4.09320021         1.87591853E-04
   4.10519981         1.89474085E-04
   4.11719990         1.90866456E-04
   4.12919998         1.91796818E-04
   4.14120007         1.92301770E-04
   4.15320015         1.92424792E-04
   4.16520023         1.92214226E-04
   4.17719984         1.91721047E-04
   4.18919992         1.90996638E-04
   4.20120001         1.90090519E-04
   4.21320009         1.89048296E-04
   4.22520018         1.87909623E-04
   4.23719978         1.86706675E-04
   4.24919987         1.85462908E-04
   4.26119995         1.84192293E-04
   4.27320004         1.82898948E-04
   4.28520012         1.81577372E-04
   4.29720020         1.80213217E-04
   4.30919981         1.78784336E-04
   4.32119989         1.77262409E-04
   4.33319998         1.75614798E-04
   4.34520006         1.73806591E-04
   4.35720015         1.71802836E-04
   4.36920023         1.69570645E-04
   4.38119984         1.67081118E-04
   4.39319992         1.64311117E-04
   4.40520000         1.61244592E-04
   4.41720009         1.57873466E-04
   4.42920017         1.54198045E-04
   4.44119978         1.50226944E-04
   4.45319986         1.45976490E-04
   4.46519995         1.41469776E-04
   4.47720003         1.36735238E-04
   4.48920012         1.31805107E-04
   4.50120020         1.26713639E-04
   4.51319981         1.21495410E-04
   4.52519989         1.16183648E-04
   4.53719997         1.10808789E-04
   4.54920006         1.05397514E-04
   4.56120014         9.99719487E-05
   4.57320023         9.45494685E-05
   4.58519983         8.91428572E-05
   4.59719992         8.37609332E-05
   4.60920000         7.84095319E-05
   4.62120008         7.30927277E-05
   4.63320017         6.78143188E-05
   4.64519978         6.25792818E-05
   4.65719986         5.73952420E-05
   4.66919994         5.22737537E-05
   4.68120003         4.72313077E-05
   4.69320011         4.22899720E-05
   4.70520020         3.74776173E-05
   4.71719980         3.28277201E-05
   4.72919989         2.83786758E-05
   4.74119997         2.41727412E-05
   4.75320005         2.02545780E-05
   4.76520014         1.66695518E-05
   4.77720022         1.34618149E-05
   4.78919983         1.06723201E-05
   4.80119991         8.33686136E-06
   4.81320000         6.48423566E-06
   4.82520008         5.13463056E-06
   4.83720016         4.29830561E-06
   4.84919977         3.97463600E-06
   4.86119986         4.15155728E-06
   4.87319994         4.80543531E-06
   4.88520002         5.90135141E-06
   4.89720011         7.39380721E-06
   4.90920019         9.22780146E-06
   4.92119980         1.13402384E-05
   4.93319988         1.36616245E-05
   4.94519997         1.61179723E-05
   4.95720005         1.86328616E-05
   4.96920013         2.11295901E-05
   4.98120022         2.35333137E-05
   4.99319983         2.57731463E-05
   5.00519991         2.77841173E-05
   5.01719999         2.95089285E-05
   5.02920008         3.08994531E-05
   5.04120016         3.19179162E-05
   5.05319977         3.25377223E-05
   5.06519985         3.27438647E-05
   5.07719994         3.25329638E-05
   5.08920002         3.19128303E-05
   5.10120010         3.09017232E-05
   5.11320019         2.95271639E-05
   5.12519979         2.78245352E-05
   5.13719988         2.58354085E-05
   5.14919996         2.36057749E-05
   5.16120005         2.11842198E-05
   5.17320013         1.86201669E-05
   5.18520021         1.59622905E-05
   5.19719982         1.32571213E-05
   5.20919991         1.05479985E-05
   5.22119999         7.87430145E-06
   5.23320007         5.27105749E-06
   5.24520016         2.76886226E-06
   5.25719976         3.94092666E-07
   5.26919985        -1.83065936E-06
   5.28119993        -3.88600756E-06
   5.29320002        -5.75513786E-06
   5.30520010        -7.42320844E-06
   5.31720018        -8.87686838E-06
   5.32919979        -1.01039632E-05
   5.34119987        -1.10934734E-05
   5.35319996        -1.18357048E-05
   5.36520004        -1.23227310E-05
   5.37720013        -1.25490387E-05
   5.38920021        -1.25123406E-05
   5.40119982        -1.22144429E-05
   5.41319990        -1.16621040E-05
   5.42519999        -1.08677850E-05
   5.43720007        -9.85017959E-06
   5.44920015        -8.63446985E-06
   5.46120024        -7.25223663E-06
   5.47319984        -5.74099431E-06
   5.48519993        -4.14334772E-06
   5.49720001        -2.50578364E-06
   5.50920010        -8.77170464E-07
   5.52120018         6.92980791E-07
   5.53319979         2.15638465E-06
   5.54519987         3.46788033E-06
   5.55719995         4.58725162E-06
   5.56920004         5.48086018E-06
   5.58120012         6.12300892E-06
   5.59320021         6.49695357E-06
   5.60519981         6.59551233E-06
   5.61719990         6.42125678E-06
   5.62919998         5.98627503E-06
   5.64120007         5.31154046E-06
   5.65320015         4.42593546E-06
   5.66520023         3.36498920E-06
   5.67719984         2.16941999E-06
   5.68919992         8.83553639E-07
   5.70120001        -4.46288993E-07
   5.71320009        -1.77336597E-06
   5.72520018        -3.05198091E-06
   5.73719978        -4.23878691E-06
   5.74919987        -5.29390445E-06
   5.76119995        -6.18182003E-06
   5.77320004        -6.87207557E-06
   5.78520012        -7.33975094E-06
   5.79720020        -7.56575810E-06
   5.80919981        -7.53698487E-06
   5.82119989        -7.24629808E-06
   5.83319998        -6.69245037E-06
   5.84520006        -5.87989916E-06
   5.85720015        -4.81856614E-06
   5.86920023        -3.52353391E-06
   5.88119984        -2.01469106E-06
   5.89319992        -3.16310036E-07
   5.90520000         1.54344127E-06
   5.91720009         3.53307610E-06
   5.92920017         5.61845491E-06
   5.94119978         7.76355228E-06
   5.95319986         9.93131562E-06
   5.96519995         1.20846016E-05
   5.97720003         1.41871760E-05
   5.98920012         1.62047290E-05
   6.00120020         1.81058640E-05
   6.01319981         1.98630296E-05
   6.02519989         2.14533084E-05
   6.03719997         2.28590470E-05
   6.04920006         2.40682657E-05
   6.06120014         2.50748199E-05
   6.07320023         2.58783057E-05
   6.08519983         2.64836926E-05
   6.09719992         2.69007269E-05
   6.10920000         2.71431200E-05
   6.12120008         2.72275975E-05
   6.13320017         2.71728513E-05
   6.14519978         2.69984812E-05
   6.15719986         2.67240084E-05
   6.16919994         2.63680013E-05
   6.18120003         2.59474127E-05
   6.19320011         2.54771221E-05
   6.20520020         2.49697569E-05
   6.21719980         2.44357434E-05
   6.22919989         2.38836110E-05
   6.24119997         2.33204755E-05
   6.25320005         2.27526452E-05
   6.26520014         2.21863102E-05
   6.27720022         2.16281842E-05
   6.28919983         2.10860890E-05
   6.30119991         2.05693614E-05
   6.31320000         2.00890772E-05
   6.32520008         1.96580186E-05
   6.33720016         1.92904172E-05
   6.34919977         1.90014671E-05
   6.36119986         1.88066460E-05
   6.37319994         1.87208880E-05
   6.38520002         1.87577134E-05
   6.39720011         1.89283328E-05
   6.40920019         1.92408679E-05
   6.42119980         1.96996807E-05
   6.43319988         2.03049276E-05
   6.44519997         2.10523594E-05
   6.45720005         2.19333433E-05
   6.46920013         2.29351699E-05
   6.48120022         2.40415666E-05
   6.49319983         2.52333921E-05
   6.50519991         2.64894752E-05
   6.51719999         2.77874951E-05
   6.52920008         2.91048964E-05
   6.54120016         3.04197147E-05
   6.55319977         3.17113227E-05
   6.56519985         3.29610266E-05
   6.57719994         3.41524938E-05
   6.58920002         3.52720235E-05
   6.60120010         3.63086692E-05
   6.61320019         3.72541981E-05
   6.62519979         3.81029931E-05
   6.63719988         3.88518674E-05
   6.64919996         3.94998460E-05
   6.66120005         4.00479657E-05
   6.67320013         4.04991006E-05
   6.68520021         4.08578089E-05
   6.69719982         4.11302353E-05
   6.70919991         4.13240377E-05
   6.72119999         4.14483111E-05
   6.73320007         4.15135146E-05
   6.74520016         4.15313480E-05
   6.75719976         4.15145587E-05
   6.76919985         4.14766582E-05
   6.78119993         4.14315728E-05
   6.79320002         4.13931630E-05
   6.80520010         4.13746930E-05
   6.81720018         4.13882226E-05
   6.82919979         4.14440256E-05
   6.84119987         4.15499853E-05
   6.85319996         4.17111150E-05
   6.86520004         4.19291646E-05
   6.87720013         4.22024132E-05
   6.88920021         4.25256549E-05
   6.90119982         4.28904095E-05
   6.91319990         4.32853485E-05
   6.92519999         4.36969131E-05
   6.93720007         4.41101547E-05
   6.94920015         4.45096557E-05
   6.96120024         4.48805658E-05
   6.97319984         4.52096283E-05
   6.98519993         4.54861438E-05
   6.99720001         4.57027854E-05
   7.00920010         4.58562572E-05
   7.02120018         4.59476687E-05
   7.03319979         4.59826369E-05
   7.04519987         4.59711046E-05
   7.05719995         4.59268267E-05
   7.06920004         4.58666254E-05
   7.08120012         4.58093964E-05
   7.09320021         4.57749520E-05
   7.10519981         4.57827555E-05
   7.11719990         4.58506911E-05
   7.12919998         4.59938492E-05
   7.14120007         4.62234857E-05
   7.15320015         4.65462072E-05
   7.16520023         4.69634142E-05
   7.17719984         4.74710505E-05
   7.18919992         4.80596937E-05
   7.20120001         4.87149264E-05
   7.21320009         4.94180495E-05
   7.22520018         5.01469694E-05
   7.23719978         5.08773410E-05
   7.24919987         5.15837746E-05
   7.26119995         5.22410810E-05
   7.27320004         5.28255114E-05
   7.28520012         5.33158673E-05
   7.29720020         5.36944135E-05
   7.30919981         5.39476350E-05
   7.32119989         5.40666879E-05
   7.33319998         5.40476321E-05
   7.34520006         5.38913882E-05
   7.35720015         5.36034822E-05
   7.36920023         5.31935657E-05
   7.38119984         5.26747972E-05
   7.39319992         5.20631002E-05
   7.40520000         5.13763589E-05
   7.41720009         5.06336546E-05
   7.42920017         4.98544468E-05
   7.44119978         4.90579259E-05
   7.45319986         4.82623836E-05
   7.46519995         4.74847729E-05
   7.47720003         4.67403370E-05
   7.48920012         4.60424017E-05
   7.50120020         4.54022520E-05
   7.51319981         4.48291321E-05
   7.52519989         4.43302961E-05
   7.53719997         4.39111391E-05
   7.54920006         4.35753172E-05
   7.56120014         4.33249224E-05
   7.57320023         4.31606168E-05
   7.58519983         4.30817418E-05
   7.59719992         4.30864202E-05
   7.60920000         4.31715926E-05
   7.62120008         4.33330533E-05
   7.63320017         4.35654219E-05
   7.64519978         4.38621319E-05
   7.65719986         4.42154014E-05
   7.66919994         4.46161976E-05
   7.68120003         4.50542648E-05
   7.69320011         4.55181653E-05
   7.70520020         4.59953990E-05
   7.71719980         4.64725526E-05
   7.72919989         4.69355728E-05
   7.74119997         4.73700675E-05
   7.75320005         4.77616995E-05
   7.76520014         4.80966337E-05
   7.77720022         4.83620461E-05
   7.78919983         4.85466189E-05
   7.80119991         4.86410790E-05
   7.81320000         4.86386598E-05
   7.82520008         4.85355486E-05
   7.83720016         4.83311960E-05
   7.84919977         4.80285562E-05
   7.86119986         4.76341229E-05
   7.87319994         4.71578933E-05
   7.88520002         4.66131060E-05
   7.89720011         4.60158371E-05
   7.90920019         4.53844805E-05
   7.92119980         4.47390776E-05
   7.93319988         4.41005723E-05
   7.94519997         4.34900030E-05
   7.95720005         4.29276915E-05
   7.96920013         4.24324644E-05
   7.98120022         4.20209253E-05
   7.99319983         4.17068695E-05
   8.00520039         4.15008108E-05
   8.01720047         4.14096612E-05
   8.02919960         4.14366077E-05
   8.04119968         4.15811301E-05
   8.05319977         4.18391937E-05
   8.06519985         4.22035409E-05
   8.07719994         4.26641527E-05
   8.08920002         4.32087036E-05
   8.10120010         4.38231291E-05
   8.11320019         4.44921352E-05
   8.12520027         4.51997112E-05
   8.13720036         4.59295879E-05
   8.14920044         4.66656020E-05
   8.16119957         4.73920081E-05
   8.17319965         4.80937197E-05
   8.18519974         4.87564648E-05
   8.19719982         4.93669068E-05
   8.20919991         4.99127564E-05
   8.22119999         5.03828742E-05
   8.23320007         5.07673831E-05
   8.24520016         5.10578175E-05
   8.25720024         5.12473489E-05
   8.26920033         5.13309933E-05
   8.28120041         5.13058985E-05
   8.29319954         5.11715916E-05
   8.30519962         5.09302627E-05
   8.31719971         5.05869102E-05
   8.32919979         5.01494796E-05
   8.34119987         4.96288230E-05
   8.35319996         4.90385246E-05
   8.36520004         4.83945732E-05
   8.37720013         4.77148533E-05
   8.38920021         4.70184896E-05
   8.40120029         4.63250835E-05
   8.41320038         4.56538219E-05
   8.42520046         4.50226034E-05
   8.43719959         4.44471407E-05
   8.44919968         4.39401592E-05
   8.46119976         4.35107504E-05
   8.47319984         4.31638800E-05
   8.48519993         4.29001411E-05
   8.49720001         4.27157356E-05
   8.50920010         4.26027145E-05
   8.52120018         4.25494472E-05
   8.53320026         4.25412982E-05
   8.54520035         4.25614526E-05
   8.55720043         4.25918661E-05
   8.56919956         4.26142542E-05
   8.58119965         4.26110601E-05
   8.59319973         4.25663638E-05
   8.60519981         4.24666832E-05
   8.61719990         4.23015917E-05
   8.62919998         4.20641809E-05
   8.64120007         4.17513402E-05
   8.65320015         4.13638154E-05
   8.66520023         4.09061322E-05
   8.67720032         4.03863341E-05
   8.68920040         3.98156080E-05
   8.70119953         3.92078218E-05
   8.71319962         3.85789644E-05
   8.72519970         3.79465528E-05
   8.73719978         3.73290241E-05
   8.74919987         3.67451248E-05
   8.76119995         3.62132851E-05
   8.77320004         3.57510144E-05
   8.78520012         3.53743562E-05
   8.79720020         3.50973169E-05
   8.80920029         3.49313996E-05
   8.82120037         3.48851245E-05
   8.83320045         3.49636721E-05
   8.84519958         3.51685630E-05
   8.85719967         3.54974691E-05
   8.86919975         3.59441328E-05
   8.88119984         3.64984335E-05
   8.89319992         3.71465867E-05
   8.90520000         3.78715340E-05
   8.91720009         3.86534703E-05
   8.92920017         3.94705094E-05
   8.94120026         4.02994992E-05
   8.95320034         4.11168876E-05
   8.96520042         4.18996606E-05
   8.97719955         4.26262704E-05
   8.98919964         4.32774868E-05
   9.00119972         4.38371535E-05
   9.01319981         4.42927594E-05
   9.02519989         4.46358390E-05
   9.03719997         4.48621140E-05
   9.04920006         4.49714025E-05
   9.06120014         4.49673134E-05
   9.07320023         4.48566934E-05
   9.08520031         4.46489394E-05