 -0.622799993       0.00000000    
 -0.610800028       0.00000000    
 -0.598800004       0.00000000    
 -0.586799979       0.00000000    
 -0.574800014       0.00000000    
 -0.562799990       0.00000000    
 -0.550800025       0.00000000    
 -0.538800001       0.00000000    
 -0.526799977       0.00000000    
 -0.514800012       4.88572363E-32
 -0.502799988       7.67492064E-31
 -0.490799993       5.92454494E-30
 -0.478799999       2.94107558E-29
 -0.466800004       1.02298802E-28
 -0.454800010       2.48148273E-28
 -0.442799985       3.46755309E-28
 -0.430799991      -1.96626554E-28
 -0.418799996      -2.85116595E-27
 -0.406800002      -9.72334236E-27
 -0.394800007      -2.12467112E-26
 -0.382800013      -3.05873975E-26
 -0.370799989      -1.66423951E-26
 -0.358799994       5.55189705E-26
 -0.346799999       2.10471294E-25
 -0.334800005       4.01237878E-25
 -0.322800010       4.27033630E-25
 -0.310799986      -9.26231048E-26
 -0.298799992      -1.54432233E-24
 -0.286799997      -3.81453572E-24
 -0.274800003      -5.51323645E-24
 -0.262800008      -3.42245213E-24
 -0.250800014       6.81683896E-24
 -0.238800004       2.76226146E-23
 -0.226799995       5.37472518E-23
 -0.214800000       6.60860335E-23
 -0.202800006       3.06348674E-23
 -0.190799996      -8.94322394E-23
 -0.178800002      -3.02888383E-22
 -0.166800007      -5.45386169E-22
 -0.154799998      -6.42936481E-22
 -0.142800003      -3.25499610E-22
 -0.130799994       6.63473118E-22
 -0.118799999       2.34462850E-21
 -0.106799997       4.22275905E-21
  -9.48000029E-02   5.10581595E-21
  -8.28000009E-02   3.25933839E-21
  -7.07999989E-02  -2.88805607E-21
  -5.88000007E-02  -1.34694860E-20
  -4.67999987E-02  -2.57022965E-20
  -3.48000005E-02  -3.30409121E-20
  -2.28000004E-02  -2.60834733E-20
  -1.08000003E-02   3.86496385E-21
   1.20000006E-03   5.86586084E-20
   1.31999999E-02   1.26399182E-19
   2.52000000E-02   1.77418377E-19
   3.72000001E-02   1.67832904E-19
   4.91999984E-02   5.42499942E-20
   6.12000003E-02  -1.80812893E-19
   7.32000023E-02  -4.99759779E-19
   8.51999968E-02  -7.90891837E-19
   9.71999988E-02  -8.77049677E-19
  0.109200001      -5.65661517E-19
  0.121200003       2.59737840E-19
  0.133200005       1.52855429E-18
  0.145199999       2.89846444E-18
  0.157199994       3.75643851E-18
  0.169200003       3.35589780E-18
  0.181199998       1.10094503E-18
  0.193200007      -3.07794692E-18
  0.205200002      -8.38719203E-18
  0.217199996      -1.30534486E-17
  0.229200006      -1.45985268E-17
  0.241200000      -1.05821514E-17
  0.253199995       2.87982232E-19
  0.265199989       1.69944869E-17
  0.277200013       3.54854957E-17
  0.289200008       4.89098562E-17
  0.301200002       4.91558696E-17
  0.313199997       2.96310819E-17
  0.325199991      -1.13304628E-17
  0.337199986      -6.75685792E-17
  0.349200010      -1.24100081E-16
  0.361200005      -1.59211436E-16
  0.373199999      -1.50057789E-16
  0.385199994      -8.09601767E-17
  0.397199988       4.77653658E-17
  0.409200013       2.13613358E-16
  0.421200007       3.71631470E-16
  0.433200002       4.62328635E-16
  0.445199996       4.27712066E-16
  0.457199991       2.32424147E-16
  0.469199985      -1.15883451E-16
  0.481200010      -5.54400111E-16
  0.493200004      -9.68105931E-16
  0.505200028      -1.21151557E-15
  0.517199993      -1.14751757E-15
  0.529200017      -6.95281807E-16
  0.541199982       1.26120771E-16
  0.553200006       1.17400662E-15
  0.565199971       2.19153004E-15
  0.577199996       2.85620230E-15
  0.589200020       2.86226557E-15
  0.601199985       2.01955609E-15
  0.613200009       3.42027325E-16
  0.625199974      -1.90404600E-15
  0.637199998      -4.21654822E-15
  0.649200022      -5.94860524E-15
  0.661199987      -6.46353944E-15
  0.673200011      -5.32132694E-15
  0.685199976      -2.44802644E-15
  0.697200000       1.76494508E-15
  0.709200025       6.47430438E-15
  0.721199989       1.05285729E-14
  0.733200014       1.27245381E-14
  0.745199978       1.21235292E-14
  0.757200003       8.34874975E-15
  0.769200027       1.77816060E-15
  0.781199992      -6.43562165E-15
  0.793200016      -1.45477672E-14
  0.805199981      -2.05829108E-14
  0.817200005      -2.28007480E-14
  0.829200029      -2.01536836E-14
  0.841199994      -1.26160933E-14
  0.853200018      -1.28904904E-15
  0.865199983       1.17626661E-14
  0.877200007       2.39161464E-14
  0.889199972       3.25485183E-14
  0.901199996       3.56149843E-14
  0.913200021       3.21065907E-14
  0.925199986       2.22781507E-14
  0.937200010       7.59707662E-15
  0.949199975      -9.56376515E-15
  0.961199999      -2.64026217E-14
  0.973200023      -4.02119710E-14
  0.985199988      -4.88254694E-14
  0.997200012      -5.09004968E-14
   1.00919998      -4.60040365E-14
   1.02119994      -3.45286882E-14
   1.03320003      -1.75089537E-14
   1.04519999       3.57644246E-15
   1.05719995       2.69452175E-14
   1.06920004       5.05618530E-14
   1.08120000       7.21123261E-14
   1.09319997       8.89600825E-14
   1.10520005       9.81650267E-14
   1.11720002       9.66482550E-14
   1.12919998       8.15614462E-14
   1.14119995       5.08750756E-14
   1.15320003       4.13938860E-15
   1.16520000      -5.66955337E-14
   1.17719996      -1.26580116E-13
   1.18920004      -1.97015201E-13
   1.20120001      -2.56295744E-13
   1.21319997      -2.90552901E-13
   1.22520006      -2.85688058E-13
   1.23720002      -2.30109307E-13
   1.24919999      -1.17943348E-13
   1.26119995       4.78447983E-14
   1.27320004       2.53174380E-13
   1.28520000       4.72207072E-13
   1.29719996       6.68988031E-13
   1.30920005       8.01661526E-13
   1.32120001       8.29031884E-13
   1.33319998       7.18646225E-13
   1.34519994       4.55058625E-13
   1.35720003       4.66237800E-14
   1.36919999      -4.70812246E-13
   1.38119996      -1.03457726E-12
   1.39320004      -1.56075717E-12
   1.40520000      -1.95438826E-12
   1.41719997      -2.12308057E-12
   1.42920005      -1.99221152E-12
   1.44120002      -1.51946446E-12
   1.45319998      -7.06501372E-13
   1.46519995       3.94104535E-13
   1.47720003       1.67798522E-12
   1.48920000       2.99478693E-12
   1.50119996       4.16068178E-12
   1.51320004       4.97700318E-12
   1.52520001       5.25388413E-12
   1.53719997       4.83720789E-12
   1.54920006       3.63652901E-12
   1.56120002       1.65089730E-12
   1.57319999      -1.01117563E-12
   1.58519995      -4.12180186E-12
   1.59720004      -7.33796704E-12
   1.60920000      -1.02231860E-11
   1.62119997      -1.22880508E-11
   1.63320005      -1.30485059E-11
   1.64520001      -1.20975148E-11
   1.65719998      -9.18251239E-12
   1.66919994      -4.27830124E-12
   1.68120003       2.35659907E-12
   1.69319999       1.01521283E-11
   1.70519996       1.82376406E-11
   1.71720004       2.54983291E-11
   1.72920001       3.06787477E-11
   1.74119997       3.25291113E-11
   1.75320005       2.99834463E-11
   1.76520002       2.23525868E-11
   1.77719998       9.50939587E-12
   1.78919995      -7.96017592E-12
   1.80120003      -2.86685328E-11
   1.81320000      -5.04274608E-11
   1.82519996      -7.03613903E-11
   1.83720005      -8.51466328E-11
   1.84920001      -9.13774195E-11
   1.86119998      -8.60427007E-11
   1.87320006      -6.70777878E-11
   1.88520002      -3.39348653E-11
   1.89719999       1.19022960E-11
   1.90919995       6.65463032E-11
   1.92120004       1.23567628E-10
   1.93320000       1.74171497E-10
   1.94519997       2.07749346E-10
   1.95720005       2.12826812E-10
   1.96920002       1.78380269E-10
   1.98119998       9.54367210E-11
   1.99319994      -4.11872862E-11
   2.00519991      -2.31203209E-10
   2.01719999      -4.67455685E-10
   2.02920008      -7.35055627E-10
   2.04119992      -1.01125930E-09
   2.05320001      -1.26625255E-09
   2.06520009      -1.46490164E-09
   2.07719994      -1.56941093E-09
   2.08920002      -1.54267443E-09
   2.10120010      -1.35195743E-09
   2.11319995      -9.72400493E-10
   2.12520003      -3.89721144E-10
   2.13720012       3.98584332E-10
   2.14919996       1.38424561E-09
   2.16120005       2.55209009E-09
   2.17319989       3.88732690E-09
   2.18519998       5.38660494E-09
   2.19720006       7.07297643E-09
   2.20919991       9.01465125E-09
   2.22119999       1.13471339E-08
   2.23320007       1.42980738E-08
   2.24519992       1.82139157E-08
   2.25720000       2.35872264E-08
   2.26920009       3.10834132E-08
   2.28119993       4.15654675E-08
   2.29320002       5.61152724E-08
   2.30520010       7.60501067E-08
   2.31719995       1.02932994E-07
   2.32920003       1.38575444E-07
   2.34120011       1.85031695E-07
   2.35319996       2.44583049E-07
   2.36520004       3.19711461E-07
   2.37719989       4.13061599E-07
   2.38919997       5.27390398E-07
   2.40120006       6.65503876E-07
   2.41319990       8.30180454E-07
   2.42519999       1.02408148E-06
   2.43720007       1.24964947E-06
   2.44919991       1.50899450E-06
   2.46120000       1.80377219E-06
   2.47320008       2.13505541E-06
   2.48519993       2.50320545E-06
   2.49720001       2.90774415E-06
   2.50920010       3.34724064E-06
   2.52119994       3.81920927E-06
   2.53320003       4.32003799E-06
   2.54520011       4.84494331E-06
   2.55719995       5.38796985E-06
   2.56920004       5.94203220E-06
   2.58119988       6.49900221E-06
   2.59319997       7.04985587E-06
   2.60520005       7.58486294E-06
   2.61719990       8.09382436E-06
   2.62919998       8.56635143E-06
   2.64120007       8.99217048E-06
   2.65319991       9.36144625E-06
   2.66520000       9.66510470E-06
   2.67720008       9.89514228E-06
   2.68919992       1.00449097E-05
   2.70120001       1.01093410E-05
   2.71320009       1.00851330E-05
   2.72519994       9.97085135E-06
   2.73720002       9.76696538E-06
   2.74920011       9.47580065E-06
   2.76119995       9.10141898E-06
   2.77320004       8.64943650E-06
   2.78520012       8.12677808E-06
   2.79719996       7.54139182E-06
   2.80920005       6.90193929E-06
   2.82119989       6.21747540E-06
   2.83319998       5.49714241E-06
   2.84520006       4.74988519E-06
   2.85719991       3.98421071E-06
   2.86919999       3.20799381E-06
   2.88120008       2.42834085E-06
   2.89319992       1.65151118E-06
   2.90520000       8.82893175E-07
   2.91720009       1.27031029E-07
   2.92919993      -6.12309577E-07
   2.94120002      -1.33204651E-06
   2.95320010      -2.02967158E-06
   2.96519995      -2.70313467E-06
   2.97720003      -3.35073810E-06
   2.98920012      -3.97104623E-06
   3.00119996      -4.56282078E-06
   3.01320004      -5.12497991E-06
   3.02519989      -5.65658820E-06
   3.03719997      -6.15686986E-06
   3.04920006      -6.62524144E-06
   3.06119990      -7.06135961E-06
   3.07319999      -7.46517344E-06
   3.08520007      -7.83697124E-06
   3.09719992      -8.17742784E-06
   3.10920000      -8.48762011E-06
   3.12120008      -8.76904323E-06
   3.13319993      -9.02358897E-06
   3.14520001      -9.25351196E-06
   3.15720010      -9.46137789E-06
   3.16919994      -9.64999435E-06
   3.18120003      -9.82232814E-06
   3.19320011      -9.98143241E-06
   3.20519996      -1.01303522E-05
   3.21720004      -1.02720542E-05
   3.22919989      -1.04093497E-05
   3.24119997      -1.05448344E-05
   3.25320005      -1.06808402E-05
   3.26519990      -1.08193863E-05
   3.27719998      -1.09621533E-05
   3.28920007      -1.11104537E-05
   3.30119991      -1.12652215E-05
   3.31320000      -1.14270006E-05
   3.32520008      -1.15959492E-05
   3.33719993      -1.17718428E-05
   3.34920001      -1.19541028E-05
   3.36120009      -1.21418316E-05
   3.37319994      -1.23338614E-05
   3.38520002      -1.25288252E-05
   3.39720011      -1.27252406E-05
   3.40919995      -1.29216196E-05
   3.42120004      -1.31165798E-05
   3.43319988      -1.33089734E-05
   3.44519997      -1.34980119E-05
   3.45720005      -1.36833851E-05
   3.46919990      -1.38653659E-05
   3.48119998      -1.40448756E-05
   3.49320006      -1.42235285E-05
   3.50519991      -1.44036085E-05
   3.51719999      -1.45880203E-05
   3.52920008      -1.47801611E-05
   3.54119992      -1.49837542E-05
   3.55320001      -1.52026314E-05
   3.56520009      -1.54404861E-05
   3.57719994      -1.57005852E-05
   3.58920002      -1.59854953E-05
   3.60120010      -1.62968117E-05
   3.61319995      -1.66349237E-05
   3.62520003      -1.69988216E-05
   3.63720012      -1.73859808E-05
   3.64919996      -1.77923175E-05
   3.66120005      -1.82122312E-05
   3.67319989      -1.86387351E-05
   3.68519998      -1.90636711E-05
   3.69720006      -1.94780005E-05
   3.70919991      -1.98721482E-05
   3.72119999      -2.02364008E-05
   3.73320007      -2.05612978E-05
   3.74519992      -2.08380552E-05
   3.75720000      -2.10589242E-05
   3.76920009      -2.12175219E-05
   3.78119993      -2.13090843E-05
   3.79320002      -2.13306394E-05
   3.80520010      -2.12810864E-05
   3.81719995      -2.11611878E-05
   3.82920003      -2.09734571E-05
   3.84120011      -2.07219782E-05
   3.85319996      -2.04121643E-05
   3.86520004      -2.00504473E-05
   3.87719989      -1.96439723E-05
   3.88919997      -1.92002772E-05
   3.90120006      -1.87269925E-05
   3.91319990      -1.82315925E-05
   3.92519999      -1.77211950E-05
   3.93720007      -1.72024465E-05
   3.94919991      -1.66814734E-05
   3.96120000      -1.61639036E-05
   3.97320008      -1.56549759E-05
   3.98519993      -1.51596887E-05
   3.99720001      -1.46830043E-05
   4.00920010      -1.42300696E-05
   4.02120018      -1.38064433E-05
   4.03319979      -1.34182992E-05
   4.04519987      -1.30725894E-05
   4.05719995      -1.27771527E-05
   4.06920004      -1.25407450E-05
   4.08120012      -1.23729806E-05
   4.09320021      -1.22841839E-05
   4.10519981      -1.22851279E-05
   4.11719990      -1.23866876E-05
   4.12919998      -1.25993811E-05
   4.14120007      -1.29328264E-05
   4.15320015      -1.33951189E-05
   4.16520023      -1.39921440E-05
   4.17719984      -1.47268202E-05
   4.18919992      -1.55983344E-05
   4.20120001      -1.66013524E-05
   4.21320009      -1.77252441E-05
   4.22520018      -1.89533421E-05
   4.23719978      -2.02622850E-05
   4.24919987      -2.16214412E-05
   4.26119995      -2.29924644E-05
   4.27320004      -2.43290215E-05
   4.28520012      -2.55766972E-05
   4.29720020      -2.66731222E-05
   4.30919981      -2.75483526E-05
   4.32119989      -2.81254979E-05
   4.33319998      -2.83216414E-05
   4.34520006      -2.80490258E-05
   4.35720015      -2.72165271E-05
   4.36920023      -2.57313895E-05
   4.38119984      -2.35011921E-05
   4.39319992      -2.04360258E-05
   4.40520000      -1.64508292E-05
   4.41720009      -1.14678396E-05
   4.42920017      -5.41909230E-06
   4.44119978       1.75109233E-06
   4.45319986       1.00836924E-05
   4.46519995       1.96027268E-05
   4.47720003       3.03132001E-05
   4.48920012       4.21993536E-05
   4.50120020       5.52232450E-05
   4.51319981       6.93237380E-05
   4.52519989       8.44159804E-05
   4.53719997       1.00391349E-04
   4.54920006       1.17117961E-04
   4.56120014       1.34441754E-04
   4.57320023       1.52188120E-04
   4.58519983       1.70164174E-04
   4.59719992       1.88161415E-04
   4.60920000       2.05959106E-04
   4.62120008       2.23328025E-04
   4.63320017       2.40034598E-04
   4.64519978       2.55845400E-04
   4.65719986       2.70531833E-04
   4.66919994       2.83874950E-04
   4.68120003       2.95670354E-04
   4.69320011       3.05732654E-04
   4.70520020       3.13900149E-04
   4.71719980       3.20038642E-04
   4.72919989       3.24045046E-04
   4.74119997       3.25850298E-04
   4.75320005       3.25421250E-04
   4.76520014       3.22762353E-04
   4.77720022       3.17915896E-04
   4.78919983       3.10961652E-04
   4.80119991       3.02015367E-04
   4.81320000       2.91226723E-04
   4.82520008       2.78776133E-04
   4.83720016       2.64870963E-04
   4.84919977       2.49741162E-04
   4.86119986       2.33634055E-04
   4.87319994       2.16809174E-04
   4.88520002       1.99532617E-04
   4.89720011       1.82071235E-04
   4.90920019       1.64687124E-04
   4.92119980       1.47632250E-04
   4.93319988       1.31143330E-04
   4.94519997       1.15437339E-04
   4.95720005       1.00707475E-04
   4.96920013       8.71198790E-05
   4.98120022       7.48110251E-05
   4.99319983       6.38858619E-05
   5.00519991       5.44167306E-05
   5.01719999       4.64430777E-05
   5.02920008       3.99718883E-05
   5.04120016       3.49788534E-05
   5.05319977       3.14101635E-05
   5.06519985       2.91849101E-05
   5.07719994       2.81980319E-05
   5.08920002       2.83236459E-05
   5.10120010       2.94187957E-05
   5.11320019       3.13273995E-05
   5.12519979       3.38843929E-05
   5.13719988       3.69199224E-05
   5.14919996       4.02635087E-05
   5.16120005       4.37480594E-05
   5.17320013       4.72136926E-05
   5.18520021       5.05111784E-05
   5.19719982       5.35050422E-05
   5.20919991       5.60761764E-05
   5.22119999       5.81239328E-05
   5.23320007       5.95676211E-05
   5.24520016       6.03474764E-05
   5.25719976       6.04249835E-05
   5.26919985       5.97826293E-05
   5.28119993       5.84231238E-05
   5.29320002       5.63680805E-05
   5.30520010       5.36562984E-05
   5.31720018       5.03416304E-05
   5.32919979       4.64905897E-05
   5.34119987       4.21797668E-05
   5.35319996       3.74931406E-05
   5.36520004       3.25193541E-05
   5.37720013       2.73490987E-05
   5.38920021       2.20726342E-05
   5.40119982       1.67775233E-05
   5.41319990       1.15466473E-05
   5.42519999       6.45654018E-06
   5.43720007       1.57605450E-06
   5.44920015      -3.03461593E-06
   5.46120024      -7.32456419E-06
   5.47319984      -1.12524649E-05
   5.48519993      -1.47865630E-05
   5.49720001      -1.79043873E-05
   5.50920010      -2.05922352E-05
   5.52120018      -2.28444733E-05
   5.53319979      -2.46627078E-05
   5.54519987      -2.60548586E-05
   5.55719995      -2.70342025E-05
   5.56920004      -2.76184219E-05
   5.58120012      -2.78286843E-05
   5.59320021      -2.76888131E-05
   5.60519981      -2.72245434E-05
   5.61719990      -2.64628979E-05
   5.62919998      -2.54317001E-05
   5.64120007      -2.41592079E-05
   5.65320015      -2.26738775E-05
   5.66520023      -2.10042399E-05
   5.67719984      -1.91788768E-05
   5.68919992      -1.72264845E-05
   5.70120001      -1.51759541E-05
   5.71320009      -1.30565295E-05
   5.72520018      -1.08979157E-05
   5.73719978      -8.73036970E-06
   5.74919987      -6.58474119E-06
   5.76119995      -4.49242589E-06
   5.77320004      -2.48521224E-06
   5.78520012      -5.95029803E-07
   5.79720020       1.14643456E-06
   5.80919981       2.70823148E-06
   5.82119989       4.06076060E-06
   5.83319998       5.17647823E-06
   5.84520006       6.03067883E-06
   5.85720015       6.60232581E-06
   5.86920023       6.87489046E-06
   5.88119984       6.83716917E-06
   5.89319992       6.48403557E-06
   5.90520000       5.81708173E-06
   5.91720009       4.84512248E-06
   5.92920017       3.58451416E-06
   5.94119978       2.05926858E-06
   5.95319986       3.00939433E-07
   5.96519995      -1.65173446E-06
   5.97720003      -3.75343143E-06
   5.98920012      -5.95308029E-06
   6.00120020      -8.19491743E-06
   6.01319981      -1.04197379E-05
   6.02519989      -1.25662973E-05
   6.03719997      -1.45728363E-05
   6.04920006      -1.63786717E-05
   6.06120014      -1.79258077E-05
   6.07320023      -1.91605232E-05
   6.08519983      -2.00348768E-05
   6.09719992      -2.05080814E-05
   6.10920000      -2.05477390E-05
   6.12120008      -2.01308558E-05
   6.13320017      -1.92446441E-05
   6.14519978      -1.78870705E-05
   6.15719986      -1.60671625E-05
   6.16919994      -1.38050254E-05
   6.18120003      -1.11316231E-05
   6.19320011      -8.08827372E-06
   6.20520020      -4.72591591E-06
   6.21719980      -1.10411986E-06
   6.22919989       2.71010140E-06
   6.24119997       6.64369190E-06
   6.25320005       1.06191183E-05
   6.26520014       1.45560871E-05
   6.27720022       1.83733664E-05
   6.28919983       2.19907070E-05
   6.30119991       2.53307753E-05
   6.31320000       2.83211175E-05
   6.32520008       3.08960480E-05
   6.33720016       3.29984578E-05
   6.34919977       3.45814478E-05
   6.36119986       3.56097808E-05
   6.37319994       3.60610538E-05
   6.38520002       3.59265578E-05
   6.39720011       3.52118004E-05
   6.40920019       3.39365979E-05
   6.42119980       3.21347870E-05
   6.43319988       2.98534724E-05
   6.44519997       2.71518493E-05
   6.45720005       2.40996469E-05
   6.46920013       2.07751636E-05
   6.48120022       1.72630189E-05
   6.49319983       1.36516619E-05
   6.50519991       1.00307207E-05
   6.51719999       6.48830701E-06
   6.52920008       3.10836867E-06
   6.54120016      -3.18130304E-08
   6.55319977      -2.86386739E-06
   6.56519985      -5.33024922E-06
   6.57719994      -7.38573453E-06
   6.58920002      -8.99844599E-06
   6.60120010      -1.01503811E-05
   6.61320019      -1.08374225E-05
   6.62519979      -1.10688443E-05
   6.63719988      -1.08663608E-05
   6.64919996      -1.02627564E-05
   6.66120005      -9.30018177E-06
   6.67320013      -8.02820432E-06
   6.68520021      -6.50169068E-06
   6.69719982      -4.77863523E-06
   6.70919991      -2.91801030E-06
   6.72119999      -9.77738296E-07
   6.73320007       9.87153612E-07
   6.74520016       2.92612572E-06
   6.75719976       4.79442633E-06
   6.76919985       6.55407075E-06
   6.78119993       8.17448836E-06
   6.79320002       9.63284037E-06
   6.80520010       1.09140237E-05
   6.81720018       1.20103959E-05
   6.82919979       1.29212485E-05
   6.84119987       1.36520739E-05
   6.85319996       1.42136751E-05
   6.86520004       1.46211605E-05
   6.87720013       1.48928775E-05
   6.88920021       1.50493206E-05
   6.90119982       1.51120621E-05
   6.91319990       1.51027461E-05
   6.92519999       1.50421647E-05
   6.93720007       1.49494690E-05
   6.94920015       1.48415120E-05
   6.96120024       1.47323508E-05
   6.97319984       1.46329185E-05
   6.98519993       1.45508511E-05
   6.99720001       1.44904952E-05
   7.00920010       1.44530341E-05
   7.02120018       1.44367614E-05
   7.03319979       1.44374399E-05
   7.04519987       1.44487349E-05
   7.05719995       1.44626893E-05
   7.06920004       1.44701999E-05
   7.08120012       1.44614778E-05
   7.09320021       1.44264686E-05
   7.10519981       1.43552024E-05
   7.11719990       1.42380795E-05
   7.12919998       1.40660968E-05
   7.14120007       1.38309888E-05
   7.15320015       1.35253440E-05
   7.16520023       1.31426905E-05
   7.17719984       1.26775740E-05
   7.18919992       1.21256680E-05
   7.20120001       1.14839213E-05
   7.21320009       1.07507676E-05
   7.22520018       9.92639525E-06
   7.23719978       9.01308067E-06
   7.24919987       8.01555598E-06
   7.26119995       6.94139408E-06
   7.27320004       5.80137157E-06
   7.28520012       4.60976617E-06
   7.29720020       3.38454606E-06
   7.30919981       2.14740930E-06
   7.32119989       9.23634559E-07
   7.33319998      -2.58279670E-07
   7.34520006      -1.36719893E-06
   7.35720015      -2.37016093E-06
   7.36920023      -3.23338350E-06
   7.38119984      -3.92344054E-06
   7.39319992      -4.40855229E-06
   7.40520000      -4.65993708E-06
   7.41720009      -4.65314542E-06
   7.42920017      -4.36932032E-06
   7.44119978      -3.79630524E-06
   7.45319986      -2.92954451E-06
   7.46519995      -1.77272682E-06
   7.47720003      -3.38132196E-07
   7.48920012       1.35333414E-06
   7.50120020       3.27243015E-06
   7.51319981       5.38217500E-06
   7.52519989       7.63873322E-06
   7.53719997       9.99254735E-06
   7.54920006       1.23896843E-05
   7.56120014       1.47733272E-05
   7.57320023       1.70853764E-05
   7.58519983       1.92681127E-05
   7.59719992       2.12658360E-05
   7.60920000       2.30264759E-05
   7.62120008       2.45030951E-05
   7.63320017       2.56552739E-05
   7.64519978       2.64503087E-05
   7.65719986       2.68642252E-05
   7.66919994       2.68825479E-05
   7.68120003       2.65008548E-05
   7.69320011       2.57250304E-05
   7.70520020       2.45712708E-05
   7.71719980       2.30657970E-05
   7.72919989       2.12442919E-05
   7.74119997       1.91510735E-05
   7.75320005       1.68380302E-05
   7.76520014       1.43633115E-05
   7.77720022       1.17898626E-05
   7.78919983       9.18379465E-06
   7.80119991       6.61267450E-06
   7.81320000       4.14375927E-06
   7.82520008       1.84224666E-06
   7.83720016      -2.30426195E-07
   7.84919977      -2.01817488E-06
   7.86119986      -3.47171863E-06
   7.87319994      -4.54984865E-06
   7.88520002      -5.22049049E-06
   7.89720011      -5.46153615E-06
   7.90920019      -5.26143094E-06
   7.92119980      -4.61950913E-06
   7.93319988      -3.54606937E-06
   7.94519997      -2.06219465E-06
   7.95720005      -1.99311472E-07
   7.96920013       2.00149702E-06
   7.98120022       4.49042636E-06
   7.99319983       7.21011475E-06
   8.00520039       1.00970228E-05
   8.01720047       1.30830122E-05
   8.02919960       1.60970794E-05
   8.04119968       1.90672290E-05
   8.05319977       2.19224039E-05
   8.06519985       2.45944684E-05
   8.07719994       2.70201235E-05
   8.08920002       2.91427132E-05
   8.10120010       3.09138632E-05
   8.11320019       3.22948581E-05
   8.12520027       3.32576819E-05
   8.13720036       3.37857309E-05
   8.14920044       3.38740974E-05
   8.16119957       3.35294171E-05
   8.17319965       3.27693488E-05
   8.18519974       3.16216247E-05
   8.19719982       3.01227938E-05
   8.20919991       2.83166719E-05
   8.22119999       2.62526319E-05
   8.23320007       2.39837864E-05
   8.24520016       2.15651762E-05
   8.25720024       1.90520750E-05
   8.26920033       1.64984358E-05
   8.28120041       1.39556087E-05
   8.29319954       1.14713312E-05
   8.30519962       9.08902985E-06
   8.31719971       6.84741462E-06
   8.32919979       4.78036327E-06
   8.34119987       2.91702236E-06
   8.35319996       1.28209319E-06
   8.36520004      -1.03784252E-07
   8.37720013      -1.22360950E-06
   8.38920021      -2.06362461E-06
   8.40120029      -2.61299670E-06
   8.41320038      -2.86362047E-06
   8.42520046      -2.81005168E-06
   8.43719959      -2.44958756E-06
   8.44919968      -1.78246194E-06
   8.46119976      -8.12134374E-07
   8.47319984       4.54374288E-07
   8.48519993       2.00614795E-06
   8.49720001       3.82809048E-06
   8.50920010       5.90073842E-06
   8.52120018       8.20020523E-06
   8.53320026       1.06982807E-05
   8.54520035       1.33626991E-05
   8.55720043       1.61575699E-05
   8.56919956       1.90439605E-05
   8.58119965       2.19805970E-05
   8.59319973       2.49246641E-05
   8.60519981       2.78326534E-05
   8.61719990       3.06612419E-05
   8.62919998       3.33681601E-05
   8.64120007       3.59130245E-05
   8.65320015       3.82581202E-05
   8.66520023       4.03691192E-05
   8.67720032       4.22157209E-05
   8.68920040       4.37722083E-05
   8.70119953       4.50179614E-05
   8.71319962       4.59378280E-05
   8.72519970       4.65224621E-05
   8.73719978       4.67685350E-05
   8.74919987       4.66788333E-05
   8.76119995       4.62622593E-05
   8.77320004       4.55336449E-05
   8.78520012       4.45134319E-05
   8.79720020       4.32272100E-05
   8.80920029       4.17050323E-05
   8.82120037       3.99806158E-05
   8.83320045       3.80903803E-05
   8.84519958       3.60724043E-05
   8.85719967       3.39653016E-05
   8.86919975       3.18070961E-05
   8.88119984       2.96341841E-05
   8.89319992       2.74803606E-05
   8.90520000       2.53760463E-05
   8.91720009       2.33477094E-05
   8.92920017       2.14175379E-05
   8.94120026       1.96033470E-05
   8.95320034       1.79187264E-05
   8.96520042       1.63734112E-05
   8.97719955       1.49738216E-05
   8.98919964       1.37236930E-05
   9.00119972       1.26247678E-05
   9.01319981       1.16774727E-05
   9.02519989       1.08814884E-05
   9.03719997       1.02361973E-05
   9.04920006       9.74094928E-06
   9.06120014       9.39513666E-06
   9.07320023       9.19806826E-06
   9.08520031       9.14867269E-06
   9.09720039       9.24507549E-06
   9.10919952       9.48408615E-06
   9.12119961       9.86066789E-06
   9.13319969       1.03674629E-05
   9.14519978       1.09944112E-05
   9.15719986       1.17285445E-05
   9.16919994       1.25539691E-05
   9.18120003       1.34520678E-05
   9.19320011       1.44019368E-05
   9.20520020       1.53810124E-05
   9.21720028       1.63658879E-05
   9.22920036       1.73332446E-05
   9.24120045       1.82608510E-05
   9.25319958       1.91285708E-05
   9.26519966       1.99192946E-05
   9.27719975       2.06197674E-05
   9.28919983       2.12212180E-05
   9.30119991       2.17197903E-05
   9.31320000       2.21167156E-05
   9.32520008       2.24182349E-05
   9.33720016       2.26352586E-05
   9.34920025       2.27827895E-05
   9.36120033       2.28791341E-05
   9.37320042       2.29449524E-05
   9.38519955       2.30021669E-05
   9.39719963       2.30728256E-05
   9.40919971       2.31779377E-05
   9.42119980       2.33363571E-05
   9.43319988       2.35637908E-05
   9.44519997       2.38719222E-05
