 -0.622799993         1.00000002E-24
 -0.610800028         1.00000002E-24
 -0.598800004         1.00000002E-24
 -0.586799979         1.00000002E-24
 -0.574800014         1.00000002E-24
 -0.562799990         1.00000002E-24
 -0.550800025         1.00000012E-24
 -0.538800001         1.00000022E-24
 -0.526799977         1.00000022E-24
 -0.514800012         1.00000012E-24
 -0.502799988         9.99999231E-25
 -0.490799993         9.99993018E-25
 -0.478799999         9.99964521E-25
 -0.466800004         9.99879718E-25
 -0.454800010         9.99731807E-25
 -0.442799985         9.99741372E-25
 -0.430799991         1.00076127E-24
 -0.418799996         1.00450856E-24
 -0.406800002         1.01225547E-24
 -0.394800007         1.01980033E-24
 -0.382800013         1.00828069E-24
 -0.370799989         9.38217617E-25
 -0.358799994         7.68418660E-25
 -0.346799999         5.31373107E-25
 -0.334800005         4.75435374E-25
 -0.322800010         1.19819343E-24
 -0.310799986         3.54445184E-24
 -0.298799992         7.91888396E-24
 -0.286799997         1.27879717E-23
 -0.274800003         1.27894074E-23
 -0.262800008        -1.90753568E-24
 -0.250800014        -4.20754394E-23
 -0.238800004        -1.08888730E-22
 -0.226799995        -1.76816293E-22
 -0.214800000        -1.77956102E-22
 -0.202800006        -5.69289243E-24
 -0.190799996         4.39004754E-22
 -0.178800002         1.14509605E-21
 -0.166800007         1.85355989E-21
 -0.154799998         1.96161015E-21
 -0.142800003         6.01615417E-22
 -0.130799994        -2.96802986E-21
 -0.118799999        -8.62584024E-21
 -0.106799997        -1.45081421E-20
  -9.48000029E-02    -1.65136011E-20
  -8.28000009E-02    -8.95533438E-21
  -7.07999989E-02     1.29773701E-20
  -5.88000007E-02     4.89644491E-20
  -4.67999987E-02     8.88058779E-20
  -3.48000005E-02     1.09981999E-19
  -2.28000004E-02     8.12093872E-20
  -1.08000003E-02    -2.51714065E-20
   1.20000006E-03    -2.12544071E-19
   1.31999999E-02    -4.37405663E-19
   2.52000000E-02    -5.97284786E-19
   3.72000001E-02    -5.44759386E-19
   4.91999984E-02    -1.38980909E-19
   6.12000003E-02     6.67885944E-19
   7.32000023E-02     1.73417423E-18
   8.51999968E-02     2.67009952E-18
   9.71999988E-02     2.87599201E-18
  0.109200001         1.72141249E-18
  0.121200003        -1.13965967E-18
  0.133200005        -5.39897353E-18
  0.145199999        -9.83027230E-18
  0.157199994        -1.23337146E-17
  0.169200003        -1.04502285E-17
  0.181199998        -2.36114136E-18
  0.193200007         1.18467749E-17
  0.205200002         2.91231533E-17
  0.217199996         4.32277441E-17
  0.229200006         4.58882448E-17
  0.241200000         2.95195647E-17
  0.253199995        -8.96178725E-18
  0.265199989        -6.44301699E-17
  0.277200013        -1.21678850E-16
  0.289200008        -1.57093682E-16
  0.301200002        -1.44785314E-16
  0.313199997        -6.65414260E-17
  0.325199991         7.69758595E-17
  0.337199986         2.57993636E-16
  0.349200010         4.21056213E-16
  0.361200005         4.93530205E-16
  0.373199999         4.07381740E-16
  0.385199994         1.27900069E-16
  0.397199988        -3.19388755E-16
  0.409200013        -8.34889089E-16
  0.421200007        -1.25436379E-15
  0.433200002        -1.38634624E-15
  0.445199996        -1.07313124E-15
  0.457199991        -2.60526820E-16
  0.469199985         9.46548837E-16
  0.481200010         2.26755717E-15
  0.493200004         3.28721141E-15
  0.505200028         3.55673581E-15
  0.517199993         2.73777777E-15
  0.529200017         7.51114619E-16
  0.541199982        -2.11979185E-15
  0.553200006        -5.21807998E-15
  0.565199971        -7.62385048E-15
  0.577199996        -8.38000103E-15
  0.589200020        -6.78792426E-15
  0.601199985        -2.69369691E-15
  0.613200009         3.32940234E-15
  0.625199974         9.98316759E-15
  0.637199998         1.54704910E-14
  0.649200022         1.79212351E-14
  0.661199987         1.59271739E-14
  0.673200011         9.04519125E-15
  0.685199976        -1.88664328E-15
  0.697200000        -1.47442669E-14
  0.709200025        -2.64750854E-14
  0.721199989        -3.37699636E-14
  0.733200014        -3.39055905E-14
  0.745199978        -2.55477351E-14
  0.757200003        -9.29463822E-15
  0.769200027         1.22102196E-14
  0.781199992         3.46656636E-14
  0.793200016         5.29448481E-14
  0.805199981         6.22005160E-14
  0.817200005         5.89986027E-14
  0.829200029         4.22232507E-14
  0.841199994         1.35461041E-14
  0.853200018        -2.26519209E-14
  0.865199983        -5.99052329E-14
  0.877200007        -9.07310183E-14
  0.889199972        -1.07964046E-13
  0.901199996        -1.06146882E-13
  0.913200021        -8.27568740E-14
  0.925199986        -3.90639195E-14
  0.937200010         1.95624106E-14
  0.949199975         8.40350196E-14
  0.961199999         1.42687606E-13
  0.973200023         1.83119768E-13
  0.985199988         1.94541825E-13
  0.997200012         1.70236072E-13
   1.00919998         1.09610434E-13
   1.02119994         1.92776957E-14
   1.03320003        -8.72952088E-14
   1.04519999        -1.91743946E-13
   1.05719995        -2.74142661E-13
   1.06920004        -3.17069125E-13
   1.08120000        -3.09444554E-13
   1.09319997        -2.49137597E-13
   1.10520005        -1.43574063E-13
   1.11720002        -8.12342035E-15
   1.12919998         1.37309218E-13
   1.14119995         2.72481880E-13
   1.15320003         3.80527559E-13
   1.16520000         4.50061321E-13
   1.17719996         4.75148458E-13
   1.18920004         4.53433704E-13
   1.20120001         3.83520906E-13
   1.21319997         2.63124564E-13
   1.22520006         8.93644696E-14
   1.23720002        -1.38184101E-13
   1.24919999        -4.12237817E-13
   1.26119995        -7.12085664E-13
   1.27320004        -9.99887456E-13
   1.28520000        -1.22142964E-12
   1.29719996        -1.31282030E-12
   1.30920005        -1.21292093E-12
   1.32120001        -8.79371717E-13
   1.33319998        -3.04478665E-13
   1.34519994         4.73435256E-13
   1.35720003         1.36705946E-12
   1.36919999         2.24760271E-12
   1.38119996         2.96239097E-12
   1.39320004         3.35960947E-12
   1.40520000         3.31536578E-12
   1.41719997         2.75759667E-12
   1.42920005         1.68211213E-12
   1.44120002         1.58029080E-13
   1.45319998        -1.67761811E-12
   1.46519995        -3.63393777E-12
   1.47720003        -5.48531793E-12
   1.48920000        -6.99190358E-12
   1.50119996        -7.91884787E-12
   1.51320004        -8.05377293E-12
   1.52520001        -7.22393716E-12
   1.53719997        -5.31585323E-12
   1.54920006        -2.29979425E-12
   1.56120002         1.74044546E-12
   1.57319999         6.57574169E-12
   1.58519995         1.18052720E-11
   1.59720004         1.68466074E-11
   1.60920000         2.09548091E-11
   1.62119997         2.32813404E-11
   1.63320005         2.29779980E-11
   1.64520001         1.93420210E-11
   1.65719998         1.19873859E-11
   1.66919994         1.01610278E-12
   1.68120003        -1.28449517E-11
   1.69319999        -2.81792003E-11
   1.70519996        -4.29207815E-11
   1.71720004        -5.45215262E-11
   1.72920001        -6.02469533E-11
   1.74119997        -5.75807527E-11
   1.75320005        -4.46938181E-11
   1.76520002        -2.09138904E-11
   1.77719998         1.28802108E-11
   1.78919995         5.40179325E-11
   1.80120003         9.80185447E-11
   1.81320000         1.38843007E-10
   1.82519996         1.69435230E-10
   1.83720005         1.82535903E-10
   1.84920001         1.71715267E-10
   1.86119998         1.32534012E-10
   1.87320006         6.37107520E-11
   1.88520002        -3.18494398E-11
   1.89719999        -1.46322496E-10
   1.90919995        -2.66684064E-10
   1.92120004        -3.75014936E-10
   1.93320000        -4.49489973E-10
   1.94519997        -4.66090722E-10
   1.95720005        -4.01005090E-10
   1.96920002        -2.33592812E-10
   1.98119998         5.02997782E-11
   1.99319994         4.54973698E-10
   2.00519991         9.71826508E-10
   2.01719999         1.57701652E-09
   2.02920008         2.23022956E-09
   2.04119992         2.87487301E-09
   2.05320001         3.43990281E-09
   2.06520009         3.84331367E-09
   2.07719994         3.99710220E-09
   2.08920002         3.81326748E-09
   2.10120010         3.21012661E-09
   2.11319995         2.11797846E-09
   2.12520003         4.82896889E-10
   2.13720012        -1.73274739E-09
   2.14919996        -4.55459315E-09
   2.16120005        -8.00702615E-09
   2.17319989        -1.21319417E-08
   2.18519998        -1.70170296E-08
   2.19720006        -2.28348576E-08
   2.20919991        -2.98937657E-08
   2.22119999        -3.87012093E-08
   2.23320007        -5.00395920E-08
   2.24519992        -6.50541594E-08
   2.25720000        -8.53515800E-08
   2.26920009        -1.13107149E-07
   2.28119993        -1.51177417E-07
   2.29320002        -2.03213958E-07
   2.30520010        -2.73772997E-07
   2.31719995        -3.68414078E-07
   2.32920003        -4.93780476E-07
   2.34120011        -6.57652322E-07
   2.35319996        -8.68963184E-07
   2.36520004        -1.13777128E-06
   2.37719989        -1.47517528E-06
   2.38919997        -1.89316711E-06
   2.40120006        -2.40441386E-06
   2.41319990        -3.02196736E-06
   2.42519999        -3.75889613E-06
   2.43720007        -4.62784556E-06
   2.44919991        -5.64053107E-06
   2.46120000        -6.80718085E-06
   2.47320008        -8.13593761E-06
   2.48519993        -9.63224102E-06
   2.49720001        -1.12982316E-05
   2.50920010        -1.31321804E-05
   2.52119994        -1.51279955E-05
   2.53320003        -1.72748241E-05
   2.54520011        -1.95567882E-05
   2.55719995        -2.19528883E-05
   2.56920004        -2.44370658E-05
   2.58119988        -2.69784869E-05
   2.59319997        -2.95420105E-05
   2.60520005        -3.20888612E-05
   2.61719990        -3.45774970E-05
   2.62919998        -3.69646441E-05
   2.64120007        -3.92064394E-05
   2.65319991        -4.12597001E-05
   2.66520000        -4.30832297E-05
   2.67720008        -4.46390841E-05
   2.68919992        -4.58938302E-05
   2.70120001        -4.68196595E-05
   2.71320009        -4.73953369E-05
   2.72519994        -4.76069545E-05
   2.73720002        -4.74484659E-05
   2.74920011        -4.69219231E-05
   2.76119995        -4.60374467E-05
   2.77320004        -4.48129576E-05
   2.78520012        -4.32736088E-05
   2.79719996        -4.14509996E-05
   2.80920005        -3.93821974E-05
   2.82119989        -3.71085735E-05
   2.83319998        -3.46745619E-05
   2.84520006        -3.21263396E-05
   2.85719991        -2.95105165E-05
   2.86919999        -2.68728527E-05
   2.88120008        -2.42570768E-05
   2.89319992        -2.17038250E-05
   2.90520000        -1.92497500E-05
   2.91720009        -1.69267933E-05
   2.92919993        -1.47616756E-05
   2.94120002        -1.27755675E-05
   2.95320010        -1.09839530E-05
   2.96519995        -9.39668280E-06
   2.97720003        -8.01818715E-06
   2.98920012        -6.84782071E-06
   3.00119996        -5.88032572E-06
   3.01320004        -5.10637619E-06
   3.02519989        -4.51318147E-06
   3.03719997        -4.08511369E-06
   3.04920006        -3.80434426E-06
   3.06119990        -3.65146389E-06
   3.07319999        -3.60606873E-06
   3.08520007        -3.64730158E-06
   3.09719992        -3.75433592E-06
   3.10920000        -3.90679952E-06
   3.12120008        -4.08513688E-06
   3.13319993        -4.27090527E-06
   3.14520001        -4.44702073E-06
   3.15720010        -4.59794092E-06
   3.16919994        -4.70981104E-06
   3.18120003        -4.77056301E-06
   3.19320011        -4.76998184E-06
   3.20519996        -4.69974657E-06
   3.21720004        -4.55344752E-06
   3.22919989        -4.32658226E-06
   3.24119997        -4.01653733E-06
   3.25320005        -3.62254809E-06
   3.26519990        -3.14564340E-06
   3.27719998        -2.58856699E-06
   3.28920007        -1.95567623E-06
   3.30119991        -1.25281133E-06
   3.31320000        -4.87137868E-07
   3.32520008         3.33045762E-07
   3.33719993         1.19853121E-06
   3.34920001         2.09945438E-06
   3.36120009         3.02557760E-06
   3.37319994         3.96659516E-06
   3.38520002         4.91245009E-06
   3.39720011         5.85365251E-06
   3.40919995         6.78159449E-06
   3.42120004         7.68883729E-06
   3.43319988         8.56936367E-06
   3.44519997         9.41877806E-06
   3.45720005         1.02344529E-05
   3.46919990         1.10155925E-05
   3.48119998         1.17632217E-05
   3.49320006         1.24800954E-05
   3.50519991         1.31705219E-05
   3.51719999         1.38401074E-05
   3.52920008         1.44954356E-05
   3.54119992         1.51436934E-05
   3.55320001         1.57922605E-05
   3.56520009         1.64482663E-05
   3.57719994         1.71181691E-05
   3.58920002         1.78073406E-05
   3.60120010         1.85196950E-05
   3.61319995         1.92573661E-05
   3.62520003         2.00204668E-05
   3.63720012         2.08069050E-05
   3.64919996         2.16123062E-05
   3.66120005         2.24300020E-05
   3.67319989         2.32511120E-05
   3.68519998         2.40647059E-05
   3.69720006         2.48580363E-05
   3.70919991         2.56168387E-05
   3.72119999         2.63256716E-05
   3.73320007         2.69683278E-05
   3.74519992         2.75282455E-05
   3.75720000         2.79889609E-05
   3.76920009         2.83345653E-05
   3.78119993         2.85501646E-05
   3.79320002         2.86223112E-05
   3.80520010         2.85394235E-05
   3.81719995         2.82921719E-05
   3.82920003         2.78738262E-05
   3.84120011         2.72805446E-05
   3.85319996         2.65115959E-05
   3.86520004         2.55695413E-05
   3.87719989         2.44603270E-05
   3.88919997         2.31933063E-05
   3.90120006         2.17811739E-05
   3.91319990         2.02398423E-05
   3.92519999         1.85882200E-05
   3.93720007         1.68479346E-05
   3.94919991         1.50429778E-05
   3.96120000         1.31992929E-05
   3.97320008         1.13443257E-05
   3.98519993         9.50654248E-06
   3.99720001         7.71492796E-06
   4.00920010         5.99847817E-06
   4.02120018         4.38570260E-06
   4.03319979         2.90415528E-06
   4.04519987         1.57998102E-06
   4.05719995         4.37508561E-07
   4.06920004        -5.01125783E-07
   4.08120012        -1.21631535E-06
   4.09320021        -1.69128839E-06
   4.10519981        -1.91237859E-06
   4.11719990        -1.86927639E-06
   4.12919998        -1.55525629E-06
   4.14120007        -9.67388701E-07
   4.15320015        -1.06737517E-07
   4.16520023         1.02145805E-06
   4.17719984         2.40762142E-06
   4.18919992         4.03769945E-06
   4.20120001         5.89306319E-06
   4.21320009         7.95045162E-06
   4.22520018         1.01819805E-05
   4.23719978         1.25552260E-05
   4.24919987         1.50333954E-05
   4.26119995         1.75756049E-05
   4.27320004         2.01372677E-05
   4.28520012         2.26705979E-05
   4.29720020         2.51252404E-05
   4.30919981         2.74490212E-05
   4.32119989         2.95887912E-05
   4.33319998         3.14913668E-05
   4.34520006         3.31045667E-05
   4.35720015         3.43782558E-05
   4.36920023         3.52654497E-05
   4.38119984         3.57233730E-05
   4.39319992         3.57144927E-05
   4.40520000         3.52074567E-05
   4.41720009         3.41779632E-05
   4.42920017         3.26094450E-05
   4.44119978         3.04936457E-05
   4.45319986         2.78310054E-05
   4.46519995         2.46308591E-05
   4.47720003         2.09114642E-05
   4.48920012         1.66998161E-05
   4.50120020         1.20313025E-05
   4.51319981         6.94916389E-06
   4.52519989         1.50380492E-06
   4.53719997        -4.24806012E-06
   4.54920006        -1.02443810E-05
   4.56120014        -1.64188659E-05
   4.57320023        -2.27021628E-05
   4.58519983        -2.90231219E-05
   4.59719992        -3.53100877E-05
   4.60920000        -4.14922470E-05
   4.62120008        -4.75009583E-05
   4.63320017        -5.32710437E-05
   4.64519978        -5.87420691E-05
   4.65719986        -6.38595229E-05
   4.66919994        -6.85758641E-05
   4.68120003        -7.28515224E-05
   4.69320011        -7.66555822E-05
   4.70520020        -7.99664558E-05
   4.71719980        -8.27721815E-05
   4.72919989        -8.50705474E-05
   4.74119997        -8.68690113E-05
   4.75320005        -8.81842352E-05
   4.76520014        -8.90414522E-05
   4.77720022        -8.94735858E-05
   4.78919983        -8.95200646E-05
   4.80119991        -8.92255412E-05
   4.81320000        -8.86383859E-05
   4.82520008        -8.78091523E-05
   4.83720016        -8.67889321E-05
   4.84919977        -8.56277620E-05
   4.86119986        -8.43731759E-05
   4.87319994        -8.30687568E-05
   4.88520002        -8.17530308E-05
   4.89720011        -8.04585361E-05
   4.90920019        -7.92111459E-05
   4.92119980        -7.80297341E-05
   4.93319988        -7.69260587E-05
   4.94519997        -7.59050527E-05
   4.95720005        -7.49652900E-05
   4.96920013        -7.40997712E-05
   4.98120022        -7.32967965E-05
   4.99319983        -7.25411228E-05
   5.00519991        -7.18151059E-05
   5.01719999        -7.10999229E-05
   5.02920008        -7.03768383E-05
   5.04120016        -6.96282732E-05
   5.05319977        -6.88388973E-05
   5.06519985        -6.79965306E-05
   5.07719994        -6.70928493E-05
   5.08920002        -6.61239392E-05
   5.10120010        -6.50906368E-05
   5.11320019        -6.39986683E-05
   5.12519979        -6.28585767E-05
   5.13719988        -6.16854741E-05
   5.14919996        -6.04985362E-05
   5.16120005        -5.93203913E-05
   5.17320013        -5.81763052E-05
   5.18520021        -5.70931807E-05
   5.19719982        -5.60984954E-05
   5.20919991        -5.52190977E-05
   5.22119999        -5.44799514E-05
   5.23320007        -5.39028333E-05
   5.24520016        -5.35050676E-05
   5.25719976        -5.32983177E-05
   5.26919985        -5.32875019E-05
   5.28119993        -5.34698665E-05
   5.29320002        -5.38343229E-05
   5.30520010        -5.43610549E-05
   5.31720018        -5.50214463E-05
   5.32919979        -5.57784078E-05
   5.34119987        -5.65870687E-05
   5.35319996        -5.73958532E-05
   5.36520004        -5.81479690E-05
   5.37720013        -5.87831928E-05
   5.38920021        -5.92399701E-05
   5.40119982        -5.94577104E-05
   5.41319990        -5.93791883E-05
   5.42519999        -5.89529554E-05
   5.43720007        -5.81356799E-05
   5.44920015        -5.68942341E-05
   5.46120024        -5.52074525E-05
   5.47319984        -5.30675316E-05
   5.48519993        -5.04808995E-05
   5.49720001        -4.74685403E-05
   5.50920010        -4.40657532E-05
   5.52120018        -4.03213380E-05
   5.53319979        -3.62962091E-05
   5.54519987        -3.20615036E-05
   5.55719995        -2.76962564E-05
   5.56920004        -2.32847251E-05
   5.58120012        -1.89134971E-05
   5.59320021        -1.46684379E-05
   5.60519981        -1.06316711E-05
   5.61719990        -6.87865850E-06
   5.62919998        -3.47552395E-06
   5.64120007        -4.76719123E-07
   5.65320015         2.07689209E-06
   5.66520023         4.15944078E-06
   5.67719984         5.76091315E-06
   5.68919992         6.88741829E-06
   5.70120001         7.56087138E-06
   5.71320009         7.81809013E-06
   5.72520018         7.70935094E-06
   5.73719978         7.29644944E-06
   5.74919987         6.65035896E-06
   5.76119995         5.84855661E-06
   5.77320004         4.97213114E-06
   5.78520012         4.10277926E-06
   5.79720020         3.31981323E-06
   5.80919981         2.69728071E-06
   5.82119989         2.30131764E-06
   5.83319998         2.18782543E-06
   5.84520006         2.40056352E-06
   5.85720015         2.96971939E-06
   5.86920023         3.91100912E-06
   5.88119984         5.22533492E-06
   5.89319992         6.89899798E-06
   5.90520000         8.90445426E-06
   5.91720009         1.12015650E-05
   5.92920017         1.37392908E-05
   5.94119978         1.64577505E-05
   5.95319986         1.92905372E-05
   5.96519995         2.21672417E-05
   5.97720003         2.50160156E-05
   5.98920012         2.77661311E-05
   6.00120020         3.03504130E-05
   6.01319981         3.27074413E-05
   6.02519989         3.47834794E-05
   6.03719997         3.65340311E-05
   6.04920006         3.79250232E-05
   6.06120014         3.89335328E-05
   6.07320023         3.95481075E-05
   6.08519983         3.97686526E-05
   6.09719992         3.96059295E-05
   6.10920000         3.90806999E-05
   6.12120008         3.82225990E-05
   6.13320017         3.70687303E-05
   6.14519978         3.56621604E-05
   6.15719986         3.40502593E-05
   6.16919994         3.22830711E-05
   6.18120003         3.04116566E-05
   6.19320011         2.84865928E-05
   6.20520020         2.65565541E-05
   6.21719980         2.46670934E-05
   6.22919989         2.28596127E-05
   6.24119997         2.11705283E-05
   6.25320005         1.96306573E-05
   6.26520014         1.82647909E-05
   6.27720022         1.70914718E-05
   6.28919983         1.61229218E-05
   6.30119991         1.53651235E-05
   6.31320000         1.48180443E-05
   6.32520008         1.44759424E-05
   6.33720016         1.43277848E-05
   6.34919977         1.43577345E-05
   6.36119986         1.45456997E-05
   6.37319994         1.48679364E-05
   6.38520002         1.52977063E-05
   6.39720011         1.58059775E-05
   6.40920019         1.63621553E-05
   6.42119980         1.69348441E-05
   6.43319988         1.74926372E-05
   6.44519997         1.80049083E-05
   6.45720005         1.84425826E-05
   6.46920013         1.87789119E-05
   6.48120022         1.89901693E-05
   6.49319983         1.90563023E-05
   6.50519991         1.89614875E-05
   6.51719999         1.86945690E-05
   6.52920008         1.82493732E-05
   6.54120016         1.76248868E-05
   6.55319977         1.68252773E-05
   6.56519985         1.58597431E-05
   6.57719994         1.47422279E-05
   6.58920002         1.34909651E-05
   6.60120010         1.21278963E-05
   6.61320019         1.06779698E-05
   6.62519979         9.16834597E-06
   6.63719988         7.62752961E-06
   6.64919996         6.08448545E-06
   6.66120005         4.56774615E-06
   6.67320013         3.10455471E-06
   6.68520021         1.72008208E-06
   6.69719982         4.36734410E-07
   6.70919991        -7.26412566E-07
   6.72119999        -1.75404114E-06
   6.73320007        -2.63486982E-06
   6.74520016        -3.36177163E-06
   6.75719976        -3.93174469E-06
   6.76919985        -4.34574213E-06
   6.78119993        -4.60837509E-06
   6.79320002        -4.72751663E-06
   6.80520010        -4.71382737E-06
   6.81720018        -4.58022942E-06
   6.82919979        -4.34135927E-06
   6.84119987        -4.01301713E-06
   6.85319996        -3.61164257E-06
   6.86520004        -3.15382840E-06
   6.87720013        -2.65589119E-06
   6.88920021        -2.13350927E-06
   6.90119982        -1.60143497E-06
   6.91319990        -1.07328185E-06
   6.92519999        -5.61387765E-07
   6.93720007        -7.67492736E-08
   6.94920015         3.70983400E-07
   6.96120024         7.73457998E-07
   6.97319984         1.12353291E-06
   6.98519993         1.41516421E-06
   6.99720001         1.64328196E-06
   7.00920010         1.80367124E-06
   7.02120018         1.89287243E-06
   7.03319979         1.90811193E-06
   7.04519987         1.84727787E-06
   7.05719995         1.70894532E-06
   7.06920004         1.49245966E-06
   7.08120012         1.19807351E-06
   7.09320021         8.27134784E-07
   7.10519981         3.82315392E-07
   7.11719990        -1.32138069E-07
   7.12919998        -7.10150346E-07
   7.14120007        -1.34358856E-06
   7.15320015        -2.02208230E-06
   7.16520023        -2.73292289E-06
   7.17719984        -3.46106640E-06
   7.18919992        -4.18926447E-06
   7.20120001        -4.89834065E-06
   7.21320009        -5.56761370E-06
   7.22520018        -6.17547857E-06
   7.23719978        -6.70012378E-06
   7.24919987        -7.12037217E-06
   7.26119995        -7.41660642E-06
   7.27320004        -7.57174485E-06
   7.28520012        -7.57222051E-06
   7.29720020        -7.40890209E-06
   7.30919981        -7.07791196E-06
   7.32119989        -6.58128101E-06
   7.33319998        -5.92739843E-06
   7.34520006        -5.13120722E-06
   7.35720015        -4.21412096E-06
   7.36920023        -3.20364234E-06
   7.38119984        -2.13267595E-06
   7.39319992        -1.03855598E-06
   7.40520000         3.81938037E-08
   7.41720009         1.05531717E-06
   7.42920017         1.97045006E-06
   7.44119978         2.74284366E-06
   7.45319986         3.33511275E-06
   7.46519995         3.71492933E-06
   7.47720003         3.85658768E-06
   7.48920012         3.74235515E-06
   7.50120020         3.36354719E-06
   7.51319981         2.72126567E-06
   7.52519989         1.82674898E-06
   7.53719997         7.01311478E-07
   7.54920006        -6.24144491E-07
   7.56120014        -2.11003658E-06
   7.57320023        -3.70940415E-06
   7.58519983        -5.36955758E-06
   7.59719992        -7.03401247E-06
   7.60920000        -8.64463254E-06
   7.62120008        -1.01438873E-05
   7.63320017        -1.14771310E-05
   7.64519978        -1.25947963E-05
   7.65719986        -1.34544180E-05
   7.66919994        -1.40223683E-05
   7.68120003        -1.42752597E-05
   7.69320011        -1.42009167E-05
   7.70520020        -1.37988945E-05
   7.71719980        -1.30805120E-05
   7.72919989        -1.20683926E-05
   7.74119997        -1.07955575E-05
   7.75320005        -9.30409078E-06
   7.76520014        -7.64345532E-06
   7.77720022        -5.86854549E-06
   7.78919983        -4.03755394E-06
   7.80119991        -2.20977404E-06
   7.81320000        -4.43426188E-07
   7.82520008         1.20639299E-06
   7.83720016         2.68954386E-06
   7.84919977         3.96239193E-06
   7.86119986         4.98901181E-06
   7.87319994         5.74201840E-06
   7.88520002         6.20300443E-06
   7.89720011         6.36260256E-06
   7.90920019         6.22019161E-06
   7.92119980         5.78330582E-06
   7.93319988         5.06679316E-06
   7.94519997         4.09180439E-06
   7.95720005         2.88467754E-06
   7.96920013         1.47579067E-06
   7.98120022        -1.01554477E-07
   7.99319983        -1.81216376E-06
   8.00520039        -3.61985758E-06
   8.01720047        -5.48823664E-06
   8.02919960        -7.38129211E-06
   8.04119968        -9.26387838E-06
   8.05319977        -1.11020663E-05
   8.06519985        -1.28634138E-05
   8.07719994        -1.45171798E-05
   8.08920002        -1.60345317E-05
   8.10120010        -1.73887765E-05
   8.11320019        -1.85556328E-05
   8.12520027        -1.95135763E-05
   8.13720036        -2.02442388E-05
   8.14920044        -2.07328703E-05
   8.16119957        -2.09688351E-05
   8.17319965        -2.09461141E-05
   8.18519974        -2.06637651E-05
   8.19719982        -2.01263210E-05
   8.20919991        -1.93440483E-05
   8.22119999        -1.83330631E-05
   8.23320007        -1.71152660E-05
   8.24520016        -1.57180602E-05
   8.25720024        -1.41738465E-05
   8.26920033        -1.25193201E-05
   8.28120041        -1.07945607E-05
   8.29319954        -9.04196895E-06
   8.30519962        -7.30506235E-06
   8.31719971        -5.62720561E-06
   8.32919979        -4.05031642E-06
   8.34119987        -2.61359833E-06
   8.35319996        -1.35236382E-06
   8.36520004        -2.96993932E-07
   8.37720013         5.27931206E-07
   8.38920021         1.10428687E-06
   8.40120029         1.42083252E-06
   8.41320038         1.47339927E-06
   8.42520046         1.26483837E-06
   8.43719959         8.04743820E-07
   8.44919968         1.08970234E-07
   8.46119976        -8.01026374E-07
   8.47319984        -1.89899083E-06
   8.48519993        -3.15477178E-06
   8.49720001        -4.53529356E-06
   8.50920010        -6.00555040E-06
   8.52120018        -7.52959295E-06
   8.53320026        -9.07147296E-06
   8.54520035        -1.05961180E-05
   8.55720043        -1.20701170E-05
   8.56919956        -1.34624070E-05
   8.58119965        -1.47448391E-05
   8.59319973        -1.58926323E-05
   8.60519981        -1.68847182E-05
   8.61719990        -1.77039619E-05
   8.62919998        -1.83372977E-05
   8.64120007        -1.87757523E-05
   8.65320015        -1.90144074E-05
   8.66520023        -1.90522696E-05
   8.67720032        -1.88921022E-05
   8.68920040        -1.85401932E-05
   8.70119953        -1.80060888E-05
   8.71319962        -1.73023145E-05
   8.72519970        -1.64440444E-05
   8.73719978        -1.54487716E-05
   8.74919987        -1.43359821E-05
   8.76119995        -1.31267952E-05
   8.77320004        -1.18436283E-05
   8.78520012        -1.05098488E-05
   8.79720020        -9.14944030E-06
   8.80920029        -7.78666799E-06
   8.82120037        -6.44574357E-06
   8.83320045        -5.15051079E-06
   8.84519958        -3.92411266E-06
   8.85719967        -2.78867310E-06
   8.86919975        -1.76496496E-06
   8.88119984        -8.72077237E-07
   8.89319992        -1.27074486E-07
   8.90520000         4.55351341E-07
   8.91720009         8.63225978E-07
   8.92920017         1.08763754E-06
   8.94120026         1.12305941E-06
   8.95320034         9.67646656E-07
   8.96520042         6.23481924E-07
   8.97719955         9.67567928E-08
   8.98919964        -6.02135287E-07
   9.00119972        -1.45861054E-06
   9.01319981        -2.45403112E-06
   9.02519989        -3.56597502E-06
   9.03719997        -4.76864943E-06
   9.04920006        -6.03344461E-06
   9.06120014        -7.32962508E-06
   9.07320023        -8.62513843E-06
   9.08520031        -9.88751526E-06