 -0.622799993         1.00000002E-24
 -0.610800028         1.00000002E-24
 -0.598800004         1.00000002E-24
 -0.586799979         8.25116287E-16
 -0.574800014         4.90076788E-15
 -0.562799990         1.55351585E-14
 -0.550800025         3.39685996E-14
 -0.538800001         5.52431568E-14
 -0.526799977         6.57791963E-14
 -0.514800012         4.60286106E-14
 -0.502799988        -2.01741903E-14
 -0.490799993        -1.31614758E-13
 -0.478799999        -2.57096590E-13
 -0.466800004        -3.32317453E-13
 -0.454800010        -2.72599055E-13
 -0.442799985        -2.16330521E-15
 -0.430799991         5.07194980E-13
 -0.418799996         1.20186684E-12
 -0.406800002         1.93250277E-12
 -0.394800007         2.47183350E-12
 -0.382800013         2.56555584E-12
 -0.370799989         2.00536549E-12
 -0.358799994         7.03750480E-13
 -0.346799999        -1.25248336E-12
 -0.334800005        -3.58765925E-12
 -0.322800010        -5.86836742E-12
 -0.310799986        -7.57553048E-12
 -0.298799992        -8.20537735E-12
 -0.286799997        -7.38706492E-12
 -0.274800003        -5.00888437E-12
 -0.262800008        -1.34845596E-12
 -0.250800014         2.80104260E-12
 -0.238800004         6.02895685E-12
 -0.226799995         6.26673019E-12
 -0.214800000         8.56161550E-13
 -0.202800006        -1.32355177E-11
 -0.190799996        -3.90525008E-11
 -0.178800002        -7.91974472E-11
 -0.166800007        -1.35410322E-10
 -0.154799998        -2.08339013E-10
 -0.142800003        -2.97647795E-10
 -0.130799994        -4.02528899E-10
 -0.118799999        -5.22549615E-10
 -0.106799997        -6.58618216E-10
  -9.48000029E-02    -8.13751400E-10
  -8.28000009E-02    -9.93309435E-10
  -7.07999989E-02    -1.20447663E-09
  -5.88000007E-02    -1.45496426E-09
  -4.67999987E-02    -1.75116388E-09
  -3.48000005E-02    -2.09616946E-09
  -2.28000004E-02    -2.48816923E-09
  -1.08000003E-02    -2.91963298E-09
   1.20000006E-03    -3.37750539E-09
   1.31999999E-02    -3.84436571E-09
   2.52000000E-02    -4.30028146E-09
   3.72000001E-02    -4.72500528E-09
   4.91999984E-02    -5.10022158E-09
   6.12000003E-02    -5.41170753E-09
   7.32000023E-02    -5.65145797E-09
   8.51999968E-02    -5.81986725E-09
   9.71999988E-02    -5.92794924E-09
  0.109200001        -5.99927619E-09
  0.121200003        -6.07094020E-09
  0.133200005        -6.19255713E-09
  0.145199999        -6.42225029E-09
  0.157199994        -6.81885703E-09
  0.169200003        -7.43014628E-09
  0.181199998        -8.27765856E-09
  0.193200007        -9.33953537E-09
  0.205200002        -1.05333733E-08
  0.217199996        -1.17014816E-08
  0.229200006        -1.26010038E-08
  0.241200000        -1.29012712E-08
  0.253199995        -1.21905170E-08
  0.265199989        -9.99388217E-09
  0.277200013        -5.80433879E-09
  0.289200008         8.72276584E-10
  0.301200002         1.04577387E-08
  0.313199997         2.32284538E-08
  0.325199991         3.92318782E-08
  0.337199986         5.81978625E-08
  0.349200010         7.94528603E-08
  0.361200005         1.01847483E-07
  0.373199999         1.23709611E-07
  0.385199994         1.42835717E-07
  0.397199988         1.56532266E-07
  0.409200013         1.61716272E-07
  0.421200007         1.55080301E-07
  0.433200002         1.33321166E-07
  0.445199996         9.34252569E-08
  0.457199991         3.29954553E-08
  0.469199985        -4.94022530E-08
  0.481200010        -1.53902306E-07
  0.493200004        -2.79047612E-07
  0.505200028        -4.21581774E-07
  0.517199993        -5.76364357E-07
  0.529200017        -7.36446964E-07
  0.541199982        -8.93340825E-07
  0.553200006        -1.03749653E-06
  0.565199971        -1.15900434E-06
  0.577199996        -1.24850385E-06
  0.589200020        -1.29827845E-06
  0.601199985        -1.30348496E-06
  0.613200009        -1.26345424E-06
  0.625199974        -1.18298192E-06
  0.637199998        -1.07351525E-06
  0.649200022        -9.54135544E-07
  0.661199987        -8.52236042E-07
  0.673200011        -8.03805278E-07
  0.685199976        -8.53237907E-07
  0.697200000        -1.05262177E-06
  0.709200025        -1.46047728E-06
  0.721199989        -2.13996054E-06
  0.733200014        -3.15657826E-06
  0.745199978        -4.57549777E-06
  0.757200003        -6.45857290E-06
  0.769200027        -8.86123053E-06
  0.781199992        -1.18293983E-05
  0.793200016        -1.53966466E-05
  0.805199981        -1.95817447E-05
  0.817200005        -2.43868162E-05
  0.829200029        -2.97962470E-05
  0.841199994        -3.57764620E-05
  0.853200018        -4.22767152E-05
  0.865199983        -4.92308318E-05
  0.877200007        -5.65600058E-05
  0.889199972        -6.41764491E-05
  0.901199996        -7.19878371E-05
  0.913200021        -7.99022891E-05
  0.925199986        -8.78337451E-05
  0.937200010        -9.57073134E-05
  0.949199975        -1.03464445E-04
  0.961199999        -1.11067493E-04
  0.973200023        -1.18503471E-04
  0.985199988        -1.25786682E-04
  0.997200012        -1.32960035E-04
   1.00919998        -1.40094853E-04
   1.02119994        -1.47289102E-04
   1.03320003        -1.54664085E-04
   1.04519999        -1.62359618E-04
   1.05719995        -1.70527812E-04
   1.06920004        -1.79325783E-04
   1.08120000        -1.88907550E-04
   1.09319997        -1.99415503E-04
   1.10520005        -2.10971702E-04
   1.11720002        -2.23669602E-04
   1.12919998        -2.37566390E-04
   1.14119995        -2.52676371E-04
   1.15320003        -2.68965872E-04
   1.16520000        -2.86349503E-04
   1.17719996        -3.04688409E-04
   1.18920004        -3.23790300E-04
   1.20120001        -3.43411200E-04
   1.21319997        -3.63259285E-04
   1.22520006        -3.83000122E-04
   1.23720002        -4.02263337E-04
   1.24919999        -4.20650467E-04
   1.26119995        -4.37743845E-04
   1.27320004        -4.53115703E-04
   1.28520000        -4.66338010E-04
   1.29719996        -4.76991787E-04
   1.30920005        -4.84676741E-04
   1.32120001        -4.89019847E-04
   1.33319998        -4.89683880E-04
   1.34519994        -4.86374542E-04
   1.35720003        -4.78847272E-04
   1.36919999        -4.66912839E-04
   1.38119996        -4.50441730E-04
   1.39320004        -4.29368025E-04
   1.40520000        -4.03691723E-04
   1.41719997        -3.73480289E-04
   1.42920005        -3.38869053E-04
   1.44120002        -3.00060550E-04
   1.45319998        -2.57322652E-04
   1.46519995        -2.10985847E-04
   1.47720003        -1.61439253E-04
   1.48920000        -1.09125562E-04
   1.50119996        -5.45350413E-05
   1.51320004         1.80148129E-06
   1.52520001         5.93204968E-05
   1.53719997         1.17434414E-04
   1.54920006         1.75540787E-04
   1.56120002         2.33031882E-04
   1.57319999         2.89304386E-04
   1.58519995         3.43769323E-04
   1.59720004         3.95861367E-04
   1.60920000         4.45048005E-04
   1.62119997         4.90837730E-04
   1.63320005         5.32787759E-04
   1.64520001         5.70510572E-04
   1.65719998         6.03679218E-04
   1.66919994         6.32031530E-04
   1.68120003         6.55373500E-04
   1.69319999         6.73580507E-04
   1.70519996         6.86598476E-04
   1.71720004         6.94442773E-04
   1.72920001         6.97196636E-04
   1.74119997         6.95008144E-04
   1.75320005         6.88086613E-04
   1.76520002         6.76697702E-04
   1.77719998         6.61157770E-04
   1.78919995         6.41827646E-04
   1.80120003         6.19105645E-04
   1.81320000         5.93420118E-04
   1.82519996         5.65221591E-04
   1.83720005         5.34974388E-04
   1.84920001         5.03148593E-04
   1.86119998         4.70211613E-04
   1.87320006         4.36620292E-04
   1.88520002         4.02813137E-04
   1.89719999         3.69203335E-04
   1.90919995         3.36172379E-04
   1.92120004         3.04064684E-04
   1.93320000         2.73183221E-04
   1.94519997         2.43786373E-04
   1.95720005         2.16085726E-04
   1.96920002         1.90245279E-04
   1.98119998         1.66381767E-04
   1.99319994         1.44566016E-04
   2.00519991         1.24825398E-04
   2.01719999         1.07147061E-04
   2.02920008         9.14820048E-05
   2.04119992         7.77495516E-05
   2.05320001         6.58423014E-05
   2.06520009         5.56312734E-05
   2.07719994         4.69710940E-05
   2.08920002         3.97051044E-05
   2.10120010         3.36702724E-05
   2.11319995         2.87017956E-05
   2.12520003         2.46373565E-05
   2.13720012         2.13209041E-05
   2.14919996         1.86059970E-05
   2.16120005         1.63585973E-05
   2.17319989         1.44593396E-05
   2.18519998         1.28052243E-05
   2.19720006         1.13107253E-05
   2.20919991         9.90830358E-06
   2.22119999         8.54831796E-06
   2.23320007         7.19836362E-06
   2.24519992         5.84203735E-06
   2.25720000         4.47719185E-06
   2.26920009         3.11374379E-06
   2.28119993         1.77110701E-06
   2.29320002         4.75363436E-07
   2.30520010        -7.43689498E-07
   2.31719995        -1.85550493E-06
   2.32920003        -2.83159306E-06
   2.34120011        -3.64804782E-06
   2.35319996        -4.28766316E-06
   2.36520004        -4.74152966E-06
   2.37719989        -5.01005297E-06
   2.38919997        -5.10334849E-06
   2.40120006        -5.04103400E-06
   2.41319990        -4.85145665E-06
   2.42519999        -4.57043416E-06
   2.43720007        -4.23961546E-06
   2.44919991        -3.90458626E-06
   2.46120000        -3.61282946E-06
   2.47320008        -3.41168970E-06
   2.48519993        -3.34642027E-06
   2.49720001        -3.45841931E-06
   2.50920010        -3.78371215E-06
   2.52119994        -4.35170386E-06
   2.53320003        -5.18421894E-06
   2.54520011        -6.29478427E-06
   2.55719995        -7.68815335E-06
   2.56920004        -9.35997832E-06
   2.58119988        -1.12966272E-05
   2.59319997        -1.34750753E-05
   2.60520005        -1.58628627E-05
   2.61719990        -1.84181390E-05
   2.62919998        -2.10898033E-05
   2.64120007        -2.38178218E-05
   2.65319991        -2.65337749E-05
   2.66520000        -2.91617616E-05
   2.67720008        -3.16196711E-05
   2.68919992        -3.38209720E-05
   2.70120001        -3.56769560E-05
   2.71320009        -3.70995149E-05
   2.72519994        -3.80043130E-05
   2.73720002        -3.83142797E-05
   2.74920011        -3.79632911E-05
   2.76119995        -3.68997898E-05
   2.77320004        -3.50901646E-05
   2.78520012        -3.25216497E-05
   2.79719996        -2.92044988E-05
   2.80920005        -2.51732727E-05
   2.82119989        -2.04870430E-05
   2.83319998        -1.52284556E-05
   2.84520006        -9.50160938E-06
   2.85719991        -3.42881663E-06
   2.86919999         2.85360466E-06
   2.88120008         9.20030743E-06
   2.89319992         1.54623758E-05
   2.90520000         2.14929569E-05
   2.91720009         2.71527442E-05
   2.92919993         3.23150052E-05
   2.94120002         3.68698202E-05
   2.95320010         4.07274238E-05
   2.96519995         4.38203715E-05
   2.97720003         4.61046002E-05
   2.98920012         4.75593297E-05
   3.00119996         4.81859206E-05
   3.01320004         4.80059425E-05
   3.02519989         4.70585983E-05
   3.03719997         4.53977846E-05
   3.04920006         4.30890832E-05
   3.06119990         4.02068872E-05
   3.07319999         3.68318724E-05
   3.08520007         3.30489602E-05
   3.09719992         2.89458203E-05
   3.10920000         2.46119307E-05
   3.12120008         2.01380917E-05
   3.13319993         1.56162787E-05
   3.14520001         1.11396466E-05
   3.15720010         6.80246967E-06
   3.16919994         2.69986526E-06
   3.18120003        -1.07291271E-06
   3.19320011        -4.42169539E-06
   3.20519996        -7.25521249E-06
   3.21720004        -9.48747038E-06
   3.22919989        -1.10406227E-05
   3.24119997        -1.18481667E-05
   3.25320005        -1.18582839E-05
   3.26519990        -1.10370547E-05
   3.27719998        -9.37130608E-06
   3.28920007        -6.87085458E-06
   3.30119991        -3.56989813E-06
   3.31320000         4.72592831E-07
   3.32520008         5.17358330E-06
   3.33719993         1.04278270E-05
   3.34920001         1.61107873E-05
   3.36120009         2.20825168E-05
   3.37319994         2.81922821E-05
   3.38520002         3.42836938E-05
   3.39720011         4.02000951E-05
   3.40919995         4.57898750E-05
   3.42120004         5.09114943E-05
   3.43319988         5.54379476E-05
   3.44519997         5.92605138E-05
   3.45720005         6.22916486E-05
   3.46919990         6.44669635E-05
   3.48119998         6.57462515E-05
   3.49320006         6.61136582E-05
   3.50519991         6.55770855E-05
   3.51719999         6.41668812E-05
   3.52920008         6.19340426E-05
   3.54119992         5.89480260E-05
   3.55320001         5.52943566E-05
   3.56520009         5.10720893E-05
   3.57719994         4.63912329E-05
   3.58920002         4.13702146E-05
   3.60120010         3.61334060E-05
   3.61319995         3.08086746E-05
   3.62520003         2.55249251E-05
   3.63720012         2.04097178E-05
   3.64919996         1.55867456E-05
   3.66120005         1.11733398E-05
   3.67319989         7.27789939E-06
   3.68519998         3.99733517E-06
   3.69720006         1.41457713E-06
   3.70919991        -4.03769860E-07
   3.72119999        -1.40949351E-06
   3.73320007        -1.57448198E-06
   3.74519992        -8.91919797E-07
   3.75720000         6.23101641E-07
   3.76920009         2.93367043E-06
   3.78119993         5.98187216E-06
   3.79320002         9.69036682E-06
   3.80520010         1.39646991E-05
   3.81719995         1.86962516E-05
   3.82920003         2.37657605E-05
   3.84120011         2.90472108E-05
   3.85319996         3.44119508E-05
   3.86520004         3.97328040E-05
   3.87719989         4.48880128E-05
   3.88919997         4.97647998E-05
   3.90120006         5.42623857E-05
   3.91319990         5.82943503E-05
   3.92519999         6.17902624E-05
   3.93720007         6.46964836E-05
   3.94919991         6.69762521E-05
   3.96120000         6.86090352E-05
   3.97320008         6.95892450E-05
   3.98519993         6.99245793E-05
   3.99720001         6.96339266E-05
   4.00920010         6.87452120E-05
   4.02120018         6.72932219E-05
   4.03319979         6.53176103E-05
   4.04519987         6.28611888E-05
   4.05719995         5.99686100E-05
   4.06920004         5.66855124E-05
   4.08120012         5.30581056E-05
   4.09320021         4.91331921E-05
   4.10519981         4.49585059E-05
   4.11719990         4.05833707E-05
   4.12919998         3.60594131E-05
   4.14120007         3.14413010E-05
   4.15320015         2.67872856E-05
   4.16520023         2.21595037E-05
   4.17719984         1.76238373E-05
   4.18919992         1.32493496E-05
   4.20120001         9.10720519E-06
   4.21320009         5.26913300E-06
   4.22520018         1.80545999E-06
   4.23719978        -1.21718199E-06
   4.24919987        -3.73832927E-06
   4.26119995        -5.70619659E-06
   4.27320004        -7.08006428E-06
   4.28520012        -7.83235919E-06
   4.29720020        -7.95029155E-06
   4.30919981        -7.43690771E-06
   4.32119989        -6.31147986E-06
   4.33319998        -4.60917136E-06
   4.34520006        -2.37998688E-06
   4.35720015         3.12926090E-07
   4.36920023         3.39555891E-06
   4.38119984         6.78573952E-06
   4.39319992         1.03961029E-05
   4.40520000         1.41371529E-05
   4.41720009         1.79202398E-05
   4.42920017         2.16603057E-05
   4.44119978         2.52782247E-05
   4.45319986         2.87026996E-05
   4.46519995         3.18715902E-05
   4.47720003         3.47327004E-05
   4.48920012         3.72440372E-05
   4.50120020         3.93736118E-05
   4.51319981         4.10988760E-05
   4.52519989         4.24059326E-05
   4.53719997         4.32886081E-05
   4.54920006         4.37475428E-05
   4.56120014         4.37894269E-05
   4.57320023         4.34263711E-05
   4.58519983         4.26755432E-05
   4.59719992         4.15590621E-05
   4.60920000         4.01040525E-05
   4.62120008         3.83429215E-05
   4.63320017         3.63136205E-05
   4.64519978         3.40599618E-05
   4.65719986         3.16317273E-05
   4.66919994         2.90845983E-05
   4.68120003         2.64797363E-05
   4.69320011         2.38830035E-05
   4.70520020         2.13637777E-05
   4.71719980         1.89933471E-05
   4.72919989         1.68429615E-05
   4.74119997         1.49815787E-05
   4.75320005         1.34734246E-05
   4.76520014         1.23754844E-05
   4.77720022         1.17350737E-05
   4.78919983         1.15876073E-05
   4.80119991         1.19547085E-05
   4.81320000         1.28427719E-05
   4.82520008         1.42420586E-05
   4.83720016         1.61263906E-05
   4.84919977         1.84534620E-05
   4.86119986         2.11657425E-05
   4.87319994         2.41919770E-05
   4.88520002         2.74491467E-05
   4.89720011         3.08448871E-05
   4.90920019         3.42801759E-05
   4.92119980         3.76522330E-05
   4.93319988         4.08575179E-05
   4.94519997         4.37946910E-05
   4.95720005         4.63674551E-05
   4.96920013         4.84871780E-05
   4.98120022         5.00752431E-05
   4.99319983         5.10650352E-05
   5.00519991         5.14035855E-05
   5.01719999         5.10528007E-05
   5.02920008         4.99903035E-05
   5.04120016         4.82099458E-05
   5.05319977         4.57219285E-05
   5.06519985         4.25526632E-05
   5.07719994         3.87443506E-05
   5.08920002         3.43542961E-05
   5.10120010         2.94540569E-05
   5.11320019         2.41283215E-05
   5.12519979         1.84736382E-05
   5.13719988         1.25968727E-05
   5.14919996         6.61349804E-06
   5.16120005         6.45603905E-07
   5.17320013        -5.18033130E-06
   5.18520021        -1.07359256E-05
   5.19719982        -1.58936200E-05
   5.20919991        -2.05296565E-05
   5.22119999        -2.45272113E-05
   5.23320007        -2.77796789E-05
   5.24520016        -3.01939817E-05
   5.25719976        -3.16938349E-05
   5.26919985        -3.22227752E-05
   5.28119993        -3.17469057E-05
   5.29320002        -3.02570916E-05
   5.30520010        -2.77705640E-05
   5.31720018        -2.43316899E-05
   5.32919979        -2.00118902E-05
   5.34119987        -1.49085299E-05
   5.35319996        -9.14283646E-06
   5.36520004        -2.85679289E-06
   5.37720013         3.79087419E-06
   5.38920021         1.06295001E-05
   5.40119982         1.74818924E-05
   5.41319990         2.41701237E-05
   5.42519999         3.05214307E-05
   5.43720007         3.63739746E-05
   5.44920015         4.15821960E-05
   5.46120024         4.60214505E-05
   5.47319984         4.95918066E-05
   5.48519993         5.22207301E-05
   5.49720001         5.38646127E-05
   5.50920010         5.45090661E-05
   5.52120018         5.41680347E-05
   5.53319979         5.28817909E-05
   5.54519987         5.07140176E-05
   5.55719995         4.77481517E-05
   5.56920004         4.40832519E-05
   5.58120012         3.98296543E-05
   5.59320021         3.51046583E-05
   5.60519981         3.00285319E-05
   5.61719990         2.47209355E-05
   5.62919998         1.92980024E-05
   5.64120007         1.38701171E-05
   5.65320015         8.54039990E-06
   5.66520023         3.40389579E-06
   5.67719984        -1.45267688E-06
   5.68919992        -5.95069969E-06
   5.70120001        -1.00191464E-05
   5.71320009        -1.35939672E-05
   5.72520018        -1.66175123E-05
   5.73719978        -1.90381415E-05
   5.74919987        -2.08101610E-05
   5.76119995        -2.18941132E-05
   5.77320004        -2.22574599E-05
   5.78520012        -2.18756231E-05
   5.79720020        -2.07333142E-05
   5.80919981        -1.88260201E-05
   5.82119989        -1.61615098E-05
   5.83319998        -1.27612348E-05
   5.84520006        -8.66141272E-06
   5.85720015        -3.91370895E-06
   5.86920023         1.41462931E-06
   5.88119984         7.24126858E-06
   5.89319992         1.34699203E-05
   5.90520000         1.99921196E-05
   5.91720009         2.66895731E-05
   5.92920017         3.34369870E-05
   5.94119978         4.01052348E-05
   5.95319986         4.65647172E-05
   5.96519995         5.26887670E-05
   5.97720003         5.83569163E-05
   5.98920012         6.34579628E-05
   6.00120020         6.78926299E-05
   6.01319981         7.15758651E-05
   6.02519989         7.44385397E-05
   6.03719997         7.64287906E-05
   6.04920006         7.75127555E-05
   6.06120014         7.76748420E-05
   6.07320023         7.69176477E-05
   6.08519983         7.52613705E-05
   6.09719992         7.27430161E-05
   6.10920000         6.94152623E-05
   6.12120008         6.53451425E-05
   6.13320017         6.06125432E-05
   6.14519978         5.53085301E-05
   6.15719986         4.95335662E-05
   6.16919994         4.33955574E-05
   6.18120003         3.70078051E-05
   6.19320011         3.04868099E-05
   6.20520020         2.39499568E-05
   6.21719980         1.75131172E-05
   6.22919989         1.12882044E-05
   6.24119997         5.38074482E-06
   6.25320005        -1.12439075E-07
   6.26520014        -5.10538302E-06
   6.27720022        -9.52484334E-06
   6.28919983        -1.33117983E-05
   6.30119991        -1.64225276E-05
   6.31320000        -1.88291906E-05
   6.32520008        -2.05199103E-05
   6.33720016        -2.14983393E-05
   6.34919977        -2.17827328E-05
   6.36119986        -2.14046158E-05
   6.37319994        -2.04070766E-05
   6.38520002        -1.88428221E-05
   6.39720011        -1.67720846E-05
   6.40920019        -1.42604822E-05
   6.42119980        -1.13769902E-05
   6.43319988        -8.19206889E-06
   6.44519997        -4.77608091E-06
   6.45720005        -1.19801769E-06
   6.46920013         2.47541720E-06
   6.48120022         6.18038575E-06
   6.49319983         9.85619772E-06
   6.50519991         1.34453539E-05
   6.51719999         1.68934475E-05
   6.52920008         2.01490166E-05
   6.54120016         2.31634276E-05
   6.55319977         2.58908949E-05
   6.56519985         2.82886758E-05
   6.57719994         3.03174966E-05
   6.58920002         3.19422070E-05
   6.60120010         3.31326519E-05
   6.61320019         3.38647333E-05
   6.62519979         3.41215673E-05
   6.63719988         3.38946702E-05
   6.64919996         3.31851079E-05
   6.66120005         3.20044564E-05
   6.67320013         3.03755169E-05
   6.68520021         2.83326608E-05
   6.69719982         2.59217832E-05
   6.70919991         2.31997619E-05
   6.72119999         2.02334213E-05
   6.73320007         1.70980220E-05
   6.74520016         1.38753048E-05
   6.75719976         1.06511452E-05
   6.76919985         7.51293192E-06
   6.78119993         4.54676820E-06
   6.79320002         1.83461077E-06
   6.80520010        -5.48518415E-07
   6.81720018        -2.53711937E-06
   6.82919979        -4.07748530E-06
   6.84119987        -5.12954148E-06
   6.85319996        -5.66816425E-06
   6.86520004        -5.68391852E-06
   6.87720013        -5.18316483E-06
   6.88920021        -4.18754962E-06
   6.90119982        -2.73289470E-06
   6.91319990        -8.67561823E-07
   6.92519999         1.34961886E-06
   6.93720007         3.85173144E-06
   6.94920015         6.56634211E-06
   6.96120024         9.41811868E-06
   6.97319984         1.23313621E-05
   6.98519993         1.52323382E-05
   6.99720001         1.80513016E-05
   7.00920010         2.07241537E-05
   7.02120018         2.31936629E-05
   7.03319979         2.54102597E-05
   7.04519987         2.73324131E-05
   7.05719995         2.89266227E-05
   7.06920004         3.01671298E-05
   7.08120012         3.10354189E-05
   7.09320021         3.15196194E-05
   7.10519981         3.16139085E-05
   7.11719990         3.13180244E-05
   7.12919998         3.06369075E-05
   7.14120007         2.95805912E-05
   7.15320015         2.81642751E-05
   7.16520023         2.64085684E-05
   7.17719984         2.43398663E-05
   7.18919992         2.19907488E-05
   7.20120001         1.94002878E-05
   7.21320009         1.66142090E-05
   7.22520018         1.36847520E-05
   7.23719978         1.06702128E-05
   7.24919987         7.63406661E-06
   7.26119995         4.64369577E-06
   7.27320004         1.76871890E-06
   7.28520012        -9.21011463E-07
   7.29720020        -3.35765321E-06
   7.30919981        -5.47774607E-06
   7.32119989        -7.22457480E-06
   7.33319998        -8.55037160E-06
   7.34520006        -9.41821327E-06
   7.35720015        -9.80349796E-06
   7.36920023        -9.69487246E-06
   7.38119984        -9.09457594E-06
   7.39319992        -8.01815168E-06
   7.40520000        -6.49356616E-06
   7.41720009        -4.55979762E-06
   7.42920017        -2.26499583E-06
   7.44119978         3.35645268E-07
   7.45319986         3.18217280E-06
   7.46519995         6.21215486E-06
   7.47720003         9.36283141E-06
   7.48920012         1.25730148E-05
   7.50120020         1.57846644E-05
   7.51319981         1.89440743E-05
   7.52519989         2.20026686E-05
   7.53719997         2.49174045E-05
   7.54920006         2.76508563E-05
   7.56120014         3.01710133E-05
   7.57320023         3.24509019E-05
   7.58519983         3.44680957E-05
   7.59719992         3.62042301E-05
   7.60920000         3.76445569E-05
   7.62120008         3.87776308E-05
   7.63320017         3.95951538E-05
   7.64519978         4.00919744E-05
   7.65719986         4.02662517E-05
   7.66919994         4.01197503E-05
   7.68120003         3.96581709E-05
   7.69320011         3.88915323E-05
   7.70520020         3.78344739E-05
   7.71719980         3.65064479E-05
   7.72919989         3.49317706E-05
   7.74119997         3.31394731E-05
   7.75320005         3.11629374E-05
   7.76520014         2.90393764E-05
   7.77720022         2.68091026E-05
   7.78919983         2.45146639E-05
   7.80119991         2.21998944E-05
   7.81320000         1.99088863E-05
   7.82520008         1.76849717E-05
   7.83720016         1.55697344E-05
   7.84919977         1.36020753E-05
   7.86119986         1.18173875E-05
   7.87319994         1.02468457E-05
   7.88520002         8.91682885E-06
   7.89720011         7.84847271E-06
   7.90920019         7.05736284E-06
   7.92119980         6.55335407E-06
   7.93319988         6.34051730E-06
   7.94519997         6.41719816E-06
   7.95720005         6.77617390E-06
   7.96920013         7.40490532E-06
   7.98120022         8.28587326E-06
   7.99319983         9.39699567E-06
   8.00520039         1.07121141E-05
   8.01720047         1.22015454E-05
   8.02919960         1.38327014E-05
   8.04119968         1.55707476E-05
   8.05319977         1.73793269E-05
   8.06519985         1.92212810E-05
   8.07719994         2.10594244E-05
   8.08920002         2.28572862E-05
   8.10120010         2.45798637E-05
   8.11320019         2.61943078E-05
   8.12520027         2.76705960E-05
   8.13720036         2.89821000E-05
   8.14920044         3.01061118E-05
   8.16119957         3.10242540E-05
   8.17319965         3.17228296E-05
   8.18519974         3.21930638E-05
   8.19719982         3.24312750E-05
   8.20919991         3.24389330E-05
   8.22119999         3.22226624E-05
   8.23320007         3.17941194E-05
   8.24520016         3.11697950E-05
   8.25720024         3.03706584E-05
   8.26920033         2.94216952E-05
   8.28120041         2.83512891E-05
   8.29319954         2.71904482E-05
   8.30519962         2.59718927E-05
   8.31719971         2.47290282E-05
   8.32919979         2.34947966E-05
   8.34119987         2.23004954E-05
   8.35319996         2.11745864E-05
   8.36520004         2.01415642E-05
   8.37720013         1.92209336E-05
   8.38920021         1.84263681E-05
   8.40120029         1.77651054E-05
   8.41320038         1.72376294E-05
   8.42520046         1.68376791E-05
   8.43719959         1.65526162E-05
   8.44919968         1.63641325E-05
   8.46119976         1.62493252E-05
   8.47319984         1.61820499E-05
   8.48519993         1.61345142E-05
   8.49720001         1.60790059E-05
   8.50920010         1.59896554E-05
   8.52120018         1.58441289E-05
   8.53320026         1.56251135E-05
   8.54520035         1.53215224E-05
   8.55720043         1.49293273E-05
   8.56919956         1.44519590E-05
   8.58119965         1.39002577E-05
   8.59319973         1.32919640E-05
   8.60519981         1.26508012E-05
   8.61719990         1.20051818E-05
   8.62919998         1.13866408E-05
   8.64120007         1.08280619E-05
   8.65320015         1.03618322E-05
   8.66520023         1.00180177E-05
   8.67720032         9.82266647E-06
   8.68920040         9.79635934E-06
   8.70119953         9.95307437E-06
   8.71319962         1.02994445E-05
   8.72519970         1.08344466E-05
   8.73719978         1.15495277E-05
   8.74919987         1.24291482E-05
   8.76119995         1.34516904E-05
   8.77320004         1.45906670E-05
   8.78520012         1.58161256E-05
   8.79720020         1.70961630E-05
   8.80920029         1.83984557E-05
   8.82120037         1.96916862E-05
   8.83320045         2.09468362E-05
   8.84519958         2.21382543E-05
   8.85719967         2.32444563E-05
   8.86919975         2.42486531E-05
   8.88119984         2.51389756E-05
   8.89319992         2.59084190E-05
   8.90520000         2.65545259E-05
   8.91720009         2.70788278E-05
   8.92920017         2.74861050E-05
   8.94120026         2.77835043E-05
   8.95320034         2.79796059E-05
   8.96520042         2.80834702E-05
   8.97719955         2.81037119E-05
   8.98919964         2.80477234E-05
   9.00119972         2.79210108E-05
   9.01319981         2.77267263E-05
   9.02519989         2.74653958E-05
   9.03719997         2.71348381E-05
   9.04920006         2.67303021E-05
   9.06120014         2.62447684E-05
   9.07320023         2.56694402E-05
   9.08520031         2.49943532E-05