 -0.622799993       0.00000000    
 -0.610800028       0.00000000    
 -0.598800004       0.00000000    
 -0.586799979       0.00000000    
 -0.574800014       0.00000000    
 -0.562799990       0.00000000    
 -0.550800025       0.00000000    
 -0.538800001       0.00000000    
 -0.526799977       3.93806571E-37
 -0.514800012      -4.12169844E-32
 -0.502799988      -7.15962811E-31
 -0.490799993      -5.89186921E-30
 -0.478799999      -3.01800655E-29
 -0.466800004      -1.04015131E-28
 -0.454800010      -2.29721890E-28
 -0.442799985      -1.77233234E-28
 -0.430799991       9.65249703E-28
 -0.418799996       5.15958481E-27
 -0.406800002       1.43219284E-26
 -0.394800007       2.51846340E-26
 -0.382800013       1.84867026E-26
 -0.370799989      -5.21385782E-26
 -0.358799994      -2.51232551E-25
 -0.346799999      -5.97103462E-25
 -0.334800005      -9.16313020E-25
 -0.322800010      -6.62635863E-25
 -0.310799986       1.10625120E-24
 -0.298799992       5.24265282E-24
 -0.286799997       1.11865833E-23
 -0.274800003       1.49684085E-23
 -0.262800008       7.79918851E-24
 -0.250800014      -2.21183203E-23
 -0.238800004      -8.14388697E-23
 -0.226799995      -1.56256558E-22
 -0.214800000      -1.94735477E-22
 -0.202800006      -1.02422134E-22
 -0.190799996       2.27975753E-22
 -0.178800002       8.35038677E-22
 -0.166800007       1.56380474E-21
 -0.154799998       1.95461082E-21
 -0.142800003       1.25662306E-21
 -0.130799994      -1.30311976E-21
 -0.118799999      -5.93089832E-21
 -0.106799997      -1.14800988E-20
  -9.48000029E-02  -1.48675537E-20
  -8.28000009E-02  -1.13340255E-20
  -7.07999989E-02   3.81905088E-21
  -5.88000007E-02   3.18644835E-20
  -4.67999987E-02   6.65206952E-20
  -3.48000005E-02   9.12174067E-20
  -2.28000004E-02   8.08158625E-20
  -1.08000003E-02   1.04240751E-20
   1.20000006E-03  -1.28556094E-19
   1.31999999E-02  -3.09564745E-19
   2.52000000E-02  -4.58815321E-19
   3.72000001E-02  -4.62659436E-19
   4.91999984E-02  -2.04429184E-19
   6.12000003E-02   3.69735775E-19
   7.32000023E-02   1.17409613E-18
   8.51999968E-02   1.93230818E-18
   9.71999988E-02   2.19869342E-18
  0.109200001       1.48766634E-18
  0.121200003      -4.90304794E-19
  0.133200005      -3.54746621E-18
  0.145199999      -6.81535117E-18
  0.157199994      -8.77370789E-18
  0.169200003      -7.63327729E-18
  0.181199998      -2.07846624E-18
  0.193200007       7.80581806E-18
  0.205200002       1.97873977E-17
  0.217199996       2.93864780E-17
  0.229200006       3.08087787E-17
  0.241200000       1.89889782E-17
  0.253199995      -7.67694002E-18
  0.265199989      -4.48627758E-17
  0.277200013      -8.13810727E-17
  0.289200008      -1.00931017E-16
  0.301200002      -8.69419631E-17
  0.313199997      -2.97025867E-17
  0.325199991       6.64062052E-17
  0.337199986       1.78704602E-16
  0.349200010       2.68093313E-16
  0.361200005       2.88634100E-16
  0.373199999       2.03751221E-16
  0.385199994       4.75654453E-18
  0.397199988      -2.75128663E-16
  0.409200013      -5.58607111E-16
  0.421200007      -7.38973037E-16
  0.433200002      -7.11384538E-16
  0.445199996      -4.13743222E-16
  0.457199991       1.35827848E-16
  0.469199985       8.20496570E-16
  0.481200010       1.43794717E-15
  0.493200004       1.74934602E-15
  0.505200028       1.55549512E-15
  0.517199993       7.79051195E-16
  0.529200017      -4.75932990E-16
  0.541199982      -1.91443952E-15
  0.553200006      -3.10615156E-15
  0.565199971      -3.60119869E-15
  0.577199996      -3.07799343E-15
  0.589200020      -1.47792183E-15
  0.601199985       9.22469066E-16
  0.613200009       3.53825716E-15
  0.625199974       5.61012367E-15
  0.637199998       6.41792205E-15
  0.649200022       5.51452203E-15
  0.661199987       2.90505408E-15
  0.673200011      -8.94890838E-16
  0.685199976      -4.95603297E-15
  0.697200000      -8.17284557E-15
  0.709200025      -9.57888638E-15
  0.721199989      -8.64524178E-15
  0.733200014      -5.46489479E-15
  0.745199978      -7.56440709E-16
  0.757200003       4.32391558E-15
  0.769200027       8.50986389E-15
  0.781199992       1.07909566E-14
  0.793200016       1.06991552E-14
  0.805199981       8.42139553E-15
  0.817200005       4.70080839E-15
  0.829200029       5.61639119E-16
  0.841199994      -3.04472684E-15
  0.853200018      -5.54551624E-15
  0.865199983      -6.89254892E-15
  0.877200007      -7.49360985E-15
  0.889199972      -7.95356907E-15
  0.901199996      -8.72328654E-15
  0.913200021      -9.79500176E-15
  0.925199986      -1.05744669E-14
  0.937200010      -1.00024808E-14
  0.949199975      -6.91091259E-15
  0.961199999      -5.10172126E-16
  0.973200023       9.15188437E-15
  0.985199988       2.09243633E-14
  0.997200012       3.25948002E-14
   1.00919998       4.12610281E-14
   1.02119994       4.39568392E-14
   1.03320003       3.83789815E-14
   1.04519999       2.35348596E-14
   1.05719995       1.56945954E-16
   1.06920004      -2.92028026E-14
   1.08120000      -6.04038846E-14
   1.09319997      -8.82144428E-14
   1.10520005      -1.06987241E-13
   1.11720002      -1.11436386E-13
   1.12919998      -9.74650048E-14
   1.14119995      -6.30126512E-14
   1.15320003      -8.87280734E-15
   1.16520000       6.06304422E-14
   1.17719996       1.37302062E-13
   1.18920004       2.09330993E-13
   1.20120001       2.62386792E-13
   1.21319997       2.81676944E-13
   1.22520006       2.54839281E-13
   1.23720002       1.75232211E-13
   1.24919999       4.48997630E-14
   1.26119995      -1.23654613E-13
   1.27320004      -3.07660500E-13
   1.28520000      -4.76653981E-13
   1.29719996      -5.97275701E-13
   1.30920005      -6.39496919E-13
   1.32120001      -5.82962986E-13
   1.33319998      -4.21943784E-13
   1.34519994      -1.67605974E-13
   1.35720003       1.53043919E-13
   1.36919999       5.01319743E-13
   1.38119996       8.33027549E-13
   1.39320004       1.10500714E-12
   1.40520000       1.28037403E-12
   1.41719997       1.33133869E-12
   1.42920005       1.23946014E-12
   1.44120002       9.94265109E-13
   1.45319998       5.91940667E-13
   1.46519995       3.59319880E-14
   1.47720003      -6.59389481E-13
   1.48920000      -1.46216633E-12
   1.50119996      -2.31540460E-12
   1.51320004      -3.13136865E-12
   1.52520001      -3.79165926E-12
   1.53719997      -4.15592170E-12
   1.54920006      -4.08026824E-12
   1.56120002      -3.44382010E-12
   1.57319999      -2.17902389E-12
   1.58519995      -2.99374918E-13
   1.59720004       2.08241822E-12
   1.60920000       4.75161013E-12
   1.62119997       7.40694832E-12
   1.63320005       9.69380305E-12
   1.64520001       1.12503522E-11
   1.65719998       1.17594025E-11
   1.66919994       1.09972630E-11
   1.68120003       8.87186592E-12
   1.69319999       5.44468507E-12
   1.70519996       9.34399693E-13
   1.71720004      -4.29658652E-12
   1.72920001      -9.76937108E-12
   1.74119997      -1.49254359E-11
   1.75320005      -1.91699139E-11
   1.76520002      -2.19198167E-11
   1.77719998      -2.26578981E-11
   1.78919995      -2.09939496E-11
   1.80120003      -1.67352191E-11
   1.81320000      -9.96575131E-12
   1.82519996      -1.13138839E-12
   1.83720005       8.87629813E-12
   1.84920001       1.86466346E-11
   1.86119998       2.61979084E-11
   1.87320006       2.89572880E-11
   1.88520002       2.37813848E-11
   1.89719999       7.02429477E-12
   1.90919995      -2.53412916E-11
   1.92120004      -7.75429096E-11
   1.93320000      -1.53756313E-10
   1.94519997      -2.57766392E-10
   1.95720005      -3.92519711E-10
   1.96920002      -5.59544910E-10
   1.98119998      -7.58224095E-10
   1.99319994      -9.84912485E-10
   2.00519991      -1.23193145E-09
   2.01719999      -1.48649681E-09
   2.02920008      -1.72968173E-09
   2.04119992      -1.93555216E-09
   2.05320001      -2.07062234E-09
   2.06520009      -2.09376672E-09
   2.07719994      -1.95665151E-09
   2.08920002      -1.60462432E-09
   2.10120010      -9.77796732E-10
   2.11319995      -1.17756369E-11
   2.12520003       1.36284184E-09
   2.13720012       3.22348281E-09
   2.14919996       5.66282932E-09
   2.16120005       8.80236950E-09
   2.17319989       1.28147395E-08
   2.18519998       1.79575466E-08
   2.19720006       2.46214089E-08
   2.20919991       3.33948478E-08
   2.22119999       4.51481554E-08
   2.23320007       6.11375910E-08
   2.24519992       8.31301108E-08
   2.25720000       1.13547507E-07
   2.26920009       1.55626850E-07
   2.28119993       2.13592187E-07
   2.29320002       2.92830350E-07
   2.30520010       4.00061737E-07
   2.31719995       5.43494650E-07
   2.32920003       7.32950468E-07
   2.34120011       9.79945639E-07
   2.35319996       1.29771718E-06
   2.36520004       1.70117698E-06
   2.37719989       2.20678407E-06
   2.38919997       2.83232475E-06
   2.40120006       3.59659543E-06
   2.41319990       4.51898541E-06
   2.42519999       5.61896513E-06
   2.43720007       6.91548712E-06
   2.44919991       8.42632016E-06
   2.46120000       1.01673231E-05
   2.47320008       1.21517041E-05
   2.48519993       1.43892821E-05
   2.49720001       1.68857787E-05
   2.50920010       1.96421861E-05
   2.52119994       2.26542452E-05
   2.53320003       2.59120461E-05
   2.54520011       2.93998110E-05
   2.55719995       3.30958428E-05
   2.56920004       3.69726913E-05
   2.58119988       4.09975182E-05
   2.59319997       4.51326523E-05
   2.60520005       4.93363914E-05
   2.61719990       5.35639047E-05
   2.62919998       5.77683204E-05
   2.64120007       6.19019265E-05
   2.65319991       6.59174038E-05
   2.66520000       6.97691066E-05
   2.67720008       7.34142959E-05
   2.68919992       7.68142854E-05
   2.70120001       7.99354893E-05
   2.71320009       8.27503027E-05
   2.72519994       8.52377343E-05
   2.73720002       8.73838726E-05
   2.74920011       8.91820964E-05
   2.76119995       9.06330388E-05
   2.77320004       9.17442594E-05
   2.78520012       9.25297791E-05
   2.79719996       9.30093593E-05
   2.80920005       9.32076218E-05
   2.82119989       9.31530012E-05
   2.83319998       9.28767258E-05
   2.84520006       9.24116393E-05
   2.85719991       9.17911093E-05
   2.86919999       9.10479939E-05
   2.88120008       9.02136817E-05
   2.89319992       8.93173201E-05
   2.90520000       8.83851608E-05
   2.91720009       8.74401521E-05
   2.92919993       8.65016846E-05
   2.94120002       8.55855469E-05
   2.95320010       8.47040938E-05
   2.96519995       8.38665364E-05
   2.97720003       8.30794088E-05
   2.98920012       8.23470837E-05
   3.00119996       8.16723332E-05
   3.01320004       8.10569982E-05
   3.02519989       8.05025120E-05
   3.03719997       8.00103808E-05
   3.04920006       7.95826199E-05
   3.06119990       7.92219798E-05
   3.07319999       7.89320620E-05
   3.08520007       7.87172976E-05
   3.09719992       7.85827360E-05
   3.10920000       7.85337616E-05
   3.12120008       7.85756129E-05
   3.13319993       7.87129466E-05
   3.14520001       7.89492333E-05
   3.15720010       7.92862629E-05
   3.16919994       7.97236571E-05
   3.18120003       8.02584545E-05
   3.19320011       8.08848636E-05
   3.20519996       8.15941166E-05
   3.21720004       8.23744849E-05
   3.22919989       8.32115693E-05
   3.24119997       8.40886278E-05
   3.25320005       8.49871503E-05
   3.26519990       8.58875355E-05
   3.27719998       8.67698982E-05
   3.28920007       8.76148624E-05
   3.30119991       8.84045076E-05
   3.31320000       8.91231321E-05
   3.32520008       8.97580321E-05
   3.33719993       9.03001564E-05
   3.34920001       9.07445283E-05
   3.36120009       9.10905874E-05
   3.37319994       9.13421827E-05
   3.38520002       9.15074415E-05
   3.39720011       9.15983765E-05
   3.40919995       9.16302524E-05
   3.42120004       9.16207791E-05
   3.43319988       9.15891578E-05
   3.44519997       9.15549899E-05
   3.45720005       9.15371274E-05
   3.46919990       9.15525598E-05
   3.48119998       9.16153003E-05
   3.49320006       9.17354337E-05
   3.50519991       9.19183221E-05
   3.51719999       9.21640894E-05
   3.52920008       9.24673441E-05
   3.54119992       9.28171867E-05
   3.55320001       9.31975883E-05
   3.56520009       9.35881326E-05
   3.57719994       9.39649690E-05
   3.58920002       9.43021078E-05
   3.60120010       9.45729698E-05
   3.61319995       9.47519875E-05
   3.62520003       9.48163870E-05
   3.63720012       9.47479202E-05
   3.64919996       9.45345091E-05
   3.66120005       9.41716062E-05
   3.67319989       9.36634169E-05
   3.68519998       9.30236274E-05
   3.69720006       9.22757827E-05
   3.70919991       9.14531920E-05
   3.72119999       9.05983470E-05
   3.73320007       8.97618302E-05
   3.74519992       8.90008814E-05
   3.75720000       8.83775137E-05
   3.76920009       8.79562940E-05
   3.78119993       8.78019637E-05
   3.79320002       8.79769796E-05
   3.80520010       8.85389527E-05
   3.81719995       8.95383346E-05
   3.82920003       9.10162053E-05
   3.84120011       9.30024617E-05
   3.85319996       9.55143914E-05
   3.86520004       9.85556617E-05
   3.87719989       1.02115853E-04
   3.88919997       1.06170468E-04
   3.90120006       1.10681460E-04
   3.91319990       1.15598225E-04
   3.92519999       1.20858997E-04
   3.93720007       1.26392697E-04
   3.94919991       1.32120898E-04
   3.96120000       1.37960218E-04
   3.97320008       1.43824640E-04
   3.98519993       1.49628002E-04
   3.99720001       1.55286369E-04
   4.00920010       1.60720316E-04
   4.02120018       1.65857069E-04
   4.03319979       1.70632367E-04
   4.04519987       1.74991917E-04
   4.05719995       1.78892733E-04
   4.06920004       1.82303876E-04
   4.08120012       1.85206998E-04
   4.09320021       1.87596233E-04
   4.10519981       1.89477912E-04
   4.11719990       1.90869730E-04
   4.12919998       1.91799612E-04
   4.14120007       1.92304127E-04
   4.15320015       1.92426756E-04
   4.16520023       1.92215841E-04
   4.17719984       1.91722371E-04
   4.18919992       1.90997715E-04
   4.20120001       1.90091421E-04
   4.21320009       1.89049053E-04
   4.22520018       1.87910264E-04
   4.23719978       1.86707242E-04
   4.24919987       1.85463432E-04
   4.26119995       1.84192788E-04
   4.27320004       1.82899399E-04
   4.28520012       1.81577794E-04
   4.29720020       1.80213567E-04
   4.30919981       1.78784598E-04
   4.32119989       1.77262540E-04
   4.33319998       1.75614739E-04
   4.34520006       1.73806300E-04
   4.35720015       1.71802269E-04
   4.36920023       1.69569728E-04
   4.38119984       1.67079808E-04
   4.39319992       1.64309371E-04
   4.40520000       1.61242395E-04
   4.41720009       1.57870789E-04
   4.42920017       1.54194873E-04
   4.44119978       1.50223306E-04
   4.45319986       1.45972415E-04
   4.46519995       1.41465280E-04
   4.47720003       1.36730334E-04
   4.48920012       1.31799825E-04
   4.50120020       1.26708022E-04
   4.51319981       1.21489466E-04
   4.52519989       1.16177398E-04
   4.53719997       1.10802284E-04
   4.54920006       1.05390747E-04
   4.56120014       9.99649419E-05
   4.57320023       9.45422216E-05
   4.58519983       8.91353848E-05
   4.59719992       8.37532498E-05
   4.60920000       7.84016302E-05
   4.62120008       7.30846441E-05
   4.63320017       6.78060678E-05
   4.64519978       6.25708926E-05
   4.65719986       5.73867692E-05
   4.66919994       5.22652699E-05
   4.68120003       4.72228785E-05
   4.69320011       4.22816847E-05
   4.70520020       3.74695665E-05
   4.71719980       3.28199822E-05
   4.72919989       2.83713398E-05
   4.74119997       2.41658745E-05
   4.75320005       2.02482515E-05
   4.76520014       1.66638220E-05
   4.77720022       1.34567317E-05
   4.78919983       1.06679317E-05
   4.80119991       8.33321337E-06
   4.81320000       6.48136438E-06
   4.82520008       5.13256055E-06
   4.83720016       4.29704869E-06
   4.84919977       3.97419080E-06
   4.86119986       4.15190379E-06
   4.87319994       4.80653171E-06
   4.88520002       5.90313584E-06
   4.89720011       7.39620282E-06
   4.90920019       9.23071548E-06
   4.92119980       1.13435726E-05
   4.93319988       1.36652734E-05
   4.94519997       1.61218250E-05
   4.95720005       1.86368088E-05
   4.96920013       2.11335209E-05
   4.98120022       2.35371172E-05
   4.99319983       2.57767169E-05
   5.00519991       2.77873532E-05
   5.01719999       2.95117297E-05
   5.02920008       3.09017341E-05
   5.04120016       3.19196079E-05
   5.05319977       3.25387737E-05
   5.06519985       3.27442431E-05
   5.07719994       3.25326546E-05
   5.08920002       3.19118481E-05
   5.10120010       3.09000934E-05
   5.11320019       2.95249320E-05
   5.12519979       2.78217576E-05
   5.13719988       2.58321488E-05
   5.14919996       2.36021042E-05
   5.16120005       2.11802162E-05
   5.17320013       1.86159141E-05
   5.18520021       1.59578703E-05
   5.19719982       1.32526238E-05
   5.20919991       1.05435020E-05
   5.22119999       7.86988221E-06
   5.23320007       5.26678150E-06
   5.24520016       2.76478249E-06
   5.25719976       3.90249454E-07
   5.26919985      -1.83423708E-06
   5.28119993      -3.88930130E-06
   5.29320002      -5.75813465E-06
   5.30520010      -7.42589782E-06
   5.31720018      -8.87923943E-06
   5.32919979      -1.01060041E-05
   5.34119987      -1.10951687E-05
   5.35319996      -1.18370390E-05
   5.36520004      -1.23236869E-05
   5.37720013      -1.25496053E-05
   5.38920021      -1.25125089E-05
   5.40119982      -1.22142092E-05
   5.41319990      -1.16614765E-05
   5.42519999      -1.08667755E-05
   5.43720007      -9.84880626E-06
   5.44920015      -8.63275909E-06
   5.46120024      -7.25022346E-06
   5.47319984      -5.73872376E-06
   5.48519993      -4.14087162E-06
   5.49720001      -2.50316589E-06
   5.50920010      -8.74481941E-07
   5.52120018       6.95663800E-07
   5.53319979       2.15898467E-06
   5.54519987       3.47032369E-06
   5.55719995       4.58947306E-06
   5.56920004       5.48281014E-06
   5.58120012       6.12465374E-06
   5.59320021       6.49827598E-06
   5.60519981       6.59651141E-06
   5.61719990       6.42194436E-06
   5.62919998       5.98666884E-06
   5.64120007       5.31166279E-06
   5.65320015       4.42580722E-06
   5.66520023       3.36463154E-06
   5.67719984       2.16885405E-06
   5.68919992       8.82803761E-07
   5.70120001      -4.47192633E-07
   5.71320009      -1.77438551E-06
   5.72520018      -3.05306935E-06
   5.73719978      -4.23989195E-06
   5.74919987      -5.29497038E-06
   5.76119995      -6.18279273E-06
   5.77320004      -6.87290503E-06
   5.78520012      -7.34039486E-06
   5.79720020      -7.56618510E-06
   5.80919981      -7.53716768E-06
   5.82119989      -7.24621441E-06
   5.83319998      -6.69207884E-06
   5.84520006      -5.87921795E-06
   5.85720015      -4.81755114E-06
   5.86920023      -3.52216148E-06
   5.88119984      -2.01293892E-06
   5.89319992      -3.14163685E-07
   5.90520000       1.54598695E-06
   5.91720009       3.53601331E-06
   5.92920017       5.62176319E-06
   5.94119978       7.76719844E-06
   5.95319986       9.93525555E-06
   5.96519995       1.20887853E-05
   5.97720003       1.41915480E-05
   5.98920012       1.62092310E-05
   6.00120020       1.81104406E-05
   6.01319981       1.98676262E-05
   6.02519989       2.14578686E-05
   6.03719997       2.28635181E-05
   6.04920006       2.40725967E-05
   6.06120014       2.50789599E-05
   6.07320023       2.58822020E-05
   6.08519983       2.64872979E-05
   6.09719992       2.69039956E-05
   6.10920000       2.71460140E-05
   6.12120008       2.72300786E-05
   6.13320017       2.71748904E-05
   6.14519978       2.70000546E-05
   6.15719986       2.67250998E-05
   6.16919994       2.63686052E-05
   6.18120003       2.59475273E-05
   6.19320011       2.54767638E-05
   6.20520020       2.49689456E-05
   6.21719980       2.44345174E-05
   6.22919989       2.38820212E-05
   6.24119997       2.33185747E-05
   6.25320005       2.27505061E-05
   6.26520014       2.21840019E-05
   6.27720022       2.16257813E-05
   6.28919983       2.10836643E-05
   6.30119991       2.05669894E-05
   6.31320000       2.00868235E-05
   6.32520008       1.96559449E-05
   6.33720016       1.92885836E-05
   6.34919977       1.89999282E-05
   6.36119986       1.88054510E-05
   6.37319994       1.87200822E-05
   6.38520002       1.87573314E-05
   6.39720011       1.89284092E-05
   6.40920019       1.92414227E-05
   6.42119980       1.97007230E-05
   6.43319988       2.03064592E-05
   6.44519997       2.10543603E-05
   6.45720005       2.19357789E-05
   6.46920013       2.29379875E-05
   6.48120022       2.40446952E-05
   6.49319983       2.52367499E-05
   6.50519991       2.64929677E-05
   6.51719999       2.77910276E-05
   6.52920008       2.91083761E-05
   6.54120016       3.04230580E-05
   6.55319977       3.17144586E-05
   6.56519985       3.29639042E-05
   6.57719994       3.41550804E-05
   6.58920002       3.52743009E-05
   6.60120010       3.63106265E-05
   6.61320019       3.72558425E-05
   6.62519979       3.81043355E-05
   6.63719988       3.88529261E-05
   6.64919996       3.95006355E-05
   6.66120005       4.00485078E-05
   6.67320013       4.04994207E-05
   6.68520021       4.08579326E-05
   6.69719982       4.11302026E-05
   6.70919991       4.13238886E-05
   6.72119999       4.14480965E-05
   6.73320007       4.15132818E-05
   6.74520016       4.15311551E-05
   6.75719976       4.15144532E-05
   6.76919985       4.14766910E-05
   6.78119993       4.14317801E-05
   6.79320002       4.13935668E-05
   6.80520010       4.13753005E-05
   6.81720018       4.13890302E-05
   6.82919979       4.14450187E-05
   6.84119987       4.15511458E-05
   6.85319996       4.17124065E-05
   6.86520004       4.19305470E-05
   6.87720013       4.22038502E-05
   6.88920021       4.25271064E-05
   6.90119982       4.28918429E-05
   6.91319990       4.32867273E-05
   6.92519999       4.36982082E-05
   6.93720007       4.41113334E-05
   6.94920015       4.45106889E-05
   6.96120024       4.48814353E-05
   6.97319984       4.52103159E-05
   6.98519993       4.54866349E-05
   6.99720001       4.57030765E-05
   7.00920010       4.58563663E-05
   7.02120018       4.59476141E-05
   7.03319979       4.59824623E-05
   7.04519987       4.59708499E-05
   7.05719995       4.59265466E-05
   7.06920004       4.58663817E-05
   7.08120012       4.58092400E-05
   7.09320021       4.57749156E-05
   7.10519981       4.57828828E-05
   7.11719990       4.58510040E-05
   7.12919998       4.59943549E-05
   7.14120007       4.62241878E-05
   7.15320015       4.65471057E-05
   7.16520023       4.69644910E-05
   7.17719984       4.74722874E-05
   7.18919992       4.80610615E-05
   7.20120001       4.87163925E-05
   7.21320009       4.94195629E-05
   7.22520018       5.01484901E-05
   7.23719978       5.08788180E-05
   7.24919987       5.15851498E-05
   7.26119995       5.22423143E-05
   7.27320004       5.28265700E-05
   7.28520012       5.33167185E-05
   7.29720020       5.36950429E-05
   7.30919981       5.39480316E-05
   7.32119989       5.40668480E-05
   7.33319998       5.40475594E-05
   7.34520006       5.38910972E-05
   7.35720015       5.36029947E-05
   7.36920023       5.31929072E-05
   7.38119984       5.26739932E-05
   7.39319992       5.20621834E-05
   7.40520000       5.13753730E-05
   7.41720009       5.06326323E-05
   7.42920017       4.98534318E-05
   7.44119978       4.90569510E-05
   7.45319986       4.82614887E-05
   7.46519995       4.74839835E-05
   7.47720003       4.67396749E-05
   7.48920012       4.60418851E-05
   7.50120020       4.54018918E-05
   7.51319981       4.48289284E-05
   7.52519989       4.43302670E-05
   7.53719997       4.39112846E-05
   7.54920006       4.35756447E-05
   7.56120014       4.33254318E-05
   7.57320023       4.31613007E-05
   7.58519983       4.30825930E-05
   7.59719992       4.30874170E-05
   7.60920000       4.31727021E-05
   7.62120008       4.33342320E-05
   7.63320017       4.35666188E-05
   7.64519978       4.38633033E-05
   7.65719986       4.42165001E-05
   7.66919994       4.46171834E-05
   7.68120003       4.50551051E-05
   7.69320011       4.55188456E-05
   7.70520020       4.59959083E-05
   7.71719980       4.64728946E-05
   7.72919989       4.69357365E-05
   7.74119997       4.73700493E-05
   7.75320005       4.77614958E-05
   7.76520014       4.80962299E-05
   7.77720022       4.83614240E-05
   7.78919983       4.85457713E-05
   7.80119991       4.86399913E-05
   7.81320000       4.86373428E-05
   7.82520008       4.85340097E-05
   7.83720016       4.83294643E-05
   7.84919977       4.80266608E-05
   7.86119986       4.76321075E-05
   7.87319994       4.71558051E-05
   7.88520002       4.66109923E-05
   7.89720011       4.60137526E-05
   7.90920019       4.53824796E-05
   7.92119980       4.47372076E-05
   7.93319988       4.40988806E-05
   7.94519997       4.34885296E-05
   7.95720005       4.29264728E-05
   7.96920013       4.24315185E-05
   7.98120022       4.20202741E-05
   7.99319983       4.17065203E-05
   8.00520039       4.15007526E-05
   8.01720047       4.14098977E-05
   8.02919960       4.14371279E-05
   8.04119968       4.15819231E-05
   8.05319977       4.18402451E-05
   8.06519985       4.22048433E-05
   8.07719994       4.26656952E-05
   8.08920002       4.32104789E-05
   8.10120010       4.38251191E-05
   8.11320019       4.44943325E-05
   8.12520027       4.52021013E-05
   8.13720036       4.59321491E-05
   8.14920044       4.66683086E-05
   8.16119957       4.73948348E-05
   8.17319965       4.80966301E-05
   8.18519974       4.87594189E-05
   8.19719982       4.93698644E-05
   8.20919991       4.99156704E-05
   8.22119999       5.03856863E-05
   8.23320007       5.07700279E-05
   8.24520016       5.10602404E-05
   8.25720024       5.12494880E-05
   8.26920033       5.13327941E-05
   8.28120041       5.13073101E-05
   8.29319954       5.11725884E-05
   8.30519962       5.09308229E-05
   8.31719971       5.05870303E-05
   8.32919979       5.01491741E-05
   8.34119987       4.96281136E-05
   8.35319996       4.90374405E-05
   8.36520004       4.83931508E-05
   8.37720013       4.77131362E-05
   8.38920021       4.70165323E-05
   8.40120029       4.63229408E-05
   8.41320038       4.56515627E-05
   8.42520046       4.50203042E-05
   8.43719959       4.44448742E-05
   8.44919968       4.39380055E-05
   8.46119976       4.35087823E-05
   8.47319984       4.31621629E-05
   8.48519993       4.28987332E-05
   8.49720001       4.27146770E-05
   8.50920010       4.26020379E-05
   8.52120018       4.25491708E-05
   8.53320026       4.25414219E-05
   8.54520035       4.25619728E-05
   8.55720043       4.25927647E-05
   8.56919956       4.26154984E-05
   8.58119965       4.26126062E-05
   8.59319973       4.25681574E-05
   8.60519981       4.24686514E-05
   8.61719990       4.23036508E-05
   8.62919998       4.20662473E-05
   8.64120007       4.17533229E-05
   8.65320015       4.13656271E-05
   8.66520023       4.09077038E-05
   8.67720032       4.03876074E-05
   8.68920040       3.98165612E-05
   8.70119953       3.92084476E-05
   8.71319962       3.85792773E-05
   8.72519970       3.79465964E-05
   8.73719978       3.73288531E-05
   8.74919987       3.67448010E-05
   8.76119995       3.62128667E-05
   8.77320004       3.57505633E-05
   8.78520012       3.53739197E-05
   8.79720020       3.50969458E-05
   8.80920029       3.49311267E-05
   8.82120037       3.48849717E-05
   8.83320045       3.49636539E-05
   8.84519958       3.51686940E-05
   8.85719967       3.54977565E-05
   8.86919975       3.59445803E-05
   8.88119984       3.64990337E-05
   8.89319992       3.71473398E-05
   8.90520000       3.78724362E-05
   8.91720009       3.86545107E-05
   8.92920017       3.94716735E-05
   8.94120026       4.03007725E-05
   8.95320034       4.11182446E-05
   8.96520042       4.19010794E-05
   8.97719955       4.26277220E-05
   8.98919964       4.32789384E-05
   9.00119972       4.38385614E-05
   9.01319981       4.42940946E-05
   9.02519989       4.46370577E-05
   9.03719997       4.48631836E-05
   9.04920006       4.49723011E-05
   9.06120014       4.49680228E-05
   9.07320023       4.48571991E-05
   9.08520031       4.46492304E-05
   9.09720039       4.43552490E-05
   9.10919952       4.39872165E-05
   9.12119961       4.35571019E-05
   9.13319969       4.30761029E-05
   9.14519978       4.25540347E-05
   9.15719986       4.19989046E-05
   9.16919994       4.14167444E-05
   9.18120003       4.08116539E-05
   9.19320011       4.01860998E-05
   9.20520020       3.95414281E-05
   9.21720028       3.88785229E-05
   9.22920036       3.81985701E-05
   9.24120045       3.75038544E-05
   9.25319958       3.67984831E-05
   9.26519966       3.60890226E-05
   9.27719975       3.53849027E-05
   9.28919983       3.46986199E-05
   9.30119991       3.40456172E-05
   9.31320000       3.34439283E-05
   9.32520008       3.29135109E-05
   9.33720016       3.24753601E-05
   9.34920025       3.21504267E-05
   9.36120033       3.19584324E-05
   9.37320042       3.19166502E-05
   9.38519955       3.20387371E-05
   9.39719963       3.23337081E-05
   9.40919971       3.28051283E-05
   9.42119980       3.34505712E-05
   9.43319988       3.42614003E-05
   9.44519997       3.52228672E-05
