 -0.622799993         1.00000002E-24
 -0.610800028         1.00000002E-24
 -0.598800004         1.00000002E-24
 -0.586799979         1.00000002E-24
 -0.574800014         1.00000002E-24
 -0.562799990         1.00000002E-24
 -0.550800025         1.00000002E-24
 -0.538800001         1.00000002E-24
 -0.526799977         1.00000002E-24
 -0.514800012         1.00000002E-24
 -0.502799988         1.00000012E-24
 -0.490799993         1.00000022E-24
 -0.478799999         1.00000032E-24
 -0.466800004         1.00000041E-24
 -0.454800010         1.00000041E-24
 -0.442799985         1.00000041E-24
 -0.430799991         1.00000041E-24
 -0.418799996         1.00000041E-24
 -0.406800002         1.00000032E-24
 -0.394800007         9.99999921E-25
 -0.382800013         9.99999132E-25
 -0.370799989         9.99997554E-25
 -0.358799994         9.99995385E-25
 -0.346799999         9.99992131E-25
 -0.334800005         9.99985919E-25
 -0.322800010         9.99967479E-25
 -0.310799986         9.99911273E-25
 -0.298799992         9.99766615E-25
 -0.286799997         9.99470398E-25
 -0.274800003         9.99019465E-25
 -0.262800008         9.98653237E-25
 -0.250800014         9.99165503E-25
 -0.238800004         1.00223940E-24
 -0.226799995         1.01046949E-24
 -0.214800000         1.02643347E-24
 -0.202800006         1.05003392E-24
 -0.190799996         1.07371187E-24
 -0.178800002         1.07650296E-24
 -0.166800007         1.02043438E-24
 -0.154799998         8.55878189E-25
 -0.142800003         5.44317574E-25
 -0.130799994         1.04405778E-25
 -0.118799999        -3.23296104E-25
 -0.106799997        -4.17446949E-25
  -9.48000029E-02     3.26977520E-25
  -8.28000009E-02     2.47644678E-24
  -7.07999989E-02     6.35026797E-24
  -5.88000007E-02     1.15226625E-23
  -4.67999987E-02     1.62542675E-23
  -3.48000005E-02     1.71412201E-23
  -2.28000004E-02     9.42583784E-24
  -1.08000003E-02    -1.15550768E-23
   1.20000006E-03    -4.75347481E-23
   1.31999999E-02    -9.34283942E-23
   2.52000000E-02    -1.33643778E-22
   3.72000001E-02    -1.40850092E-22
   4.91999984E-02    -8.00744937E-23
   6.12000003E-02     7.94652091E-23
   7.32000023E-02     3.44530141E-22
   8.51999968E-02     6.73791923E-22
   9.71999988E-02     9.58514720E-22
  0.109200001         1.02160441E-21
  0.121200003         6.49849326E-22
  0.133200005        -3.31179484E-22
  0.145199999        -1.94404791E-21
  0.157199994        -3.93443369E-21
  0.169200003        -5.68473292E-21
  0.181199998        -6.23385887E-21
  0.193200007        -4.46739246E-21
  0.205200002         4.93249758E-22
  0.217199996         8.74565218E-21
  0.229200006         1.90459047E-20
  0.241200000         2.84685000E-20
  0.253199995         3.25705307E-20
  0.265199989         2.62960894E-20
  0.277200013         5.67826654E-21
  0.289200008        -2.99086667E-20
  0.301200002        -7.55633173E-20
  0.313199997        -1.19663838E-19
  0.325199991        -1.44681722E-19
  0.337199986        -1.30733375E-19
  0.349200010        -6.18753975E-20
  0.361200005         6.59312385E-20
  0.373199999         2.37428650E-19
  0.385199994         4.14301035E-19
  0.397199988         5.38097222E-19
  0.409200013         5.41700886E-19
  0.421200007         3.68818820E-19
  0.433200002        -2.19886215E-21
  0.445199996        -5.36894036E-19
  0.457199991        -1.13393206E-18
  0.469199985        -1.63257401E-18
  0.481200010        -1.84216452E-18
  0.493200004        -1.59109690E-18
  0.505200028        -7.85414506E-19
  0.517199993         5.38750746E-19
  0.529200017         2.18680022E-18
  0.541199982         3.81584290E-18
  0.553200006         4.98899759E-18
  0.565199971         5.26704774E-18
  0.577199996         4.31866283E-18
  0.589200020         2.02296138E-18
  0.601199985        -1.46157665E-18
  0.613200009        -5.67956560E-18
  0.625199974        -9.91687315E-18
  0.637199998        -1.32858168E-17
  0.649200022        -1.48418271E-17
  0.661199987        -1.37183562E-17
  0.673200011        -9.27640292E-18
  0.685199976        -1.27446250E-18
  0.697200000         9.93640619E-18
  0.709200025         2.32078673E-17
  0.721199989         3.64347516E-17
  0.733200014         4.65417605E-17
  0.745199978         4.97466520E-17
  0.757200003         4.22125421E-17
  0.769200027         2.11157042E-17
  0.781199992        -1.40001278E-17
  0.793200016        -5.99039634E-17
  0.805199981        -1.08877847E-16
  0.817200005        -1.48977214E-16
  0.829200029        -1.65762548E-16
  0.841199994        -1.45573173E-16
  0.853200018        -7.99052303E-17
  0.865199983         3.00969864E-17
  0.877200007         1.70437058E-16
  0.889199972         3.13823960E-16
  0.901199996         4.23062332E-16
  0.913200021         4.58461612E-16
  0.925199986         3.88237843E-16
  0.937200010         1.99657656E-16
  0.949199975        -9.21646028E-17
  0.961199999        -4.40988963E-16
  0.973200023        -7.73988743E-16
  0.985199988        -1.00463232E-15
  0.997200012        -1.05213255E-15
   1.00919998        -8.63453104E-16
   1.02119994        -4.32389382E-16
   1.03320003         1.89911695E-16
   1.04519999         8.97200909E-16
   1.05719995         1.54454489E-15
   1.06920004         1.97674239E-15
   1.08120000         2.06316029E-15
   1.09319997         1.73112284E-15
   1.10520005         9.89558099E-16
   1.11720002        -6.37117338E-17
   1.12919998        -1.25416029E-15
   1.14119995        -2.36086802E-15
   1.15320003        -3.15922177E-15
   1.16520000        -3.46710808E-15
   1.17719996        -3.18455356E-15
   1.18920004        -2.31790820E-15
   1.20120001        -9.82860610E-16
   1.21319997         6.14926914E-16
   1.22520006         2.21796001E-15
   1.23720002         3.56609426E-15
   1.24919999         4.44644567E-15
   1.26119995         4.73320190E-15
   1.27320004         4.40826820E-15
   1.28520000         3.55746087E-15
   1.29719996         2.34229894E-15
   1.30920005         9.53360040E-16
   1.32120001        -4.43472940E-16
   1.33319998        -1.75309679E-15
   1.34519994        -2.97459739E-15
   1.35720003        -4.19078656E-15
   1.36919999        -5.52053977E-15
   1.38119996        -7.04137388E-15
   1.39320004        -8.70100365E-15
   1.40520000        -1.02452209E-14
   1.41719997        -1.11920479E-14
   1.42920005        -1.08763028E-14
   1.44120002        -8.57420536E-15
   1.45319998        -3.69645517E-15
   1.46519995         3.98474495E-15
   1.47720003         1.41278269E-14
   1.48920000         2.56940685E-14
   1.50119996         3.69537131E-14
   1.51320004         4.56569732E-14
   1.52520001         4.93663067E-14
   1.53719997         4.59070715E-14
   1.54920006         3.38599252E-14
   1.56120002         1.29985329E-14
   1.57319999        -1.54231825E-14
   1.58519995        -4.86082257E-14
   1.59720004        -8.24138324E-14
   1.60920000        -1.11798063E-13
   1.62119997        -1.31460936E-13
   1.63320005        -1.36593102E-13
   1.64520001        -1.23629798E-13
   1.65719998        -9.09094916E-14
   1.66919994        -3.91525937E-14
   1.68120003         2.83022253E-14
   1.69319999         1.05543070E-13
   1.70519996         1.84428522E-13
   1.71720004         2.55228130E-13
   1.72920001         3.07536304E-13
   1.74119997         3.31409596E-13
   1.75320005         3.18643820E-13
   1.76520002         2.64068227E-13
   1.77719998         1.66700502E-13
   1.78919995         3.05863191E-14
   1.80120003        -1.34846371E-13
   1.81320000        -3.15048064E-13
   1.82519996        -4.91283446E-13
   1.83720005        -6.42210948E-13
   1.84920001        -7.45980372E-13
   1.86119998        -7.82647222E-13
   1.87320006        -7.36653360E-13
   1.88520002        -5.99118140E-13
   1.89719999        -3.69708116E-13
   1.90919995        -5.78955964E-14
   1.92120004         3.16538164E-13
   1.93320000         7.23869695E-13
   1.94519997         1.12576539E-12
   1.95720005         1.47765936E-12
   1.96920002         1.73222005E-12
   1.98119998         1.84385905E-12
   1.99319994         1.77409313E-12
   2.00519991         1.49734532E-12
   2.01719999         1.00655346E-12
   2.02920008         3.17735042E-13
   2.04119992        -5.27431180E-13
   2.05320001        -1.46187869E-12
   2.06520009        -2.39687285E-12
   2.07719994        -3.22930072E-12
   2.08920002        -3.85204889E-12
   2.10120010        -4.16638208E-12
   2.11319995        -4.09473453E-12
   2.12520003        -3.59210079E-12
   2.13720012        -2.65427220E-12
   2.14919996        -1.32162586E-12
   2.16120005         3.22167613E-13
   2.17319989         2.15631007E-12
   2.18519998         4.03295583E-12
   2.19720006         5.78969121E-12
   2.20919991         7.26271430E-12
   2.22119999         8.29916691E-12
   2.23320007         8.76758041E-12
   2.24519992         8.56604284E-12
   2.25720000         7.62834761E-12
   2.26920009         5.92884552E-12
   2.28119993         3.48683235E-12
   2.29320002         3.71100449E-13
   2.30520010        -3.29528050E-12
   2.31719995        -7.33060140E-12
   2.32920003        -1.14919281E-11
   2.34120011        -1.54761846E-11
   2.35319996        -1.89269954E-11
   2.36520004        -2.14492226E-11
   2.37719989        -2.26324567E-11
   2.38919997        -2.20838937E-11
   2.40120006        -1.94697522E-11
   2.41319990        -1.45630730E-11
   2.42519999        -7.29435089E-12
   2.43720007         2.19985575E-12
   2.44919991         1.35364315E-11
   2.46120000         2.60601575E-11
   2.47320008         3.88403927E-11
   2.48519993         5.06966517E-11
   2.49720001         6.02584857E-11
   2.50920010         6.60623223E-11
   2.52119994         6.66841374E-11
   2.53320003         6.09020542E-11
   2.54520011         4.78771675E-11
   2.55719995         2.73357916E-11
   2.56920004        -2.68556878E-13
   2.58119988        -3.36378876E-11
   2.59319997        -7.05816239E-11
   2.60520005        -1.08059207E-10
   2.61719990        -1.42328274E-10
   2.62919998        -1.69203609E-10
   2.64120007        -1.84419494E-10
   2.65319991        -1.84074825E-10
   2.66520000        -1.65126565E-10
   2.67720008        -1.25885177E-10
   2.68919992        -6.64576727E-11
   2.70120001         1.09203965E-11
   2.71320009         1.01720264E-10
   2.72519994         1.99170874E-10
   2.73720002         2.94558489E-10
   2.74920011         3.77787912E-10
   2.76119995         4.38192288E-10
   2.77320004         4.65550515E-10
   2.78520012         4.51241128E-10
   2.79719996         3.89436206E-10
   2.80920005         2.78215229E-10
   2.82119989         1.20468649E-10
   2.83319998        -7.55421975E-11
   2.84520006        -2.96086350E-10
   2.85719991        -5.22415666E-10
   2.86919999        -7.31814109E-10
   2.88120008        -8.99232688E-10
   2.89319992        -9.99435090E-10
   2.90520000        -1.00951392E-09
   2.91720009        -9.11572540E-10
   2.92919993        -6.95326352E-10
   2.94120002        -3.60343033E-10
   2.95320010         8.23566423E-11
   2.96519995         6.09589934E-10
   2.97720003         1.18639198E-09
   2.98920012         1.76759751E-09
   3.00119996         2.30063413E-09
   3.01320004         2.72942180E-09
   3.02519989         2.99915448E-09
   3.03719997         3.06163250E-09
   3.04920006         2.88072566E-09
   3.06119990         2.43749243E-09
   3.07319999         1.73445858E-09
   3.08520007         7.98585142E-10
   3.09719992        -3.17476767E-10
   3.10920000        -1.53614066E-09
   3.12120008        -2.75780132E-09
   3.13319993        -3.86590715E-09
   3.14520001        -4.73402473E-09
   3.15720010        -5.23455546E-09
   3.16919994        -5.24867350E-09
   3.18120003        -4.67692729E-09
   3.19320011        -3.44995943E-09
   3.20519996        -1.53880741E-09
   3.21720004         1.03569220E-09
   3.22919989         4.19467838E-09
   3.24119997         7.79441933E-09
   3.25320005         1.16208465E-08
   3.26519990         1.53852326E-08
   3.27719998         1.87208293E-08
   3.28920007         2.11800213E-08
   3.30119991         2.22317009E-08
   3.31320000         2.12584688E-08
   3.32520008         1.75536297E-08
   3.33719993         1.03178994E-08
   3.34920001        -1.34392764E-09
   3.36120009        -1.84256770E-08
   3.37319994        -4.20213766E-08
   3.38520002        -7.33246850E-08
   3.39720011        -1.13625156E-07
   3.40919995        -1.64300346E-07
   3.42120004        -2.26802896E-07
   3.43319988        -3.02641666E-07
   3.44519997        -3.93356885E-07
   3.45720005        -5.00488682E-07
   3.46919990        -6.25540338E-07
   3.48119998        -7.69936491E-07
   3.49320006        -9.34977948E-07
   3.50519991        -1.12179475E-06
   3.51719999        -1.33130004E-06
   3.52920008        -1.56414649E-06
   3.54119992        -1.82068777E-06
   3.55320001        -2.10094731E-06
   3.56520009        -2.40459667E-06
   3.57719994        -2.73094429E-06
   3.58920002        -3.07893470E-06
   3.60120010        -3.44716182E-06
   3.61319995        -3.83389215E-06
   3.62520003        -4.23709980E-06
   3.63720012        -4.65450830E-06
   3.64919996        -5.08364656E-06
   3.66120005        -5.52189886E-06
   3.67319989        -5.96657173E-06
   3.68519998        -6.41495035E-06
   3.69720006        -6.86435897E-06
   3.70919991        -7.31221598E-06
   3.72119999        -7.75608351E-06
   3.73320007        -8.19371235E-06
   3.74519992        -8.62307479E-06
   3.75720000        -9.04239187E-06
   3.76920009        -9.45015563E-06
   3.78119993        -9.84513463E-06
   3.79320002        -1.02263775E-05
   3.80520010        -1.05932086E-05
   3.81719995        -1.09452139E-05
   3.82920003        -1.12822263E-05
   3.84120011        -1.16043020E-05
   3.85319996        -1.19116967E-05
   3.86520004        -1.22048386E-05
   3.87719989        -1.24842991E-05
   3.88919997        -1.27507656E-05
   3.90120006        -1.30050148E-05
   3.91319990        -1.32478899E-05
   3.92519999        -1.34802749E-05
   3.93720007        -1.37030811E-05
   3.94919991        -1.39172289E-05
   3.96120000        -1.41236433E-05
   3.97320008        -1.43232410E-05
   3.98519993        -1.45169361E-05
   3.99720001        -1.47056344E-05
   4.00920010        -1.48902382E-05
   4.02120018        -1.50716505E-05
   4.03319979        -1.52507737E-05
   4.04519987        -1.54285117E-05
   4.05719995        -1.56057631E-05
   4.06920004        -1.57834147E-05
   4.08120012        -1.59623232E-05
   4.09320021        -1.61433018E-05
   4.10519981        -1.63270961E-05
   4.11719990        -1.65143465E-05
   4.12919998        -1.67055769E-05
   4.14120007        -1.69011528E-05
   4.15320015        -1.71012580E-05
   4.16520023        -1.73058852E-05
   4.17719984        -1.75148034E-05
   4.18919992        -1.77275724E-05
   4.20120001        -1.79435410E-05
   4.21320009        -1.81618689E-05
   4.22520018        -1.83815591E-05
   4.23719978        -1.86014931E-05
   4.24919987        -1.88204849E-05
   4.26119995        -1.90373303E-05
   4.27320004        -1.92508724E-05
   4.28520012        -1.94600543E-05
   4.29720020        -1.96639630E-05
   4.30919981        -1.98618818E-05
   4.32119989        -2.00533250E-05
   4.33319998        -2.02380561E-05
   4.34520006        -2.04160860E-05
   4.35720015        -2.05876786E-05
   4.36920023        -2.07533249E-05
   4.38119984        -2.09137070E-05
   4.39319992        -2.10696617E-05
   4.40520000        -2.12221312E-05
   4.41720009        -2.13721160E-05
   4.42920017        -2.15206273E-05
   4.44119978        -2.16686458E-05
   4.45319986        -2.18170826E-05
   4.46519995        -2.19667618E-05
   4.47720003        -2.21184000E-05
   4.48920012        -2.22726121E-05
   4.50120020        -2.24299129E-05
   4.51319981        -2.25907406E-05
   4.52519989        -2.27554792E-05
   4.53719997        -2.29244779E-05
   4.54920006        -2.30980950E-05
   4.56120014        -2.32767034E-05
   4.57320023        -2.34607269E-05
   4.58519983        -2.36506312E-05
   4.59719992        -2.38469293E-05
   4.60920000        -2.40501777E-05
   4.62120008        -2.42609331E-05
   4.63320017        -2.44797375E-05
   4.64519978        -2.47070529E-05
   4.65719986        -2.49432433E-05
   4.66919994        -2.51885031E-05
   4.68120003        -2.54428378E-05
   4.69320011        -2.57060183E-05
   4.70520020        -2.59775607E-05
   4.71719980        -2.62567337E-05
   4.72919989        -2.65425624E-05
   4.74119997        -2.68338608E-05
   4.75320005        -2.71292847E-05
   4.76520014        -2.74273916E-05
   4.77720022        -2.77267118E-05
   4.78919983        -2.80258337E-05
   4.80119991        -2.83234785E-05
   4.81320000        -2.86185659E-05
   4.82520008        -2.89102863E-05
   4.83720016        -2.91981341E-05
   4.84919977        -2.94819383E-05
   4.86119986        -2.97618553E-05
   4.87319994        -3.00383599E-05
   4.88520002        -3.03121960E-05
   4.89720011        -3.05843241E-05
   4.90920019        -3.08558629E-05
   4.92119980        -3.11279982E-05
   4.93319988        -3.14019380E-05
   4.94519997        -3.16788319E-05
   4.95720005        -3.19597493E-05
   4.96920013        -3.22456326E-05
   4.98120022        -3.25373076E-05
   4.99319983        -3.28354981E-05
   5.00519991        -3.31408628E-05
   5.01719999        -3.34540491E-05
   5.02920008        -3.37757592E-05
   5.04120016        -3.41067935E-05
   5.05319977        -3.44481341E-05
   5.06519985        -3.48009744E-05
   5.07719994        -3.51667222E-05
   5.08920002        -3.55470074E-05
   5.10120010        -3.59436272E-05
   5.11320019        -3.63584768E-05
   5.12519979        -3.67934263E-05
   5.13719988        -3.72501927E-05
   5.14919996        -3.77301840E-05
   5.16120005        -3.82343351E-05
   5.17320013        -3.87629298E-05
   5.18520021        -3.93154587E-05
   5.19719982        -3.98904958E-05
   5.20919991        -4.04855891E-05
   5.22119999        -4.10972243E-05
   5.23320007        -4.17208321E-05
   5.24520016        -4.23508391E-05
   5.25719976        -4.29807806E-05
   5.26919985        -4.36034898E-05
   5.28119993        -4.42112832E-05
   5.29320002        -4.47962339E-05
   5.30520010        -4.53504617E-05
   5.31720018        -4.58664326E-05
   5.32919979        -4.63372489E-05
   5.34119987        -4.67569698E-05
   5.35319996        -4.71208550E-05
   5.36520004        -4.74256340E-05
   5.37720013        -4.76696769E-05
   5.38920021        -4.78531474E-05
   5.40119982        -4.79780902E-05
   5.41319990        -4.80484487E-05
   5.42519999        -4.80700292E-05
   5.43720007        -4.80504241E-05
   5.44920015        -4.79988412E-05
   5.46120024        -4.79259252E-05
   5.47319984        -4.78435177E-05
   5.48519993        -4.77643953E-05
   5.49720001        -4.77019457E-05
   5.50920010        -4.76698806E-05
   5.52120018        -4.76818968E-05
   5.53319979        -4.77513240E-05
   5.54519987        -4.78908041E-05
   5.55719995        -4.81119205E-05
   5.56920004        -4.84248885E-05
   5.58120012        -4.88382029E-05
   5.59320021        -4.93582993E-05
   5.60519981        -4.99892558E-05
   5.61719990        -5.07324694E-05
   5.62919998        -5.15863430E-05
   5.64120007        -5.25460200E-05
   5.65320015        -5.36031184E-05
   5.66520023        -5.47454874E-05
   5.67719984        -5.59570108E-05
   5.68919992        -5.72174467E-05
   5.70120001        -5.85023117E-05
   5.71320009        -5.97828512E-05
   5.72520018        -6.10260468E-05
   5.73719978        -6.21947329E-05
   5.74919987        -6.32477459E-05
   5.76119995        -6.41402657E-05
   5.77320004        -6.48241257E-05
   5.78520012        -6.52483286E-05
   5.79720020        -6.53596071E-05
   5.80919981        -6.51030859E-05
   5.82119989        -6.44230531E-05
   5.83319998        -6.32637893E-05
   5.84520006        -6.15704776E-05
   5.85720015        -5.92901706E-05
   5.86920023        -5.63728499E-05
   5.88119984        -5.27724187E-05
   5.89319992        -4.84478005E-05
   5.90520000        -4.33639907E-05
   5.91720009        -3.74930896E-05
   5.92920017        -3.08153030E-05
   5.94119978        -2.33198589E-05
   5.95319986        -1.50058813E-05
   5.96519995        -5.88310468E-06
   5.97720003         4.02748447E-06
   5.98920012         1.46931789E-05
   6.00120020         2.60692177E-05
   6.01319981         3.80986821E-05
   6.02519989         5.07125224E-05
   6.03719997         6.38298297E-05
   6.04920006         7.73583233E-05
   6.06120014         9.11950556E-05
   6.07320023         1.05227366E-04
   6.08519983         1.19333978E-04
   6.09719992         1.33386449E-04
   6.10920000         1.47250728E-04
   6.12120008         1.60788884E-04
   6.13320017         1.73861103E-04
   6.14519978         1.86327714E-04
   6.15719986         1.98051319E-04
   6.16919994         2.08899088E-04
   6.18120003         2.18744943E-04
   6.19320011         2.27471799E-04
   6.20520020         2.34973719E-04
   6.21719980         2.41157963E-04
   6.22919989         2.45946780E-04
   6.24119997         2.49279226E-04
   6.25320005         2.51112477E-04
   6.26520014         2.51423131E-04
   6.27720022         2.50207871E-04
   6.28919983         2.47484015E-04
   6.30119991         2.43289745E-04
   6.31320000         2.37683853E-04
   6.32520008         2.30745049E-04
   6.33720016         2.22570961E-04
   6.34919977         2.13276857E-04
   6.36119986         2.02993790E-04
   6.37319994         1.91866580E-04
   6.38520002         1.80051458E-04
   6.39720011         1.67713428E-04
   6.40920019         1.55023372E-04
   6.42119980         1.42155186E-04
   6.43319988         1.29282620E-04
   6.44519997         1.16576273E-04
   6.45720005         1.04200524E-04
   6.46920013         9.23106418E-05
   6.48120022         8.10501078E-05
   6.49319983         7.05481216E-05
   6.50519991         6.09175040E-05
   6.51719999         5.22529299E-05
   6.52920008         4.46295417E-05
   6.54120016         3.81020363E-05
   6.55319977         3.27041744E-05
   6.56519985         2.84487414E-05
   6.57719994         2.53279632E-05
   6.58920002         2.33142910E-05
   6.60120010         2.23616189E-05
   6.61320019         2.24068062E-05
   6.62519979         2.33714909E-05
   6.63719988         2.51641486E-05
   6.64919996         2.76822848E-05
   6.66120005         3.08147828E-05
   6.67320013         3.44442888E-05
   6.68520021         3.84495870E-05
   6.69719982         4.27079649E-05
   6.70919991         4.70974483E-05
   6.72119999         5.14989442E-05
   6.73320007         5.57982348E-05
   6.74520016         5.98877450E-05
   6.75719976         6.36681725E-05
   6.76919985         6.70499139E-05
   6.78119993         6.99541561E-05
   6.79320002         7.23139092E-05
   6.80520010         7.40746909E-05
   6.81720018         7.51950065E-05
   6.82919979         7.56466106E-05
   6.84119987         7.54145076E-05
   6.85319996         7.44967983E-05
   6.86520004         7.29041640E-05
   6.87720013         7.06592982E-05
   6.88920021         6.77959979E-05
   6.90119982         6.43581807E-05
   6.91319990         6.03986555E-05
   6.92519999         5.59778055E-05
   6.93720007         5.11621402E-05
   6.94920015         4.60227566E-05
   6.96120024         4.06337895E-05
   6.97319984         3.50708142E-05
   6.98519993         2.94092970E-05
   6.99720001         2.37230852E-05
   7.00920010         1.80829920E-05
   7.02120018         1.25554971E-05
   7.03319979         7.20158960E-06
   7.04519987         2.07576818E-06
   7.05719995        -2.77477238E-06
   7.06920004        -7.31076943E-06
   7.08120012        -1.15013027E-05
   7.09320021        -1.53240162E-05
   7.10519981        -1.87651203E-05
   7.11719990        -2.18191963E-05
   7.12919998        -2.44887924E-05
   7.14120007        -2.67838441E-05
   7.15320015        -2.87209241E-05
   7.16520023        -3.03223442E-05
   7.17719984        -3.16151163E-05
   7.18919992        -3.26298214E-05
   7.20120001        -3.33994212E-05
   7.21320009        -3.39580256E-05
   7.22520018        -3.43396641E-05
   7.23719978        -3.45771005E-05
   7.24919987        -3.47007481E-05
   7.26119995        -3.47376772E-05
   7.27320004        -3.47108216E-05
   7.28520012        -3.46383204E-05
   7.29720020        -3.45331209E-05
   7.30919981        -3.44027867E-05
   7.32119989        -3.42495478E-05
   7.33319998        -3.40705665E-05
   7.34520006        -3.38584468E-05
   7.35720015        -3.36019220E-05
   7.36920023        -3.32867276E-05
   7.38119984        -3.28965980E-05
   7.39319992        -3.24143439E-05
   7.40520000        -3.18229504E-05
   7.41720009        -3.11067379E-05
   7.42920017        -3.02523731E-05
   7.44119978        -2.92498535E-05
   7.45319986        -2.80933182E-05
   7.46519995        -2.67816922E-05
   7.47720003        -2.53191429E-05
   7.48920012        -2.37153181E-05
   7.50120020        -2.19853591E-05
   7.51319981        -2.01497078E-05
   7.52519989        -1.82336971E-05
   7.53719997        -1.62669385E-05
   7.54920006        -1.42825638E-05
   7.56120014        -1.23163036E-05
   7.57320023        -1.04054625E-05
   7.58519983        -8.58782732E-06
   7.59719992        -6.90052184E-06
   7.60920000        -5.37886535E-06
   7.62120008        -4.05526453E-06
   7.63320017        -2.95816403E-06
   7.64519978        -2.11110068E-06
   7.65719986        -1.53187739E-06
   7.66919994        -1.23188909E-06
   7.68120003        -1.21561516E-06
   7.69320011        -1.48029892E-06
   7.70520020        -2.01581906E-06
   7.71719980        -2.80476479E-06
   7.72919989        -3.82270719E-06
   7.74119997        -5.03867022E-06
   7.75320005        -6.41578163E-06
   7.76520014        -7.91209914E-06
   7.77720022        -9.48157776E-06
   7.78919983        -1.10751680E-05
   7.80119991        -1.26420064E-05
   7.81320000        -1.41306773E-05
   7.82520008        -1.54904938E-05
   7.83720016        -1.66727878E-05
   7.84919977        -1.76321555E-05
   7.86119986        -1.83276406E-05
   7.87319994        -1.87238002E-05
   7.88520002        -1.87916667E-05
   7.89720011        -1.85095323E-05
   7.90920019        -1.78635783E-05
   7.92119980        -1.68483020E-05
   7.93319988        -1.54667759E-05
   7.94519997        -1.37306824E-05
   7.95720005        -1.16601695E-05
   7.96920013        -9.28351164E-06
   7.98120022        -6.63659648E-06
   7.99319983        -3.76224511E-06
   8.00520039        -7.09392054E-07
   8.01720047         2.46786726E-06
   8.02919960         5.71133205E-06
   8.04119968         8.95984158E-06
   8.05319977         1.21504881E-05
   8.06519985         1.52198754E-05
   8.07719994         1.81054147E-05
   8.08920002         2.07466182E-05
   8.10120010         2.30864080E-05
   8.11320019         2.50723770E-05
   8.12520027         2.66580319E-05
   8.13720036         2.78039588E-05
   8.14920044         2.84788985E-05
   8.16119957         2.86607283E-05
   8.17319965         2.83372901E-05
   8.18519974         2.75070597E-05
   8.19719982         2.61796158E-05
   8.20919991         2.43758932E-05
   8.22119999         2.21281662E-05
   8.23320007         1.94797703E-05
   8.24520016         1.64845187E-05
   8.25720024         1.32058294E-05
   8.26920033         9.71553709E-06
   8.28120041         6.09241533E-06
   8.29319954         2.42043484E-06
   8.30519962        -1.21320738E-06
   8.31719971        -4.72024021E-06
   8.32919979        -8.01358874E-06
   8.34119987        -1.10096971E-05
   8.35319996        -1.36308181E-05
   8.36520004        -1.58072016E-05
   8.37720013        -1.74790875E-05
   8.38920021        -1.85984609E-05
   8.40120029        -1.91304680E-05
   8.41320038        -1.90544670E-05
   8.42520046        -1.83646534E-05
   8.43719959        -1.70702751E-05
   8.44919968        -1.51953855E-05
   8.46119976        -1.27781987E-05
   8.47319984        -9.87003295E-06
   8.48519993        -6.53391544E-06
   8.49720001        -2.84288831E-06
   8.50920010         1.12191674E-06
   8.52120018         5.27336715E-06
   8.53320026         9.52051687E-06
   8.54520035         1.37708312E-05
   8.55720043         1.79323688E-05
   8.56919956         2.19158992E-05
   8.58119965         2.56368803E-05
   8.59319973         2.90172684E-05
   8.60519981         3.19871397E-05
   8.61719990         3.44861000E-05
   8.62919998         3.64644402E-05
   8.64120007         3.78840705E-05
   8.65320015         3.87191940E-05
   8.66520023         3.89567431E-05
   8.67720032         3.85965359E-05
   8.68920040         3.76512180E-05
   8.70119953         3.61459061E-05
   8.71319962         3.41176274E-05
   8.72519970         3.16145051E-05
   8.73719978         2.86946943E-05
   8.74919987         2.54251427E-05
   8.76119995         2.18801179E-05
   8.77320004         1.81395862E-05
   8.78520012         1.42874505E-05
   8.79720020         1.04096753E-05
   8.80920029         6.59235957E-06
   8.82120037         2.91978790E-06
   8.83320045        -5.27491522E-07
   8.84519958        -3.67450616E-06
   8.85719967        -6.45357750E-06
   8.86919975        -8.80586322E-06
   8.88119984        -1.06827001E-05
   8.89319992        -1.20466857E-05
   8.90520000        -1.28724978E-05
   8.91720009        -1.31474108E-05
   8.92920017        -1.28715055E-05
   8.94120026        -1.20575623E-05
   8.95320034        -1.07306523E-05
   8.96520042        -8.92742810E-06
   8.97719955        -6.69514475E-06
   8.98919964        -4.09042468E-06
   9.00119972        -1.17781940E-06
   9.01319981         1.97181089E-06
   9.02519989         5.28304508E-06
   9.03719997         8.67773815E-06
   9.04920006         1.20768982E-05
   9.06120014         1.54025511E-05
   9.07320023         1.85795634E-05
   9.08520031         2.15373475E-05