 -0.622799993         1.00000002E-24
 -0.610800028         1.00000002E-24
 -0.598800004         1.00000002E-24
 -0.586799979         1.00000002E-24
 -0.574800014         1.00000002E-24
 -0.562799990         1.00000002E-24
 -0.550800025         1.00000002E-24
 -0.538800001         1.00000002E-24
 -0.526799977         1.00000002E-24
 -0.514800012         1.00000002E-24
 -0.502799988         1.00000002E-24
 -0.490799993         1.00000012E-24
 -0.478799999         1.00000022E-24
 -0.466800004         1.00000032E-24
 -0.454800010         1.00000041E-24
 -0.442799985         1.00000041E-24
 -0.430799991         1.00000051E-24
 -0.418799996         1.00000071E-24
 -0.406800002         1.00000120E-24
 -0.394800007         1.00000209E-24
 -0.382800013         1.00000288E-24
 -0.370799989         1.00000091E-24
 -0.358799994         9.99990356E-25
 -0.346799999         9.99961267E-25
 -0.334800005         9.99902990E-25
 -0.322800010         9.99817793E-25
 -0.310799986         9.99744922E-25
 -0.298799992         9.99786238E-25
 -0.286799997         1.00011056E-24
 -0.274800003         1.00090396E-24
 -0.262800008         1.00225419E-24
 -0.250800014         1.00402114E-24
 -0.238800004         1.00583463E-24
 -0.226799995         1.00737114E-24
 -0.214800000         1.00884463E-24
 -0.202800006         1.01108687E-24
 -0.190799996         1.01386376E-24
 -0.178800002         1.01085603E-24
 -0.166800007         9.81279068E-25
 -0.154799998         8.82588723E-25
 -0.142800003         6.55905894E-25
 -0.130799994         2.62182902E-25
 -0.118799999        -2.35110280E-25
 -0.106799997        -5.46408500E-25
  -9.48000029E-02    -4.47198868E-26
  -8.28000009E-02     2.21405764E-24
  -7.07999989E-02     7.16757046E-24
  -5.88000007E-02     1.49714298E-23
  -4.67999987E-02     2.37930042E-23
  -3.48000005E-02     2.85531486E-23
  -2.28000004E-02     2.04812730E-23
  -1.08000003E-02    -1.12474723E-23
   1.20000006E-03    -7.45758303E-23
   1.31999999E-02    -1.66046777E-22
   2.52000000E-02    -2.60486541E-22
   3.72000001E-02    -3.03600907E-22
   4.91999984E-02    -2.14940969E-22
   6.12000003E-02     9.06167299E-23
   7.32000023E-02     6.58307076E-22
   8.51999968E-02     1.43061523E-21
   9.71999988E-02     2.18539886E-21
  0.109200001         2.50984349E-21
  0.121200003         1.85394319E-21
  0.133200005        -3.00588544E-22
  0.145199999        -4.15270719E-21
  0.157199994        -9.23074272E-21
  0.169200003        -1.41046169E-20
  0.181199998        -1.63478386E-20
  0.193200007        -1.29436818E-20
  0.205200002        -1.24984264E-21
  0.217199996         1.95499598E-20
  0.229200006         4.68486697E-20
  0.241200000         7.34932784E-20
  0.253199995         8.79243037E-20
  0.265199989         7.62804183E-20
  0.277200013         2.67322479E-20
  0.289200008        -6.44865805E-20
  0.301200002        -1.86883985E-19
  0.313199997        -3.11771921E-19
  0.325199991        -3.93360234E-19
  0.337199986        -3.77059529E-19
  0.349200010        -2.15418421E-19
  0.361200005         1.10631077E-19
  0.373199999         5.70660634E-19
  0.385199994         1.07164154E-18
  0.397199988         1.46125653E-18
  0.409200013         1.55367866E-18
  0.421200007         1.17833243E-18
  0.433200002         2.44242498E-19
  0.445199996        -1.19577498E-18
  0.457199991        -2.90278274E-18
  0.469199985        -4.45363306E-18
  0.481200010        -5.30287210E-18
  0.493200004        -4.90630931E-18
  0.505200028        -2.88879036E-18
  0.517199993         7.80826755E-19
  0.529200017         5.65826901E-18
  0.541199982         1.07890135E-17
  0.553200006         1.48100121E-17
  0.565199971         1.61998873E-17
  0.577199996         1.36509782E-17
  0.589200020         6.49605449E-18
  0.601199985        -4.90956468E-18
  0.613200009        -1.89634514E-17
  0.625199974        -3.28504953E-17
  0.637199998        -4.28990159E-17
  0.649200022        -4.52591905E-17
  0.661199987        -3.68274374E-17
  0.673200011        -1.62618563E-17
  0.685199976         1.51315719E-17
  0.697200000         5.28973531E-17
  0.709200025         8.95568663E-17
  0.721199989         1.15533984E-16
  0.733200014         1.20911386E-16
  0.745199978         9.78489218E-17
  0.757200003         4.32622773E-17
  0.769200027        -3.88568060E-17
  0.781199992        -1.36224722E-16
  0.793200016        -2.28864623E-16
  0.805199981        -2.91968313E-16
  0.817200005        -3.00976852E-16
  0.829200029        -2.38172483E-16
  0.841199994        -9.93937709E-17
  0.853200018         1.01001711E-16
  0.865199983         3.28868509E-16
  0.877200007         5.34122301E-16
  0.889199972         6.60012996E-16
  0.901199996         6.56590242E-16
  0.913200021         4.95551702E-16
  0.925199986         1.82544970E-16
  0.937200010        -2.37179257E-16
  0.949199975        -6.82805382E-16
  0.961199999        -1.05248227E-15
  0.973200023        -1.24617965E-15
  0.985199988        -1.19182660E-15
  0.997200012        -8.67832371E-16
   1.00919998        -3.15054540E-16
   1.02119994         3.66611768E-16
   1.03320003         1.03792400E-15
   1.04519999         1.55240906E-15
   1.05719995         1.79289029E-15
   1.06920004         1.70227142E-15
   1.08120000         1.29925039E-15
   1.09319997         6.73500301E-16
   1.10520005        -3.91860503E-17
   1.11720002        -6.95008003E-16
   1.12919998        -1.18217667E-15
   1.14119995        -1.45031861E-15
   1.15320003        -1.51960220E-15
   1.16520000        -1.46615717E-15
   1.17719996        -1.38805142E-15
   1.18920004        -1.36274578E-15
   1.20120001        -1.41022304E-15
   1.21319997        -1.47466181E-15
   1.22520006        -1.43188527E-15
   1.23720002        -1.12171917E-15
   1.24919999        -3.96593055E-16
   1.26119995         8.27108297E-16
   1.27320004         2.52870760E-15
   1.28520000         4.56356110E-15
   1.29719996         6.66706494E-15
   1.30920005         8.47904798E-15
   1.32120001         9.58192215E-15
   1.33319998         9.54677367E-15
   1.34519994         7.98567501E-15
   1.35720003         4.61305959E-15
   1.36919999        -6.79607144E-16
   1.38119996        -7.73612724E-15
   1.39320004        -1.60458686E-14
   1.40520000        -2.46770852E-14
   1.41719997        -3.22696954E-14
   1.42920005        -3.71260877E-14
   1.44120002        -3.74258391E-14
   1.45319998        -3.15622670E-14
   1.46519995        -1.85597353E-14
   1.47720003         1.50870936E-15
   1.48920000         2.72103829E-14
   1.50119996         5.56574846E-14
   1.51320004         8.27061604E-14
   1.52520001         1.03470224E-13
   1.53719997         1.13093603E-13
   1.54920006         1.07651782E-13
   1.56120002         8.50029682E-14
   1.57319999         4.54013827E-14
   1.58519995        -8.27446920E-15
   1.59720004        -7.07438529E-14
   1.60920000        -1.34958491E-13
   1.62119997        -1.93016325E-13
   1.63320005        -2.37160931E-13
   1.64520001        -2.60669118E-13
   1.65719998        -2.58483041E-13
   1.66919994        -2.27541266E-13
   1.68120003        -1.66871616E-13
   1.69319999        -7.75915180E-14
   1.70519996         3.70158717E-14
   1.71720004         1.71234419E-13
   1.72920001         3.16461619E-13
   1.74119997         4.60728461E-13
   1.75320005         5.88488514E-13
   1.76520002         6.81037583E-13
   1.77719998         7.17878285E-13
   1.78919995         6.79172593E-13
   1.80120003         5.49153767E-13
   1.81320000         3.20062715E-13
   1.82519996        -4.09744057E-15
   1.83720005        -4.04836700E-13
   1.84920001        -8.48295880E-13
   1.86119998        -1.28678340E-12
   1.87320006        -1.66290983E-12
   1.88520002        -1.91601249E-12
   1.89719999        -1.99010470E-12
   1.90919995        -1.84223708E-12
   1.92120004        -1.45003345E-12
   1.93320000        -8.17253817E-13
   1.94519997         2.34664379E-14
   1.95720005         1.01112261E-12
   1.96920002         2.06006631E-12
   1.98119998         3.06653921E-12
   1.99319994         3.91735559E-12
   2.00519991         4.49996767E-12
   2.01719999         4.71316562E-12
   2.02920008         4.47772548E-12
   2.04119992         3.74636086E-12
   2.05320001         2.51232368E-12
   2.06520009         8.15895745E-13
   2.07719994        -1.25209196E-12
   2.08920002        -3.55063526E-12
   2.10120010        -5.89366143E-12
   2.11319995        -8.06040564E-12
   2.12520003        -9.81107383E-12
   2.13720012        -1.09071311E-11
   2.14919996        -1.11348283E-11
   2.16120005        -1.03298932E-11
   2.17319989        -8.40092492E-12
   2.18519998        -5.34888453E-12
   2.19720006        -1.28027938E-12
   2.20919991         3.58782622E-12
   2.22119999         8.93218572E-12
   2.23320007         1.43375841E-11
   2.24519992         1.93206076E-11
   2.25720000         2.33620675E-11
   2.26920009         2.59466129E-11
   2.28119993         2.66074975E-11
   2.29320002         2.49739084E-11
   2.30520010         2.08176740E-11
   2.31719995         1.40953985E-11
   2.32920003         4.98166525E-12
   2.34120011        -6.11138527E-12
   2.35319996        -1.85325019E-11
   2.36520004        -3.14112347E-11
   2.37719989        -4.37011573E-11
   2.38919997        -5.42457919E-11
   2.40120006        -6.18642360E-11
   2.41319990        -6.54504437E-11
   2.42519999        -6.40783121E-11
   2.43720007        -5.71028294E-11
   2.44919991        -4.42477201E-11
   2.46120000        -2.56704276E-11
   2.47320008        -1.99744843E-12
   2.48519993         2.56744920E-11
   2.49720001         5.58128717E-11
   2.50920010         8.65179525E-11
   2.52119994         1.15621492E-10
   2.53320003         1.40809517E-10
   2.54520011         1.59761718E-10
   2.55719995         1.70299080E-10
   2.56920004         1.70531242E-10
   2.58119988         1.58994790E-10
   2.59319997         1.34774372E-10
   2.60520005         9.75999628E-11
   2.61719990         4.79148873E-11
   2.62919998        -1.30873793E-11
   2.64120007        -8.34564085E-11
   2.65319991        -1.60502750E-10
   2.66520000        -2.40831716E-10
   2.67720008        -3.20381416E-10
   2.68919992        -3.94453775E-10
   2.70120001        -4.57729799E-10
   2.71320009        -5.04267517E-10
   2.72519994        -5.27491162E-10
   2.73720002        -5.20193555E-10
   2.74920011        -4.74588480E-10
   2.76119995        -3.82461368E-10
   2.77320004        -2.35477304E-10
   2.78520012        -2.57055714E-11
   2.79719996         2.53585486E-10
   2.80920005         6.06831529E-10
   2.82119989         1.03476916E-09
   2.83319998         1.53276780E-09
   2.84520006         2.08898610E-09
   2.85719991         2.68250200E-09
   2.86919999         3.28162164E-09
   2.88120008         3.84261956E-09
   2.89319992         4.30921077E-09
   2.90520000         4.61304284E-09
   2.91720009         4.67551420E-09
   2.92919993         4.41113279E-09
   2.94120002         3.73254760E-09
   2.95320010         2.55722021E-09
   2.96519995         8.15517709E-10
   2.97720003        -1.54026181E-09
   2.98920012        -4.52666082E-09
   3.00119996        -8.12068635E-09
   3.01320004        -1.22535679E-08
   3.02519989        -1.68082153E-08
   3.03719997        -2.16220712E-08
   3.04920006        -2.64971032E-08
   3.06119990        -3.12186437E-08
   3.07319999        -3.55845060E-08
   3.08520007        -3.94454744E-08
   3.09719992        -4.27575948E-08
   3.10920000        -4.56461287E-08
   3.12120008        -4.84800111E-08
   3.13319993        -5.19548422E-08
   3.14520001        -5.71813601E-08
   3.15720010        -6.57755024E-08
   3.16919994        -7.99451172E-08
   3.18120003        -1.02567924E-07
   3.19320011        -1.37254645E-07
   3.20519996        -1.88391070E-07
   3.21720004        -2.61153104E-07
   3.22919989        -3.61489271E-07
   3.24119997        -4.96066548E-07
   3.25320005        -6.72175133E-07
   3.26519990        -8.97592656E-07
   3.27719998        -1.18040543E-06
   3.28920007        -1.52879159E-06
   3.30119991        -1.95077018E-06
   3.31320000        -2.45392198E-06
   3.32520008        -3.04509035E-06
   3.33719993        -3.73007720E-06
   3.34920001        -4.51333881E-06
   3.36120009        -5.39769871E-06
   3.37319994        -6.38409074E-06
   3.38520002        -7.47133981E-06
   3.39720011        -8.65599941E-06
   3.40919995        -9.93224694E-06
   3.42120004        -1.12918551E-05
   3.43319988        -1.27242338E-05
   3.44519997        -1.42165491E-05
   3.45720005        -1.57539271E-05
   3.46919990        -1.73197204E-05
   3.48119998        -1.88958493E-05
   3.49320006        -2.04632033E-05
   3.50519991        -2.20020702E-05
   3.51719999        -2.34926192E-05
   3.52920008        -2.49153854E-05
   3.54119992        -2.62517606E-05
   3.55320001        -2.74844642E-05
   3.56520009        -2.85979804E-05
   3.57719994        -2.95789559E-05
   3.58920002        -3.04165387E-05
   3.60120010        -3.11026415E-05
   3.61319995        -3.16321130E-05
   3.62520003        -3.20028666E-05
   3.63720012        -3.22158776E-05
   3.64919996        -3.22751293E-05
   3.66120005        -3.21874359E-05
   3.67319989        -3.19622341E-05
   3.68519998        -3.16112855E-05
   3.69720006        -3.11483018E-05
   3.70919991        -3.05885696E-05
   3.72119999        -2.99484909E-05
   3.73320007        -2.92451350E-05
   3.74519992        -2.84957932E-05
   3.75720000        -2.77175168E-05
   3.76920009        -2.69267130E-05
   3.78119993        -2.61387431E-05
   3.79320002        -2.53675971E-05
   3.80520010        -2.46256186E-05
   3.81719995        -2.39232868E-05
   3.82920003        -2.32690782E-05
   3.84120011        -2.26693919E-05
   3.85319996        -2.21285572E-05
   3.86520004        -2.16489043E-05
   3.87719989        -2.12309023E-05
   3.88919997        -2.08733400E-05
   3.90120006        -2.05735778E-05
   3.91319990        -2.03278050E-05
   3.92519999        -2.01313469E-05
   3.93720007        -1.99789556E-05
   3.94919991        -1.98651214E-05
   3.96120000        -1.97843419E-05
   3.97320008        -1.97313857E-05
   3.98519993        -1.97015088E-05
   3.99720001        -1.96906130E-05
   4.00920010        -1.96953697E-05
   4.02120018        -1.97132686E-05
   4.03319979        -1.97426325E-05
   4.04519987        -1.97825484E-05
   4.05719995        -1.98327725E-05
   4.06920004        -1.98935850E-05
   4.08120012        -1.99656060E-05
   4.09320021        -2.00495961E-05
   4.10519981        -2.01462390E-05
   4.11719990        -2.02559422E-05
   4.12919998        -2.03786312E-05
   4.14120007        -2.05135857E-05
   4.15320015        -2.06593177E-05
   4.16520023        -2.08134734E-05
   4.17719984        -2.09728223E-05
   4.18919992        -2.11332754E-05
   4.20120001        -2.12899649E-05
   4.21320009        -2.14374068E-05
   4.22520018        -2.15696764E-05
   4.23719978        -2.16806602E-05
   4.24919987        -2.17643264E-05
   4.26119995        -2.18150144E-05
   4.27320004        -2.18277455E-05
   4.28520012        -2.17985162E-05
   4.29720020        -2.17245743E-05
   4.30919981        -2.16046465E-05
   4.32119989        -2.14391366E-05
   4.33319998        -2.12302366E-05
   4.34520006        -2.09819827E-05
   4.35720015        -2.07002158E-05
   4.36920023        -2.03924628E-05
   4.38119984        -2.00677387E-05
   4.39319992        -1.97362606E-05
   4.40520000        -1.94090862E-05
   4.41720009        -1.90977116E-05
   4.42920017        -1.88136037E-05
   4.44119978        -1.85677127E-05
   4.45319986        -1.83699995E-05
   4.46519995        -1.82289587E-05
   4.47720003        -1.81512023E-05
   4.48920012        -1.81411069E-05
   4.50120020        -1.82005533E-05
   4.51319981        -1.83287539E-05
   4.52519989        -1.85222361E-05
   4.53719997        -1.87749120E-05
   4.54920006        -1.90783030E-05
   4.56120014        -1.94218828E-05
   4.57320023        -1.97935387E-05
   4.58519983        -2.01801158E-05
   4.59719992        -2.05680517E-05
   4.60920000        -2.09440386E-05
   4.62120008        -2.12957148E-05
   4.63320017        -2.16123171E-05
   4.64519978        -2.18852983E-05
   4.65719986        -2.21088521E-05
   4.66919994        -2.22803101E-05
   4.68120003        -2.24004307E-05
   4.69320011        -2.24735104E-05
   4.70520020        -2.25073454E-05
   4.71719980        -2.25130188E-05
   4.72919989        -2.25045515E-05
   4.74119997        -2.24983814E-05
   4.75320005        -2.25127405E-05
   4.76520014        -2.25669446E-05
   4.77720022        -2.26805969E-05
   4.78919983        -2.28728004E-05
   4.80119991        -2.31613376E-05
   4.81320000        -2.35619300E-05
   4.82520008        -2.40875670E-05
   4.83720016        -2.47479111E-05
   4.84919977        -2.55488794E-05
   4.86119986        -2.64923292E-05
   4.87319994        -2.75759176E-05
   4.88520002        -2.87931307E-05
   4.89720011        -3.01334348E-05
   4.90920019        -3.15826219E-05
   4.92119980        -3.31232550E-05
   4.93319988        -3.47352216E-05
   4.94519997        -3.63963991E-05
   4.95720005        -3.80833662E-05
   4.96920013        -3.97721633E-05
   4.98120022        -4.14390488E-05
   4.99319983        -4.30612490E-05
   5.00519991        -4.46176309E-05
   5.01719999        -4.60893752E-05
   5.02920008        -4.74604822E-05
   5.04120016        -4.87182078E-05
   5.05319977        -4.98533918E-05
   5.06519985        -5.08606245E-05
   5.07719994        -5.17382905E-05
   5.08920002        -5.24884599E-05
   5.10120010        -5.31166734E-05
   5.11320019        -5.36315492E-05
   5.12519979        -5.40443034E-05
   5.13719988        -5.43681563E-05
   5.14919996        -5.46176743E-05
   5.16120005        -5.48080097E-05
   5.17320013        -5.49541764E-05
   5.18520021        -5.50702607E-05
   5.19719982        -5.51687372E-05
   5.20919991        -5.52597812E-05
   5.22119999        -5.53507380E-05
   5.23320007        -5.54456819E-05
   5.24520016        -5.55451479E-05
   5.25719976        -5.56460363E-05
   5.26919985        -5.57416788E-05
   5.28119993        -5.58221072E-05
   5.29320002        -5.58745051E-05
   5.30520010        -5.58837928E-05
   5.31720018        -5.58333704E-05
   5.32919979        -5.57059975E-05
   5.34119987        -5.54846483E-05
   5.35319996        -5.51534977E-05
   5.36520004        -5.46987794E-05
   5.37720013        -5.41096306E-05
   5.38920021        -5.33788261E-05
   5.40119982        -5.25032920E-05
   5.41319990        -5.14844978E-05
   5.42519999        -5.03286210E-05
   5.43720007        -4.90464408E-05
   5.44920015        -4.76530950E-05
   5.46120024        -4.61675481E-05
   5.47319984        -4.46119375E-05
   5.48519993        -4.30107284E-05
   5.49720001        -4.13897615E-05
   5.50920010        -3.97752519E-05
   5.52120018        -3.81927639E-05
   5.53319979        -3.66662134E-05
   5.54519987        -3.52169627E-05
   5.55719995        -3.38630271E-05
   5.56920004        -3.26184418E-05
   5.58120012        -3.14928329E-05
   5.59320021        -3.04911646E-05
   5.60519981        -2.96136932E-05
   5.61719990        -2.88561441E-05
   5.62919998        -2.82100646E-05
   5.64120007        -2.76633418E-05
   5.65320015        -2.72008601E-05
   5.66520023        -2.68052645E-05
   5.67719984        -2.64577793E-05
   5.68919992        -2.61390542E-05
   5.70120001        -2.58300061E-05
   5.71320009        -2.55125906E-05
   5.72520018        -2.51705078E-05
   5.73719978        -2.47897933E-05
   5.74919987        -2.43592713E-05
   5.76119995        -2.38708817E-05
   5.77320004        -2.33198389E-05
   5.78520012        -2.27046530E-05
   5.79720020        -2.20269958E-05
   5.80919981        -2.12914529E-05
   5.82119989        -2.05051456E-05
   5.83319998        -1.96772799E-05
   5.84520006        -1.88186095E-05
   5.85720015        -1.79408726E-05
   5.86920023        -1.70562107E-05
   5.88119984        -1.61765947E-05
   5.89319992        -1.53133042E-05
   5.90520000        -1.44764390E-05
   5.91720009        -1.36745475E-05
   5.92920017        -1.29143073E-05
   5.94119978        -1.22003457E-05
   5.95319986        -1.15351413E-05
   5.96519995        -1.09190632E-05
   5.97720003        -1.03504908E-05
   5.98920012        -9.82604797E-06
   6.00120020        -9.34091076E-06
   6.01319981        -8.88918748E-06
   6.02519989        -8.46433431E-06
   6.03719997        -8.05959826E-06
   6.04920006        -7.66845551E-06
   6.06120014        -7.28502891E-06
   6.07320023        -6.90444676E-06
   6.08519983        -6.52314702E-06
   6.09719992        -6.13908924E-06
   6.10920000        -5.75187960E-06
   6.12120008        -5.36279003E-06
   6.13320017        -4.97468363E-06
   6.14519978        -4.59184639E-06
   6.15719986        -4.21972982E-06
   6.16919994        -3.86463125E-06
   6.18120003        -3.53332689E-06
   6.19320011        -3.23267318E-06
   6.20520020        -2.96920757E-06
   6.21719980        -2.74876697E-06
   6.22919989        -2.57614420E-06
   6.24119997        -2.45480533E-06
   6.25320005        -2.38667553E-06
   6.26520014        -2.37200879E-06
   6.27720022        -2.40934241E-06
   6.28919983        -2.49553864E-06
   6.30119991        -2.62590515E-06
   6.31320000        -2.79438746E-06
   6.32520008        -2.99381759E-06
   6.33720016        -3.21620496E-06
   6.34919977        -3.45305216E-06
   6.36119986        -3.69567761E-06
   6.37319994        -3.93552909E-06
   6.38520002        -4.16447392E-06
   6.39720011        -4.37504787E-06
   6.40920019        -4.56066709E-06
   6.42119980        -4.71577914E-06
   6.43319988        -4.83596205E-06
   6.44519997        -4.91796709E-06
   6.45720005        -4.95970562E-06
   6.46920013        -4.96018583E-06
   6.48120022        -4.91940636E-06
   6.49319983        -4.83821304E-06
   6.50519991        -4.71812291E-06
   6.51719999        -4.56113048E-06
   6.52920008        -4.36949631E-06
   6.54120016        -4.14553779E-06
   6.55319977        -3.89141769E-06
   6.56519985        -3.60895365E-06
   6.57719994        -3.29944169E-06
   6.58920002        -2.96351732E-06
   6.60120010        -2.60104821E-06
   6.61320019        -2.21107575E-06
   6.62519979        -1.79180529E-06
   6.63719988        -1.34064885E-06
   6.64919996        -8.54326231E-07
   6.66120005        -3.29020310E-07
   6.67320013         2.39415385E-07
   6.68520021         8.55201392E-07
   6.69719982         1.52234054E-06
   6.70919991         2.24430119E-06
   6.72119999         3.02368517E-06
   6.73320007         3.86190777E-06
   6.74520016         4.75889374E-06
   6.75719976         5.71282271E-06
   6.76919985         6.71992620E-06
   6.78119993         7.77436799E-06
   6.79320002         8.86821090E-06
   6.80520010         9.99148415E-06
   6.81720018         1.11323498E-05
   6.82919979         1.22773781E-05
   6.84119987         1.34119200E-05
   6.85319996         1.45205586E-05
   6.86520004         1.55876332E-05
   6.87720013         1.65978054E-05
   6.88920021         1.75366549E-05
   6.90119982         1.83912471E-05
   6.91319990         1.91506879E-05
   6.92519999         1.98065900E-05
   6.93720007         2.03534582E-05
   6.94920015         2.07889625E-05
   6.96120024         2.11140705E-05
   6.97319984         2.13330368E-05
   6.98519993         2.14532538E-05
   6.99720001         2.14849460E-05
   7.00920010         2.14407464E-05
   7.02120018         2.13351341E-05
   7.03319979         2.11838124E-05
   7.04519987         2.10030103E-05
   7.05719995         2.08087440E-05
   7.06920004         2.06161221E-05
   7.08120012         2.04386506E-05
   7.09320021         2.02876581E-05
   7.10519981         2.01717849E-05
   7.11719990         2.00966315E-05
   7.12919998         2.00645391E-05
   7.14120007         2.00745199E-05
   7.15320015         2.01223593E-05
   7.16520023         2.02008541E-05
   7.17719984         2.03002037E-05
   7.18919992         2.04085081E-05
   7.20120001         2.05123506E-05
   7.21320009         2.05974684E-05
   7.22520018         2.06494369E-05
   7.23719978         2.06543482E-05
   7.24919987         2.05994747E-05
   7.26119995         2.04738535E-05
   7.27320004         2.02687988E-05
   7.28520012         1.99783044E-05
   7.29720020         1.95993125E-05
   7.30919981         1.91318759E-05
   7.32119989         1.85791650E-05
   7.33319998         1.79473718E-05
   7.34520006         1.72454638E-05
   7.35720015         1.64848589E-05
   7.36920023         1.56789865E-05
   7.38119984         1.48427944E-05
   7.39319992         1.39921940E-05
   7.40520000         1.31434808E-05
   7.41720009         1.23127438E-05
   7.42920017         1.15153025E-05
   7.44119978         1.07651640E-05
   7.45319986         1.00745374E-05
   7.46519995         9.45342526E-06
   7.47720003         8.90929732E-06
   7.48920012         8.44684746E-06
   7.50120020         8.06787193E-06
   7.51319981         7.77123569E-06
   7.52519989         7.55296423E-06
   7.53719997         7.40642645E-06
   7.54920006         7.32262151E-06
   7.56120014         7.29054864E-06
   7.57320023         7.29765588E-06
   7.58519983         7.33033312E-06
   7.59719992         7.37444952E-06
   7.60920000         7.41589565E-06
   7.62120008         7.44111594E-06
   7.63320017         7.43760666E-06
   7.64519978         7.39435609E-06
   7.65719986         7.30220654E-06
   7.66919994         7.15412261E-06
   7.68120003         6.94535447E-06
   7.69320011         6.67348468E-06
   7.70520020         6.33836498E-06
   7.71719980         5.94193807E-06
   7.72919989         5.48796697E-06
   7.74119997         4.98167401E-06
   7.75320005         4.42932333E-06
   7.76520014         3.83776660E-06
   7.77720022         3.21397238E-06
   7.78919983         2.56457884E-06
   7.80119991         1.89548643E-06
   7.81320000         1.21152095E-06
   7.82520008         5.16184571E-07
   7.83720016        -1.88487888E-07
   7.84919977        -9.01958288E-07
   7.86119986        -1.62509889E-06
   7.87319994        -2.35999505E-06
   7.88520002        -3.10964424E-06
   7.89720011        -3.87757791E-06
   7.90920019        -4.66742176E-06
   7.92119980        -5.48242815E-06
   7.93319988        -6.32500860E-06
   7.94519997        -7.19629952E-06
   7.95720005        -8.09579160E-06
   7.96920013        -9.02104875E-06
   7.98120022        -9.96755443E-06
   7.99319983        -1.09286730E-05
   8.00520039        -1.18957696E-05
   8.01720047        -1.28584688E-05
   8.02919960        -1.38050491E-05
   8.04119968        -1.47229721E-05
   8.05319977        -1.55994858E-05
   8.06519985        -1.64223165E-05
   8.07719994        -1.71803731E-05
   8.08920002        -1.78644368E-05
   8.10120010        -1.84678065E-05
   8.11320019        -1.89868333E-05
   8.12520027        -1.94213226E-05
   8.13720036        -1.97747668E-05
   8.14920044        -2.00543836E-05
   8.16119957        -2.02709434E-05
   8.17319965        -2.04384069E-05
   8.18519974        -2.05733522E-05
   8.19719982        -2.06942168E-05
   8.20919991        -2.08204292E-05
   8.22119999        -2.09714017E-05
   8.23320007        -2.11655206E-05
   8.24520016        -2.14190932E-05
   8.25720024        -2.17453999E-05
   8.26920033        -2.21538357E-05
   8.28120041        -2.26492339E-05
   8.29319954        -2.32313851E-05
   8.30519962        -2.38948196E-05
   8.31719971        -2.46288146E-05
   8.32919979        -2.54176939E-05
   8.34119987        -2.62413632E-05
   8.35319996        -2.70760902E-05
   8.36520004        -2.78954431E-05
   8.37720013        -2.86714185E-05
   8.38920021        -2.93756148E-05
   8.40120029        -2.99804597E-05
   8.41320038        -3.04603909E-05
   8.42520046        -3.07929404E-05
   8.43719959        -3.09597053E-05
   8.44919968        -3.09470743E-05
   8.46119976        -3.07468035E-05
   8.47319984        -3.03562992E-05
   8.48519993        -2.97786755E-05
   8.49720001        -2.90226035E-05
   8.50920010        -2.81019074E-05
   8.52120018        -2.70349901E-05
   8.53320026        -2.58441232E-05
   8.54520035        -2.45546180E-05
   8.55720043        -2.31939557E-05
   8.56919956        -2.17908691E-05
   8.58119965        -2.03744785E-05
   8.59319973        -1.89734747E-05
   8.60519981        -1.76153644E-05
   8.61719990        -1.63258519E-05
   8.62919998        -1.51282911E-05
   8.64120007        -1.40432676E-05
   8.65320015        -1.30882827E-05
   8.66520023        -1.22775236E-05
   8.67720032        -1.16217279E-05
   8.68920040        -1.11281051E-05
   8.70119953        -1.08003205E-05
   8.71319962        -1.06385205E-05
   8.72519970        -1.06394009E-05
   8.73719978        -1.07963151E-05
   8.74919987        -1.10994133E-05
   8.76119995        -1.15358353E-05
   8.77320004        -1.20899485E-05
   8.78520012        -1.27436551E-05
   8.79720020        -1.34767470E-05
   8.80920029        -1.42673598E-05
   8.82120037        -1.50924761E-05
   8.83320045        -1.59285137E-05
   8.84519958        -1.67519629E-05
   8.85719967        -1.75400710E-05
   8.86919975        -1.82715376E-05
   8.88119984        -1.89272232E-05
   8.89319992        -1.94907898E-05
   8.90520000        -1.99492933E-05
   8.91720009        -2.02936499E-05
   8.92920017        -2.05189845E-05
   8.94120026        -2.06248042E-05
   8.95320034        -2.06149962E-05
   8.96520042        -2.04976368E-05
   8.97719955        -2.02846131E-05
   8.98919964        -1.99910664E-05
   9.00119972        -1.96346791E-05
   9.01319981        -1.92348416E-05
   9.02519989        -1.88117410E-05
   9.03719997        -1.83854008E-05
   9.04920006        -1.79747531E-05
   9.06120014        -1.75967743E-05
   9.07320023        -1.72657310E-05
   9.08520031        -1.69925861E-05