 -0.622799993         1.00000002E-24
 -0.610800028         1.00000002E-24
 -0.598800004         1.00000002E-24
 -0.586799979         6.71451435E-16
 -0.574800014         3.97767053E-15
 -0.562799990         1.25374895E-14
 -0.550800025         2.70703260E-14
 -0.538800001         4.27102066E-14
 -0.526799977         4.65086377E-14
 -0.514800012         1.89517828E-14
 -0.502799988        -5.89442232E-14
 -0.490799993        -1.94252668E-13
 -0.478799999        -3.71026614E-13
 -0.466800004        -5.45940463E-13
 -0.454800010        -6.56295710E-13
 -0.442799985        -6.42024791E-13
 -0.430799991        -4.77440461E-13
 -0.418799996        -2.03056701E-13
 -0.406800002         5.45634874E-14
 -0.394800007         8.47569085E-14
 -0.382800013        -3.80142640E-13
 -0.370799989        -1.61766911E-12
 -0.358799994        -3.86031224E-12
 -0.346799999        -7.24813178E-12
 -0.334800005        -1.18022345E-11
 -0.322800010        -1.74268620E-11
 -0.310799986        -2.39418641E-11
 -0.298799992        -3.11438202E-11
 -0.286799997        -3.88942455E-11
 -0.274800003        -4.72349139E-11
 -0.262800008        -5.65291911E-11
 -0.250800014        -6.76201733E-11
 -0.238800004        -8.19807347E-11
 -0.226799995        -1.01811996E-10
 -0.214800000        -1.30035677E-10
 -0.202800006        -1.70133324E-10
 -0.190799996        -2.25818947E-10
 -0.178800002        -3.00588221E-10
 -0.166800007        -3.97249206E-10
 -0.154799998        -5.17584142E-10
 -0.142800003        -6.62290167E-10
 -0.130799994        -8.31286928E-10
 -0.118799999        -1.02436626E-09
 -0.106799997        -1.24202415E-09
  -9.48000029E-02    -1.48620982E-09
  -8.28000009E-02    -1.76068748E-09
  -7.07999989E-02    -2.07077755E-09
  -5.88000007E-02    -2.42239451E-09
  -4.67999987E-02    -2.82051582E-09
  -3.48000005E-02    -3.26739591E-09
  -2.28000004E-02    -3.76094444E-09
  -1.08000003E-02    -4.29366454E-09
   1.20000006E-03    -4.85239626E-09
   1.31999999E-02    -5.41891865E-09
   2.52000000E-02    -5.97125061E-09
   3.72000001E-02    -6.48541265E-09
   4.91999984E-02    -6.93740887E-09
   6.12000003E-02    -7.30532213E-09
   7.32000023E-02    -7.57154606E-09
   8.51999968E-02    -7.72524178E-09
   9.71999988E-02    -7.76504550E-09
  0.109200001        -7.70180719E-09
  0.121200003        -7.56085416E-09
  0.133200005        -7.38294448E-09
  0.145199999        -7.22298443E-09
  0.157199994        -7.14565740E-09
  0.169200003        -7.21749904E-09
  0.181199998        -7.49552065E-09
  0.193200007        -8.01307465E-09
  0.205200002        -8.76424799E-09
  0.217199996        -9.68842784E-09
  0.229200006        -1.06569420E-08
  0.241200000        -1.14637855E-08
  0.253199995        -1.18224497E-08
  0.265199989        -1.13709966E-08
  0.277200013        -9.68743130E-09
  0.289200008        -6.31732977E-09
  0.301200002        -8.15162382E-10
  0.313199997         7.20026305E-09
  0.325199991         1.79772979E-08
  0.337199986         3.15531921E-08
  0.349200010         4.76715449E-08
  0.361200005         6.57036026E-08
  0.373199999         8.45832346E-08
  0.385199994         1.02766933E-07
  0.397199988         1.18230034E-07
  0.409200013         1.28509328E-07
  0.421200007         1.30799819E-07
  0.433200002         1.22109242E-07
  0.445199996         9.94690836E-08
  0.457199991         6.01945160E-08
  0.469199985         2.17931495E-09
  0.481200010        -7.57955476E-08
  0.493200004        -1.73766608E-07
  0.505200028        -2.90338761E-07
  0.517199993        -4.22517729E-07
  0.529200017        -5.65660400E-07
  0.541199982        -7.13576867E-07
  0.553200006        -8.58811291E-07
  0.565199971        -9.93120238E-07
  0.577199996        -1.10815290E-06
  0.589200020        -1.19632432E-06
  0.601199985        -1.25185215E-06
  0.613200009        -1.27191402E-06
  0.625199974        -1.25786107E-06
  0.637199998        -1.21641324E-06
  0.649200022        -1.16074625E-06
  0.661199987        -1.11137786E-06
  0.673200011        -1.09676137E-06
  0.685199976        -1.15349985E-06
  0.697200000        -1.32611171E-06
  0.709200025        -1.66630093E-06
  0.721199989        -2.23170719E-06
  0.733200014        -3.08414974E-06
  0.745199978        -4.28740896E-06
  0.757200003        -5.90462651E-06
  0.769200027        -7.99543250E-06
  0.781199992        -1.06129501E-05
  0.793200016        -1.38008363E-05
  0.805199981        -1.75905352E-05
  0.817200005        -2.19989433E-05
  0.829200029        -2.70266428E-05
  0.841199994        -3.26568661E-05
  0.853200018        -3.88553381E-05
  0.865199983        -4.55710506E-05
  0.877200007        -5.27380507E-05
  0.889199972        -6.02781474E-05
  0.901199996        -6.81045422E-05
  0.913200021        -7.61262199E-05
  0.925199986        -8.42528316E-05
  0.937200010        -9.23999978E-05
  0.949199975        -1.00494603E-04
  0.961199999        -1.08479784E-04
  0.973200023        -1.16319497E-04
  0.985199988        -1.24002137E-04
  0.997200012        -1.31543085E-04
   1.00919998        -1.38985910E-04
   1.02119994        -1.46402148E-04
   1.03320003        -1.53889414E-04
   1.04519999        -1.61568052E-04
   1.05719995        -1.69576248E-04
   1.06920004        -1.78063710E-04
   1.08120000        -1.87184472E-04
   1.09319997        -1.97088681E-04
   1.10520005        -2.07914039E-04
   1.11720002        -2.19777183E-04
   1.12919998        -2.32765422E-04
   1.14119995        -2.46929005E-04
   1.15320003        -2.62274727E-04
   1.16520000        -2.78760854E-04
   1.17719996        -2.96293321E-04
   1.18920004        -3.14724370E-04
   1.20120001        -3.33852367E-04
   1.21319997        -3.53424024E-04
   1.22520006        -3.73138289E-04
   1.23720002        -3.92651593E-04
   1.24919999        -4.11584915E-04
   1.26119995        -4.29531909E-04
   1.27320004        -4.46067861E-04
   1.28520000        -4.60759271E-04
   1.29719996        -4.73173684E-04
   1.30920005        -4.82889765E-04
   1.32120001        -4.89506638E-04
   1.33319998        -4.92653169E-04
   1.34519994        -4.91996470E-04
   1.35720003        -4.87249490E-04
   1.36919999        -4.78177477E-04
   1.38119996        -4.64603741E-04
   1.39320004        -4.46414284E-04
   1.40520000        -4.23560909E-04
   1.41719997        -3.96063610E-04
   1.42920005        -3.64011532E-04
   1.44120002        -3.27563030E-04
   1.45319998        -2.86944211E-04
   1.46519995        -2.42446637E-04
   1.47720003        -1.94423978E-04
   1.48920000        -1.43287238E-04
   1.50119996        -8.94992481E-05
   1.51320004        -3.35681798E-05
   1.52520001         2.39599140E-05
   1.53719997         8.25091920E-05
   1.54920006         1.41482771E-04
   1.56120002         2.00271927E-04
   1.57319999         2.58265383E-04
   1.58519995         3.14858888E-04
   1.59720004         3.69464571E-04
   1.60920000         4.21519857E-04
   1.62119997         4.70496016E-04
   1.63320005         5.15906140E-04
   1.64520001         5.57312276E-04
   1.65719998         5.94331417E-04
   1.66919994         6.26640860E-04
   1.68120003         6.53982512E-04
   1.69319999         6.76165626E-04
   1.70519996         6.93069363E-04
   1.71720004         7.04643258E-04
   1.72920001         7.10907043E-04
   1.74119997         7.11949891E-04
   1.75320005         7.07927684E-04
   1.76520002         6.99059980E-04
   1.77719998         6.85625826E-04
   1.78919995         6.67958520E-04
   1.80120003         6.46439556E-04
   1.81320000         6.21491810E-04
   1.82519996         5.93571924E-04
   1.83720005         5.63161913E-04
   1.84920001         5.30760852E-04
   1.86119998         4.96875204E-04
   1.87320006         4.62010095E-04
   1.88520002         4.26659914E-04
   1.89719999         3.91299545E-04
   1.90919995         3.56376055E-04
   1.92120004         3.22300970E-04
   1.93320000         2.89443764E-04
   1.94519997         2.58126413E-04
   1.95720005         2.28619043E-04
   1.96920002         2.01137140E-04
   1.98119998         1.75840076E-04
   1.99319994         1.52831111E-04
   2.00519991         1.32158777E-04
   2.01719999         1.13819580E-04
   2.02920008         9.77618038E-05
   2.04119992         8.38903870E-05
   2.05320001         7.20726312E-05
   2.06520009         6.21445506E-05
   2.07719994         5.39175999E-05
   2.08920002         4.71857384E-05
   2.10120010         4.17324482E-05
   2.11319995         3.73376570E-05
   2.12520003         3.37843921E-05
   2.13720012         3.08648960E-05
   2.14919996         2.83862119E-05
   2.16120005         2.61750447E-05
   2.17319989         2.40817571E-05
   2.18519998         2.19834910E-05
   2.19720006         1.97862610E-05
   2.20919991         1.74260022E-05
   2.22119999         1.48685522E-05
   2.23320007         1.21085404E-05
   2.24519992         9.16724730E-06
   2.25720000         6.08948585E-06
   2.26920009         2.93963058E-06
   2.28119993        -2.03070996E-07
   2.29320002        -3.24970983E-06
   2.30520010        -6.10722236E-06
   2.31719995        -8.68397456E-06
   2.32920003        -1.08951490E-05
   2.34120011        -1.26676887E-05
   2.35319996        -1.39445774E-05
   2.36520004        -1.46882412E-05
   2.37719989        -1.48829158E-05
   2.38919997        -1.45358899E-05
   2.40120006        -1.36775789E-05
   2.41319990        -1.23604559E-05
   2.42519999        -1.06569323E-05
   2.43720007        -8.65631773E-06
   2.44919991        -6.46105491E-06
   2.46120000        -4.18242644E-06
   2.47320008        -1.93598021E-06
   2.48519993         1.63121086E-07
   2.49720001         2.00459613E-06
   2.50920010         3.48720869E-06
   2.52119994         4.52244649E-06
   2.53320003         5.03760111E-06
   2.54520011         4.97819974E-06
   2.55719995         4.30973159E-06
   2.56920004         3.01871592E-06
   2.58119988         1.11311658E-06
   2.59319997        -1.37782638E-06
   2.60520005        -4.40428903E-06
   2.61719990        -7.89704063E-06
   2.62919998        -1.17690479E-05
   2.64120007        -1.59174870E-05
   2.65319991        -2.02261472E-05
   2.66520000        -2.45682204E-05
   2.67720008        -2.88094743E-05
   2.68919992        -3.28117967E-05
   2.70120001        -3.64370862E-05
   2.71320009        -3.95514144E-05
   2.72519994        -4.20293873E-05
   2.73720002        -4.37585550E-05
   2.74920011        -4.46437552E-05
   2.76119995        -4.46111408E-05
   2.77320004        -4.36117116E-05
   2.78520012        -4.16241674E-05
   2.79719996        -3.86568208E-05
   2.80920005        -3.47484493E-05
   2.82119989        -2.99679141E-05
   2.83319998        -2.44125222E-05
   2.84520006        -1.82051117E-05
   2.85719991        -1.14899285E-05
   2.86919999        -4.42751343E-06
   2.88120008         2.81119947E-06
   2.89319992         1.00512552E-05
   2.90520000         1.71201773E-05
   2.91720009         2.38542325E-05
   2.92919993         3.01041382E-05
   2.94120002         3.57398494E-05
   2.95320010         4.06542640E-05
   2.96519995         4.47656203E-05
   2.97720003         4.80185336E-05
   2.98920012         5.03837437E-05
   3.00119996         5.18566121E-05
   3.01320004         5.24546886E-05
   3.02519989         5.22145419E-05
   3.03719997         5.11881371E-05
   3.04920006         4.94391570E-05
   3.06119990         4.70395134E-05
   3.07319999         4.40662989E-05
   3.08520007         4.05994142E-05
   3.09719992         3.67199282E-05
   3.10920000         3.25092260E-05
   3.12120008         2.80488439E-05
   3.13319993         2.34208874E-05
   3.14520001         1.87087844E-05
   3.15720010         1.39981339E-05
   3.16919994         9.37743334E-06
   3.18120003         4.93838206E-06
   3.19320011         7.75621743E-07
   3.20519996        -3.01426417E-06
   3.21720004        -6.33452009E-06
   3.22919989        -9.09074879E-06
   3.24119997        -1.11940926E-05
   3.25320005        -1.25648767E-05
   3.26519990        -1.31364814E-05
   3.27719998        -1.28591473E-05
   3.28920007        -1.17034515E-05
   3.30119991        -9.66313746E-06
   3.31320000        -6.75706906E-06
   3.32520008        -3.03013394E-06
   3.33719993         1.44704143E-06
   3.34920001         6.57957389E-06
   3.36120009         1.22509518E-05
   3.37319994         1.83266820E-05
   3.38520002         2.46587224E-05
   3.39720011         3.10904979E-05
   3.40919995         3.74621668E-05
   3.42120004         4.36159062E-05
   3.43319988         4.94009073E-05
   3.44519997         5.46779156E-05
   3.45720005         5.93230870E-05
   3.46919990         6.32310766E-05
   3.48119998         6.63172978E-05
   3.49320006         6.85193299E-05
   3.50519991         6.97975702E-05
   3.51719999         7.01352110E-05
   3.52920008         6.95376148E-05
   3.54119992         6.80312369E-05
   3.55320001         6.56623015E-05
   3.56520009         6.24952008E-05
   3.57719994         5.86107817E-05
   3.58920002         5.41045629E-05
   3.60120010         4.90848688E-05
   3.61319995         4.36708833E-05
   3.62520003         3.79905468E-05
   3.63720012         3.21783446E-05
   3.64919996         2.63727925E-05
   3.66120005         2.07137309E-05
   3.67319989         1.53393539E-05
   3.68519998         1.03830062E-05
   3.69720006         5.96984091E-06
   3.70919991         2.21341293E-06
   3.72119999        -7.87641056E-07
   3.73320007        -2.95271161E-06
   3.74519992        -4.22192124E-06
   3.75720000        -4.55830377E-06
   3.76920009        -3.94928520E-06
   3.78119993        -2.40737268E-06
   3.79320002         3.00317069E-08
   3.80520010         3.30172202E-06
   3.81719995         7.32464605E-06
   3.82920003         1.19966780E-05
   3.84120011         1.72000528E-05
   3.85319996         2.28053304E-05
   3.86520004         2.86756422E-05
   3.87719989         3.46710731E-05
   3.88919997         4.06529143E-05
   3.90120006         4.64876211E-05
   3.91319990         5.20502945E-05
   3.92519999         5.72275785E-05
   3.93720007         6.19198545E-05
   3.94919991         6.60427104E-05
   3.96120000         6.95277267E-05
   3.97320008         7.23225821E-05
   3.98519993         7.43906276E-05
   3.99720001         7.57100133E-05
   4.00920010         7.62724885E-05
   4.02120018         7.60821276E-05
   4.03319979         7.51539337E-05
   4.04519987         7.35125868E-05
   4.05719995         7.11913817E-05
   4.06920004         6.82314057E-05
   4.08120012         6.46809494E-05
   4.09320021         6.05952046E-05
   4.10519981         5.60360932E-05
   4.11719990         5.10722784E-05
   4.12919998         4.57790811E-05
   4.14120007         4.02383812E-05
   4.15320015         3.45382396E-05
   4.16520023         2.87722141E-05
   4.17719984         2.30382884E-05
   4.18919992         1.74373636E-05
   4.20120001         1.20713075E-05
   4.21320009         7.04062268E-06
   4.22520018         2.44179023E-06
   4.23719978        -1.63559469E-06
   4.24919987        -5.11173357E-06
   4.26119995        -7.91943421E-06
   4.27320004        -1.00066518E-05
   4.28520012        -1.13385940E-05
   4.29720020        -1.18992411E-05
   4.30919981        -1.16921774E-05
   4.32119989        -1.07406477E-05
   4.33319998        -9.08680977E-06
   4.34520006        -6.79020604E-06
   4.35720015        -3.92553602E-06
   4.36920023        -5.79824018E-07
   4.38119984         3.15084003E-06
   4.39319992         7.16481691E-06
   4.40520000         1.13584938E-05
   4.41720009         1.56297265E-05
   4.42920017         1.98809830E-05
   4.44119978         2.40219979E-05
   4.45319986         2.79719043E-05
   4.46519995         3.16606820E-05
   4.47720003         3.50299924E-05
   4.48920012         3.80333659E-05
   4.50120020         4.06358522E-05
   4.51319981         4.28132262E-05
   4.52519989         4.45508922E-05
   4.53719997         4.58426221E-05
   4.54920006         4.66892961E-05
   4.56120014         4.70977247E-05
   4.57320023         4.70797058E-05
   4.58519983         4.66513484E-05
   4.59719992         4.58327413E-05
   4.60920000         4.46478443E-05
   4.62120008         4.31247208E-05
   4.63320017         4.12958798E-05
   4.64519978         3.91987051E-05
   4.65719986         3.68758629E-05
   4.66919994         3.43755601E-05
   4.68120003         3.17515114E-05
   4.69320011         2.90626176E-05
   4.70520020         2.63722268E-05
   4.71719980         2.37469812E-05
   4.72919989         2.12552659E-05
   4.74119997         1.89653201E-05
   4.75320005         1.69430623E-05
   4.76520014         1.52497760E-05
   4.77720022         1.39397744E-05
   4.78919983         1.30581584E-05
   4.80119991         1.26388359E-05
   4.81320000         1.27028761E-05
   4.82520008         1.32573432E-05
   4.83720016         1.42946374E-05
   4.84919977         1.57924005E-05
   4.86119986         1.77139755E-05
   4.87319994         2.00093982E-05
   4.88520002         2.26168631E-05
   4.89720011         2.54645674E-05
   4.90920019         2.84728667E-05
   4.92119980         3.15565885E-05
   4.93319988         3.46274610E-05
   4.94519997         3.75964955E-05
   4.95720005         4.03763079E-05
   4.96920013         4.28831954E-05
   4.98120022         4.50390799E-05
   4.99319983         4.67730861E-05
   5.00519991         4.80229392E-05
   5.01719999         4.87360521E-05
   5.02920008         4.88703772E-05
   5.04120016         4.83950898E-05
   5.05319977         4.72910942E-05
   5.06519985         4.55514419E-05
   5.07719994         4.31816406E-05
   5.08920002         4.01999459E-05
   5.10120010         3.66375898E-05
   5.11320019         3.25389301E-05
   5.12519979         2.79614796E-05
   5.13719988         2.29757825E-05
   5.14919996         1.76650537E-05
   5.16120005         1.21244875E-05
   5.17320013         6.46019544E-06
   5.18520021         7.87688123E-07
   5.19719982        -4.77011963E-06
   5.20919991        -1.00854304E-05
   5.22119999        -1.50285623E-05
   5.23320007        -1.94714157E-05
   5.24520016        -2.32912917E-05
   5.25719976        -2.63749844E-05
   5.26919985        -2.86229333E-05
   5.28119993        -2.99533131E-05
   5.29320002        -3.03058132E-05
   5.30520010        -2.96449180E-05
   5.31720018        -2.79624692E-05
   5.32919979        -2.52793125E-05
   5.34119987        -2.16459066E-05
   5.35319996        -1.71417687E-05
   5.36520004        -1.18737107E-05
   5.37720013        -5.97293092E-06
   5.38920021         4.08999455E-07
   5.40119982         7.10505947E-06
   5.41319990         1.39384019E-05
   5.42519999         2.07284174E-05
   5.43720007         2.72969664E-05
   5.44920015         3.34744436E-05
   5.46120024         3.91054200E-05
   5.47319984         4.40535878E-05
   5.48519993         4.82057476E-05
   5.49720001         5.14747444E-05
   5.50920010         5.38011445E-05
   5.52120018         5.51537778E-05
   5.53319979         5.55290499E-05
   5.54519987         5.49492324E-05
   5.55719995         5.34599021E-05
   5.56920004         5.11267062E-05
   5.58120012         4.80317685E-05
   5.59320021         4.42698802E-05
   5.60519981         3.99448727E-05
   5.61719990         3.51661984E-05
   5.62919998         3.00459687E-05
   5.64120007         2.46965301E-05
   5.65320015         1.92286097E-05
   5.66520023         1.37499910E-05
   5.67719984         8.36465733E-06
   5.68919992         3.17230160E-06
   5.70120001        -1.73195144E-06
   5.71320009        -6.25776602E-06
   5.72520018        -1.03198772E-05
   5.73719978        -1.38385658E-05
   5.74919987        -1.67404160E-05
   5.76119995        -1.89593757E-05
   5.77320004        -2.04381449E-05
   5.78520012        -2.11297938E-05
   5.79720020        -2.09995524E-05
   5.80919981        -2.00266259E-05
   5.82119989        -1.82058757E-05
   5.83319998        -1.55492344E-05
   5.84520006        -1.20866880E-05
   5.85720015        -7.86669443E-06
   5.86920023        -2.95597306E-06
   5.88119984         2.56142448E-06
   5.89319992         8.58571548E-06
   5.90520000         1.50036503E-05
   5.91720009         2.16913213E-05
   5.92920017         2.85174028E-05
   5.94119978         3.53466421E-05
   5.95319986         4.20434662E-05
   5.96519995         4.84754964E-05
   5.97720003         5.45168805E-05
   5.98920012         6.00512249E-05
   6.00120020         6.49741487E-05
   6.01319981         6.91953028E-05
   6.02519989         7.26398866E-05
   6.03719997         7.52496489E-05
   6.04920006         7.69834223E-05
   6.06120014         7.78172835E-05
   6.07320023         7.77442910E-05
   6.08519983         7.67740130E-05
   6.09719992         7.49318133E-05
   6.10920000         7.22579862E-05
   6.12120008         6.88067812E-05
   6.13320017         6.46453263E-05
   6.14519978         5.98524239E-05
   6.15719986         5.45172843E-05
   6.16919994         4.87380785E-05
   6.18120003         4.26203187E-05
   6.19320011         3.62750652E-05
   6.20520020         2.98168870E-05
   6.21719980         2.33616429E-05
   6.22919989         1.70240419E-05
   6.24119997         1.09151169E-05
   6.25320005         5.13963687E-06
   6.26520014        -2.06421049E-07
   6.27720022        -5.03821593E-06
   6.28919983        -9.28409918E-06
   6.30119991        -1.28872780E-05
   6.31320000        -1.58069761E-05
   6.32520008        -1.80190564E-05
   6.33720016        -1.95160428E-05
   6.34919977        -2.03065683E-05
   6.36119986        -2.04142652E-05
   6.37319994        -1.98761809E-05
   6.38520002        -1.87408077E-05
   6.39720011        -1.70658241E-05
   6.40920019        -1.49157313E-05
   6.42119980        -1.23594518E-05
   6.43319988        -9.46808177E-06
   6.44519997        -6.31288003E-06
   6.45720005        -2.96359462E-06
   6.46920013         5.12816257E-07
   6.48120022         4.05303717E-06
   6.49319983         7.59785735E-06
   6.50519991         1.10922720E-05
   6.51719999         1.44853148E-05
   6.52920008         1.77297243E-05
   6.54120016         2.07815210E-05
   6.55319977         2.35996449E-05
   6.56519985         2.61456989E-05
   6.57719994         2.83838926E-05
   6.58920002         3.02812296E-05
   6.60120010         3.18079474E-05
   6.61320019         3.29382165E-05
   6.62519979         3.36510457E-05
   6.63719988         3.39313519E-05
   6.64919996         3.37710990E-05
   6.66120005         3.31704214E-05
   6.67320013         3.21386397E-05
   6.68520021         3.06950315E-05
   6.69719982         2.88693227E-05
   6.70919991         2.67017658E-05
   6.72119999         2.42427705E-05
   6.73320007         2.15520813E-05
   6.74520016         1.86974739E-05
   6.75719976         1.57530176E-05
   6.76919985         1.27969533E-05
   6.78119993         9.90928129E-06
   6.79320002         7.16914974E-06
   6.80520010         4.65215680E-06
   6.81720018         2.42770557E-06
   6.82919979         5.56526686E-07
   6.84119987        -9.11495249E-07
   6.85319996        -1.93908318E-06
   6.86520004        -2.50282369E-06
   6.87720013        -2.59383819E-06
   6.88920021        -2.21784649E-06
   6.90119982        -1.39461611E-06
   6.91319990        -1.56832826E-07
   6.92519999         1.45152899E-06
   6.93720007         3.37723418E-06
   6.94920015         5.56009172E-06
   6.96120024         7.93540039E-06
   6.97319984         1.04363971E-05
   6.98519993         1.29965711E-05
   6.99720001         1.55517300E-05
   7.00920010         1.80417301E-05
   7.02120018         2.04117841E-05
   7.03319979         2.26133343E-05
   7.04519987         2.46044838E-05
   7.05719995         2.63500278E-05
   7.06920004         2.78211428E-05
   7.08120012         2.89948566E-05
   7.09320021         2.98533832E-05
   7.10519981         3.03834731E-05
   7.11719990         3.05758658E-05
   7.12919998         3.04249515E-05
   7.14120007         2.99287094E-05
   7.15320015         2.90889220E-05
   7.16520023         2.79116884E-05
   7.17719984         2.64081373E-05
   7.18919992         2.45952724E-05
   7.20120001         2.24968371E-05
   7.21320009         2.01440762E-05
   7.22520018         1.75762398E-05
   7.23719978         1.48407535E-05
   7.24919987         1.19929528E-05
   7.26119995         9.09529717E-06
   7.27320004         6.21608524E-06
   7.28520012         3.42766248E-06
   7.29720020         8.04202386E-07
   7.30919981        -1.58084561E-06
   7.32119989        -3.65750475E-06
   7.33319998        -5.36205334E-06
   7.34520006        -6.63967103E-06
   7.35720015        -7.44679028E-06
   7.36920023        -7.75299304E-06
   7.38119984        -7.54233224E-06
   7.39319992        -6.81400206E-06
   7.40520000        -5.58231386E-06
   7.41720009        -3.87599948E-06
   7.42920017        -1.73689057E-06
   7.44119978         7.81915105E-07
   7.45319986         3.61828779E-06
   7.46519995         6.70354029E-06
   7.47720003         9.96500603E-06
   7.48920012         1.33285739E-05
   7.50120020         1.67210474E-05
   7.51319981         2.00722516E-05
   7.52519989         2.33167721E-05
   7.53719997         2.63953370E-05
   7.54920006         2.92557907E-05
   7.56120014         3.18537059E-05
   7.57320023         3.41526465E-05
   7.58519983         3.61241546E-05
   7.59719992         3.77475408E-05
   7.60920000         3.90095047E-05
   7.62120008         3.99036871E-05
   7.63320017         4.04301936E-05
   7.64519978         4.05951323E-05
   7.65719986         4.04101520E-05
   7.66919994         3.98920602E-05
   7.68120003         3.90624264E-05
   7.69320011         3.79471967E-05
   7.70520020         3.65763044E-05
   7.71719980         3.49831935E-05
   7.72919989         3.32043128E-05
   7.74119997         3.12784941E-05
   7.75320005         2.92462373E-05
   7.76520014         2.71489698E-05
   7.77720022         2.50282046E-05
   7.78919983         2.29246834E-05
   7.80119991         2.08775618E-05
   7.81320000         1.89235834E-05
   7.82520008         1.70963867E-05
   7.83720016         1.54258632E-05
   7.84919977         1.39376734E-05
   7.86119986         1.26528676E-05
   7.87319994         1.15876719E-05
   7.88520002         1.07533933E-05
   7.89720011         1.01564565E-05
   7.90920019         9.79855577E-06
   7.92119980         9.67690994E-06
   7.93319988         9.78459229E-06
   7.94519997         1.01109226E-05
   7.95720005         1.06419029E-05
   7.96920013         1.13606784E-05
   7.98120022         1.22480069E-05
   7.99319983         1.32827317E-05
   8.00520039         1.44422438E-05
   8.01720047         1.57029208E-05
   8.02919960         1.70405547E-05
   8.04119968         1.84307337E-05
   8.05319977         1.98492180E-05
   8.06519985         2.12722571E-05
   8.07719994         2.26768916E-05
   8.08920002         2.40412010E-05
   8.10120010         2.53445287E-05
   8.11320019         2.65676626E-05
   8.12520027         2.76929841E-05
   8.13720036         2.87045896E-05
   8.14920044         2.95884074E-05
   8.16119957         3.03322886E-05
   8.17319965         3.09261304E-05
   8.18519974         3.13620076E-05
   8.19719982         3.16343430E-05
   8.20919991         3.17400882E-05
   8.22119999         3.16789847E-05
   8.23320007         3.14537720E-05
   8.24520016         3.10704490E-05
   8.25720024         3.05384310E-05
   8.26920033         2.98706454E-05
   8.28120041         2.90835051E-05
   8.29319954         2.81967114E-05
   8.30519962         2.72328780E-05
   8.31719971         2.62169669E-05
   8.32919979         2.51755228E-05
   8.34119987         2.41357520E-05
   8.35319996         2.31244703E-05
   8.36520004         2.21669634E-05
   8.37720013         2.12858286E-05
   8.38920021         2.04998723E-05
   8.40120029         1.98231319E-05
   8.41320038         1.92640837E-05
   8.42520046         1.88251361E-05
   8.43719959         1.85024219E-05
   8.44919968         1.82859567E-05
   8.46119976         1.81601608E-05
   8.47319984         1.81047526E-05
   8.48519993         1.80959469E-05
   8.49720001         1.81078922E-05
   8.50920010         1.81143041E-05
   8.52120018         1.80901097E-05
   8.53320026         1.80130792E-05
   8.54520035         1.78652681E-05
   8.55720043         1.76342182E-05
   8.56919956         1.73138087E-05
   8.58119965         1.69047307E-05
   8.59319973         1.64145131E-05
   8.60519981         1.58571529E-05
   8.61719990         1.52523189E-05
   8.62919998         1.46242319E-05
   8.64120007         1.40002448E-05
   8.65320015         1.34092497E-05
   8.66520023         1.28800011E-05
   8.67720032         1.24394455E-05
   8.68920040         1.21112062E-05
   8.70119953         1.19142678E-05
   8.71319962         1.18619910E-05
   8.72519970         1.19614951E-05
   8.73719978         1.22134452E-05
   8.74919987         1.26122550E-05
   8.76119995         1.31466650E-05
   8.77320004         1.38006635E-05
   8.78520012         1.45546537E-05
   8.79720020         1.53867841E-05
   8.80920029         1.62743472E-05
   8.82120037         1.71951397E-05
   8.83320045         1.81286960E-05
   8.84519958         1.90573264E-05
   8.85719967         1.99668721E-05
   8.86919975         2.08471774E-05
   8.88119984         2.16922090E-05
   8.89319992         2.24998621E-05
   8.90520000         2.32714428E-05
   8.91720009         2.40108784E-05
   8.92920017         2.47237222E-05
   8.94120026         2.54159859E-05
   8.95320034         2.60929592E-05
   8.96520042         2.67580126E-05
   8.97719955         2.74115318E-05
   8.98919964         2.80500717E-05
   9.00119972         2.86657378E-05
   9.01319981         2.92459154E-05
   9.02519989         2.97733295E-05
   9.03719997         3.02264361E-05
   9.04920006         3.05801841E-05
   9.06120014         3.08070375E-05
   9.07320023         3.08782655E-05
   9.08520031         3.07653972E-05