 -0.622799993         9.99999921E-25
 -0.610800028         9.99999921E-25
 -0.598800004         9.99999921E-25
 -0.586799979         9.99999921E-25
 -0.574800014         9.99999921E-25
 -0.562799990         1.02764437E-24
 -0.550800025         1.22239904E-24
 -0.538800001         2.09625803E-24
 -0.526799977         5.91121639E-24
 -0.514800012         2.23873424E-23
 -0.502799988         8.47804024E-23
 -0.490799993         2.81487381E-22
 -0.478799999         7.97376261E-22
 -0.466800004         1.93600411E-21
 -0.454800010         4.07072947E-21
 -0.442799985         7.47914496E-21
 -0.430799991         1.20853503E-20
 -0.418799996         1.72723826E-20
 -0.406800002         2.20663498E-20
 -0.394800007         2.59892248E-20
 -0.382800013         3.05675871E-20
 -0.370799989         4.08367275E-20
 -0.358799994         6.54509826E-20
 -0.346799999         1.13797188E-19
 -0.334800005         1.89527293E-19
 -0.322800010         2.82498025E-19
 -0.310799986         3.64512491E-19
 -0.298799992         3.96426490E-19
 -0.286799997         3.52205983E-19
 -0.274800003         2.57286258E-19
 -0.262800008         2.25079386E-19
 -0.250800014         4.62521245E-19
 -0.238800004         1.21322787E-18
 -0.226799995         2.62534264E-18
 -0.214800000         4.57358583E-18
 -0.202800006         6.51998276E-18
 -0.190799996         7.53697692E-18
 -0.178800002         6.60249485E-18
 -0.166800007         3.18070115E-18
 -0.154799998        -2.06968944E-18
 -0.142800003        -6.80746566E-18
 -0.130799994        -7.19062895E-18
 -0.118799999         9.28765526E-19
 -0.106799997         1.98313938E-17
  -9.48000029E-02     4.74059426E-17
  -8.28000009E-02     7.54870402E-17
  -7.07999989E-02     9.05120349E-17
  -5.88000007E-02     7.75169216E-17
  -4.67999987E-02     2.72467884E-17
  -3.48000005E-02    -5.56504154E-17
  -2.28000004E-02    -1.47061040E-16
  -1.08000003E-02    -2.04785250E-16
   1.20000006E-03    -1.79819801E-16
   1.31999999E-02    -3.69559515E-17
   2.52000000E-02     2.20872655E-16
   3.72000001E-02     5.34603998E-16
   4.91999984E-02     7.89179856E-16
   6.12000003E-02     8.40190562E-16
   7.32000023E-02     5.66533381E-16
   8.51999968E-02    -6.38903055E-17
   9.71999988E-02    -9.39996084E-16
  0.109200001        -1.79428704E-15
  0.121200003        -2.25328467E-15
  0.133200005        -1.95469116E-15
  0.145199999        -7.05953310E-16
  0.157199994         1.36864124E-15
  0.169200003         3.75932873E-15
  0.181199998         5.63761243E-15
  0.193200007         6.07742624E-15
  0.205200002         4.39148467E-15
  0.217199996         4.83377139E-16
  0.229200006        -4.92134655E-15
  0.241200000        -1.02941168E-14
  0.253199995        -1.36389609E-14
  0.265199989        -1.31051777E-14
  0.277200013        -7.71849032E-15
  0.289200008         2.01507804E-15
  0.301200002         1.38919231E-14
  0.313199997         2.43568627E-14
  0.325199991         2.94210253E-14
  0.337199986         2.59524187E-14
  0.349200010         1.29627203E-14
  0.361200005        -7.56153596E-15
  0.373199999        -3.06630670E-14
  0.385199994        -4.94146519E-14
  0.397199988        -5.67684564E-14
  0.409200013        -4.77995498E-14
  0.421200007        -2.16904792E-14
  0.433200002         1.72083146E-14
  0.445199996         5.97124821E-14
  0.457199991         9.36429482E-14
  0.469199985         1.06856886E-13
  0.481200010         9.07869700E-14
  0.493200004         4.35928962E-14
  0.505200028        -2.79705238E-14
  0.517199993        -1.08651661E-13
  0.529200017        -1.77072902E-13
  0.541199982        -2.10207923E-13
  0.553200006        -1.89301726E-13
  0.565199971        -1.06109782E-13
  0.577199996         3.20210133E-14
  0.589200020         1.99861002E-13
  0.601199985         3.56259727E-13
  0.613200009         4.51209084E-13
  0.625199974         4.37733210E-13
  0.637199998         2.86793728E-13
  0.649200022         1.76846472E-15
  0.661199987        -3.72134832E-13
  0.673200011        -7.48292108E-13
  0.685199976        -1.01220074E-12
  0.697200000        -1.04826965E-12
  0.709200025        -7.75593673E-13
  0.721199989        -1.83980205E-13
  0.733200014         6.41456614E-13
  0.745199978         1.51867386E-12
  0.757200003         2.19741846E-12
  0.769200027         2.41769430E-12
  0.781199992         1.98734714E-12
  0.793200016         8.58952395E-13
  0.805199981        -8.18738361E-13
  0.817200005        -2.69739482E-12
  0.829200029        -4.28620073E-12
  0.841199994        -5.06527849E-12
  0.853200018        -4.63239690E-12
  0.865199983        -2.84459175E-12
  0.877200007         8.96209647E-14
  0.889199972         3.60459362E-12
  0.901199996         6.87527552E-12
  0.913200021         9.00600861E-12
  0.925199986         9.26815222E-12
  0.937200010         7.32313602E-12
  0.949199975         3.36320078E-12
  0.961199999        -1.88166908E-12
  0.973200023        -7.28773465E-12
  0.985199988        -1.16057415E-11
  0.997200012        -1.37863150E-11
   1.00919998        -1.32714187E-11
   1.02119994        -1.01627960E-11
   1.03320003        -5.20807442E-12
   1.04519999         4.03784346E-13
   1.05719995         5.38788719E-12
   1.06920004         8.75219688E-12
   1.08120000         1.01107846E-11
   1.09319997         9.81623637E-12
   1.10520005         8.85307452E-12
   1.11720002         8.50269768E-12
   1.12919998         9.86120300E-12
   1.14119995         1.33431296E-11
   1.15320003         1.83199012E-11
   1.16520000         2.30152633E-11
   1.17719996         2.47167356E-11
   1.18920004         2.02799583E-11
   1.20120001         6.82412763E-12
   1.21319997        -1.75336759E-11
   1.22520006        -5.30670508E-11
   1.23720002        -9.80727166E-11
   1.24919999        -1.48793325E-10
   1.26119995        -1.99585223E-10
   1.27320004        -2.43200488E-10
   1.28520000        -2.71002554E-10
   1.29719996        -2.72922712E-10
   1.30920005        -2.37006165E-10
   1.32120001        -1.48456678E-10
   1.33319998         1.18377105E-11
   1.34519994         2.69265860E-10
   1.35720003         6.57920440E-10
   1.36919999         1.22355182E-09
   1.38119996         2.02726724E-09
   1.39320004         3.15046766E-09
   1.40520000         4.70182338E-09
   1.41719997         6.82755452E-09
   1.42920005         9.72660885E-09
   1.44120002         1.36729916E-08
   1.45319998         1.90479046E-08
   1.46519995         2.63848321E-08
   1.47720003         3.64314197E-08
   1.48920000         5.02319892E-08
   1.50119996         6.92350497E-08
   1.51320004         9.54300674E-08
   1.52520001         1.31516984E-07
   1.53719997         1.81111858E-07
   1.54920006         2.48989096E-07
   1.56120002         3.41360590E-07
   1.57319999         4.66186350E-07
   1.58519995         6.33511377E-07
   1.59720004         8.55815017E-07
   1.60920000         1.14835996E-06
   1.62119997         1.52951725E-06
   1.63320005         2.02104707E-06
   1.64520001         2.64830351E-06
   1.65719998         3.44033697E-06
   1.66919994         4.42985720E-06
   1.68120003         5.65303435E-06
   1.69319999         7.14910084E-06
   1.70519996         8.95973881E-06
   1.71720004         1.11282325E-05
   1.72920001         1.36983772E-05
   1.74119997         1.67131620E-05
   1.75320005         2.02132360E-05
   1.76520002         2.42351962E-05
   1.77719998         2.88097654E-05
   1.78919995         3.39598737E-05
   1.80120003         3.96988144E-05
   1.81320000         4.60284464E-05
   1.82519996         5.29376739E-05
   1.83720005         6.04011839E-05
   1.84920001         6.83785838E-05
   1.86119998         7.68140671E-05
   1.87320006         8.56365659E-05
   1.88520002         9.47605731E-05
   1.89719999         1.04087499E-04
   1.90919995         1.13507747E-04
   1.92120004         1.22903264E-04
   1.93320000         1.32150599E-04
   1.94519997         1.41124416E-04
   1.95720005         1.49701213E-04
   1.96920002         1.57763177E-04
   1.98119998         1.65202000E-04
   1.99319994         1.71922366E-04
   2.00519991         1.77845199E-04
   2.01719999         1.82910255E-04
   2.02920008         1.87077967E-04
   2.04119992         1.90330771E-04
   2.05320001         1.92673178E-04
   2.06520009         1.94131440E-04
   2.07719994         1.94751949E-04
   2.08920002         1.94599255E-04
   2.10120010         1.93753149E-04
   2.11319995         1.92305364E-04
   2.12520003         1.90356033E-04
   2.13720012         1.88009872E-04
   2.14919996         1.85372366E-04
   2.16120005         1.82546486E-04
   2.17319989         1.79629424E-04
   2.18519998         1.76710135E-04
   2.19720006         1.73867345E-04
   2.20919991         1.71168329E-04
   2.22119999         1.68668295E-04
   2.23320007         1.66410551E-04
   2.24519992         1.64427052E-04
   2.25720000         1.62739612E-04
   2.26920009         1.61361226E-04
   2.28119993         1.60297815E-04
   2.29320002         1.59549876E-04
   2.30520010         1.59113973E-04
   2.31719995         1.58984258E-04
   2.32920003         1.59153453E-04
   2.34120011         1.59613643E-04
   2.35319996         1.60356591E-04
   2.36520004         1.61373871E-04
   2.37719989         1.62656608E-04
   2.38919997         1.64195022E-04
   2.40120006         1.65977923E-04
   2.41319990         1.67992039E-04
   2.42519999         1.70221610E-04
   2.43720007         1.72647968E-04
   2.44919991         1.75249443E-04
   2.46120000         1.78001414E-04
   2.47320008         1.80876727E-04
   2.48519993         1.83846205E-04
   2.49720001         1.86879537E-04
   2.50920010         1.89946106E-04
   2.52119994         1.93016036E-04
   2.53320003         1.96061155E-04
   2.54520011         1.99055867E-04
   2.55719995         2.01977949E-04
   2.56920004         2.04809199E-04
   2.58119988         2.07535748E-04
   2.59319997         2.10148355E-04
   2.60520005         2.12642466E-04
   2.61719990         2.15018066E-04
   2.62919998         2.17279521E-04
   2.64120007         2.19435329E-04
   2.65319991         2.21497845E-04
   2.66520000         2.23483017E-04
   2.67720008         2.25410142E-04
   2.68919992         2.27301745E-04
   2.70120001         2.29183293E-04
   2.71320009         2.31083206E-04
   2.72519994         2.33032566E-04
   2.73720002         2.35064959E-04
   2.74920011         2.37216154E-04
   2.76119995         2.39523753E-04
   2.77320004         2.42026625E-04
   2.78520012         2.44764320E-04
   2.79719996         2.47776334E-04
   2.80920005         2.51101301E-04
   2.82119989         2.54775980E-04
   2.83319998         2.58834538E-04
   2.84520006         2.63307360E-04
   2.85719991         2.68220378E-04
   2.86919999         2.73594022E-04
   2.88120008         2.79442553E-04
   2.89319992         2.85773189E-04
   2.90520000         2.92585435E-04
   2.91720009         2.99870531E-04
   2.92919993         3.07610579E-04
   2.94120002         3.15778103E-04
   2.95320010         3.24335386E-04
   2.96519995         3.33233620E-04
   2.97720003         3.42412444E-04
   2.98920012         3.51799332E-04
   3.00119996         3.61308921E-04
   3.01320004         3.70842812E-04
   3.02519989         3.80289188E-04
   3.03719997         3.89523135E-04
   3.04920006         3.98407137E-04
   3.06119990         4.06791718E-04
   3.07319999         4.14517097E-04
   3.08520007         4.21414996E-04
   3.09719992         4.27310908E-04
   3.10920000         4.32027184E-04
   3.12120008         4.35386231E-04
   3.13319993         4.37214330E-04
   3.14520001         4.37345443E-04
   3.15720010         4.35625610E-04
   3.16919994         4.31917055E-04
   3.18120003         4.26102401E-04
   3.19320011         4.18088544E-04
   3.20519996         4.07810294E-04
   3.21720004         3.95233481E-04
   3.22919989         3.80357698E-04
   3.24119997         3.63218103E-04
   3.25320005         3.43886786E-04
   3.26519990         3.22473090E-04
   3.27719998         2.99123261E-04
   3.28920007         2.74019374E-04
   3.30119991         2.47377175E-04
   3.31320000         2.19443318E-04
   3.32520008         1.90491715E-04
   3.33719993         1.60819181E-04
   3.34920001         1.30740562E-04
   3.36120009         1.00583275E-04
   3.37319994         7.06813589E-05
   3.38520002         4.13693233E-05
   3.39720011         1.29758664E-05
   3.40919995        -1.41824648E-05
   3.42120004        -3.98074517E-05
   3.43319988        -6.36250334E-05
   3.44519997        -8.53907259E-05
   3.45720005        -1.04894381E-04
   3.46919990        -1.21964280E-04
   3.48119998        -1.36470248E-04
   3.49320006        -1.48325940E-04
   3.50519991        -1.57490009E-04
   3.51719999        -1.63966193E-04
   3.52920008        -1.67802369E-04
   3.54119992        -1.69088496E-04
   3.55320001        -1.67953593E-04
   3.56520009        -1.64561701E-04
   3.57719994        -1.59107149E-04
   3.58920002        -1.51809116E-04
   3.60120010        -1.42905716E-04
   3.61319995        -1.32647809E-04
   3.62520003        -1.21292760E-04
   3.63720012        -1.09098248E-04
   3.64919996        -9.63164566E-05
   3.66120005        -8.31887737E-05
   3.67319989        -6.99411321E-05
   3.68519998        -5.67801799E-05
   3.69720006        -4.38903480E-05
   3.70919991        -3.14318240E-05
   3.72119999        -1.95394987E-05
   3.73320007        -8.32286423E-06
   3.74519992         2.13332919E-06
   3.75720000         1.17676200E-05
   3.76920009         2.05398119E-05
   3.78119993         2.84285907E-05
   3.79320002         3.54287913E-05
   3.80520010         4.15486866E-05
   3.81719995         4.68072576E-05
   3.82920003         5.12317674E-05
   3.84120011         5.48556491E-05
   3.85319996         5.77167921E-05
   3.86520004         5.98563201E-05
   3.87719989         6.13178199E-05
   3.88919997         6.21470244E-05
   3.90120006         6.23918604E-05
   3.91319990         6.21027866E-05
   3.92519999         6.13333250E-05
   3.93720007         6.01405773E-05
   3.94919991         5.85857961E-05
   3.96120000         5.67347051E-05
   3.97320008         5.46575720E-05
   3.98519993         5.24289608E-05
   3.99720001         5.01270697E-05
   4.00920010         4.78327165E-05
   4.02120018         4.56278649E-05
   4.03319979         4.35938455E-05
   4.04519987         4.18092750E-05
   4.05719995         4.03477679E-05
   4.06920004         3.92755392E-05
   4.08120012         3.86490210E-05
   4.09320021         3.85125968E-05
   4.10519981         3.88965891E-05
   4.11719990         3.98155753E-05
   4.12919998         4.12671943E-05
   4.14120007         4.32314482E-05
   4.15320015         4.56706293E-05
   4.16520023         4.85298988E-05
   4.17719984         5.17384833E-05
   4.18919992         5.52115816E-05
   4.20120001         5.88528601E-05
   4.21320009         6.25574612E-05
   4.22520018         6.62154998E-05
   4.23719978         6.97158757E-05
   4.24919987         7.29502717E-05
   4.26119995         7.58171373E-05
   4.27320004         7.82256320E-05
   4.28520012         8.00991911E-05
   4.29720020         8.13786537E-05
   4.30919981         8.20248024E-05
   4.32119989         8.20201822E-05
   4.33319998         8.13700826E-05
   4.34520006         8.01026545E-05
   4.35720015         7.82681163E-05
   4.36920023         7.59371251E-05
   4.38119984         7.31982655E-05
   4.39319992         7.01548270E-05
   4.40520000         6.69210349E-05
   4.41720009         6.36177865E-05
   4.42920017         6.03681547E-05
   4.44119978         5.72928511E-05
   4.45319986         5.45057446E-05
   4.46519995         5.21097718E-05
   4.47720003         5.01932082E-05
   4.48920012         4.88266633E-05
   4.50120020         4.80606868E-05
   4.51319981         4.79242699E-05
   4.52519989         4.84241173E-05
   4.53719997         4.95448658E-05
   4.54920006         5.12500519E-05
   4.56120014         5.34838873E-05
   4.57320023         5.61737615E-05
   4.58519983         5.92332653E-05
   4.59719992         6.25656830E-05
   4.60920000         6.60677979E-05
   4.62120008         6.96338029E-05
   4.63320017         7.31592372E-05
   4.64519978         7.65447476E-05
   4.65719986         7.96995155E-05
   4.66919994         8.25443567E-05
   4.68120003         8.50141660E-05
   4.69320011         8.70598451E-05
   4.70520020         8.86495327E-05
   4.71719980         8.97691425E-05
   4.72919989         9.04221597E-05
   4.74119997         9.06287969E-05
   4.75320005         9.04245026E-05
   4.76520014         8.98578583E-05
   4.77720022         8.89880394E-05
   4.78919983         8.78818755E-05
   4.80119991         8.66106711E-05
   4.81320000         8.52469020E-05
   4.82520008         8.38609267E-05
   4.83720016         8.25179086E-05
   4.84919977         8.12749640E-05
   4.86119986         8.01787828E-05
   4.87319994         7.92637584E-05
   4.88520002         7.85507436E-05
   4.89720011         7.80464397E-05
   4.90920019         7.77435343E-05
   4.92119980         7.76215020E-05
   4.93319988         7.76480665E-05
   4.94519997         7.77812747E-05
   4.95720005         7.79720649E-05
   4.96920013         7.81671988E-05
   4.98120022         7.83124124E-05
   4.99319983         7.83557116E-05
   5.00519991         7.82504721E-05
   5.01719999         7.79583643E-05
   5.02920008         7.74518703E-05
   5.04120016         7.67161764E-05
   5.05319977         7.57505331E-05
   5.06519985         7.45688230E-05
   5.07719994         7.31993205E-05
   5.08920002         7.16837967E-05
   5.10120010         7.00758028E-05
   5.11320019         6.84383704E-05
   5.12519979         6.68411521E-05
   5.13719988         6.53571478E-05
   5.14919996         6.40592552E-05
   5.16120005         6.30167124E-05
   5.17320013         6.22916195E-05
   5.18520021         6.19358179E-05
   5.19719982         6.19881466E-05
   5.20919991         6.24722670E-05
   5.22119999         6.33952222E-05
   5.23320007         6.47466877E-05
   5.24520016         6.64990002E-05
   5.25719976         6.86080675E-05
   5.26919985         7.10148961E-05
   5.28119993         7.36478396E-05
   5.29320002         7.64253709E-05
   5.30520010         7.92592909E-05
   5.31720018         8.20581845E-05
   5.32919979         8.47308766E-05
   5.34119987         8.71899392E-05
   5.35319996         8.93549150E-05
   5.36520004         9.11551106E-05
   5.37720013         9.25320346E-05
   5.38920021         9.34411364E-05
   5.40119982         9.38529847E-05
   5.41319990         9.37538280E-05
   5.42519999         9.31453906E-05
   5.43720007         9.20442253E-05
   5.44920015         9.04804911E-05
   5.46120024         8.84962501E-05
   5.47319984         8.61435619E-05
   5.48519993         8.34822640E-05
   5.49720001         8.05777745E-05
   5.50920010         7.74989094E-05
   5.52120018         7.43157434E-05
   5.53319979         7.10978347E-05
   5.54519987         6.79126024E-05
   5.55719995         6.48240384E-05
   5.56920004         6.18916965E-05
   5.58120012         5.91700227E-05
   5.59320021         5.67078314E-05
   5.60519981         5.45480652E-05
   5.61719990         5.27276570E-05
   5.62919998         5.12774313E-05
   5.64120007         5.02221010E-05
   5.65320015         4.95801833E-05
   5.66520023         4.93639309E-05
   5.67719984         4.95791719E-05
   5.68919992         5.02251569E-05
   5.70120001         5.12943479E-05
   5.71320009         5.27722805E-05
   5.72520018         5.46374722E-05
   5.73719978         5.68614887E-05
   5.74919987         5.94091471E-05
   5.76119995         6.22389343E-05
   5.77320004         6.53036914E-05
   5.78520012         6.85515406E-05
   5.79720020         7.19270029E-05
   5.80919981         7.53723507E-05
   5.82119989         7.88290636E-05
   5.83319998         8.22394140E-05
   5.84520006         8.55479520E-05
   5.85720015         8.87029455E-05
   5.86920023         9.16576173E-05
   5.88119984         9.43711348E-05
   5.89319992         9.68092863E-05
   5.90520000         9.89448381E-05
   5.91720009         1.00757556E-04
   5.92920017         1.02233898E-04
   5.94119978         1.03366503E-04
   5.95319986         1.04153441E-04
   5.96519995         1.04597369E-04
   5.97720003         1.04704617E-04
   5.98920012         1.04484410E-04
   6.00120020         1.03948172E-04
   6.01319981         1.03108985E-04
   6.02519989         1.01981335E-04
   6.03719997         1.00581070E-04
   6.04920006         9.89255932E-05
   6.06120014         9.70342007E-05
   6.07320023         9.49286550E-05
   6.08519983         9.26336943E-05
   6.09719992         9.01776002E-05
   6.10920000         8.75926416E-05
   6.12120008         8.49153002E-05
   6.13320017         8.21863214E-05
   6.14519978         7.94504303E-05
   6.15719986         7.67557431E-05
   6.16919994         7.41529075E-05
   6.18120003         7.16939685E-05
   6.19320011         6.94310147E-05
   6.20520020         6.74146650E-05
   6.21719980         6.56924749E-05
   6.22919989         6.43074018E-05
   6.24119997         6.32962765E-05
   6.25320005         6.26884939E-05
   6.26520014         6.25048924E-05
   6.27720022         6.27569243E-05
   6.28919983         6.34461176E-05
   6.30119991         6.45638502E-05
   6.31320000         6.60914084E-05
   6.32520008         6.80004086E-05
   6.33720016         7.02533725E-05
   6.34919977         7.28046434E-05
   6.36119986         7.56014124E-05
   6.37319994         7.85849843E-05
   6.38520002         8.16920729E-05
   6.39720011         8.48562631E-05
   6.40920019         8.80094958E-05
   6.42119980         9.10836097E-05
   6.43319988         9.40118625E-05
   6.44519997         9.67304732E-05
   6.45720005         9.91801426E-05
   6.46920013         1.01307443E-04
   6.48120022         1.03066188E-04
   6.49319983         1.04418628E-04
   6.50519991         1.05336432E-04
   6.51719999         1.05801504E-04
   6.52920008         1.05806481E-04
   6.54120016         1.05354920E-04
   6.55319977         1.04461178E-04
   6.56519985         1.03149912E-04
   6.57719994         1.01455240E-04
   6.58920002         9.94195943E-05
   6.60120010         9.70922774E-05
   6.61320019         9.45278225E-05
   6.62519979         9.17842335E-05
   6.63719988         8.89211005E-05
   6.64919996         8.59978682E-05
   6.66120005         8.30721183E-05
   6.67320013         8.01980932E-05
   6.68520021         7.74255386E-05
   6.69719982         7.47987287E-05
   6.70919991         7.23559351E-05
   6.72119999         7.01291574E-05
   6.73320007         6.81441888E-05
   6.74520016         6.64208274E-05
   6.75719976         6.49734429E-05
   6.76919985         6.38115162E-05
   6.78119993         6.29402566E-05
   6.79320002         6.23611995E-05
   6.80520010         6.20726423E-05
   6.81720018         6.20700303E-05
   6.82919979         6.23460292E-05
   6.84119987         6.28905473E-05
   6.85319996         6.36904952E-05
   6.86520004         6.47295092E-05
   6.87720013         6.59875222E-05
   6.88920021         6.74403927E-05
   6.90119982         6.90595552E-05
   6.91319990         7.08118896E-05
   6.92519999         7.26596845E-05
   6.93720007         7.45609868E-05
   6.94920015         7.64701690E-05
   6.96120024         7.83388241E-05
   6.97319984         8.01169808E-05
   6.98519993         8.17545661E-05
   6.99720001         8.32030928E-05
   7.00920010         8.44174428E-05
   7.02120018         8.53577149E-05
   7.03319979         8.59909487E-05
   7.04519987         8.62927263E-05
   7.05719995         8.62484376E-05
   7.06920004         8.58542335E-05
   7.08120012         8.51174773E-05
   7.09320021         8.40567955E-05
   7.10519981         8.27015829E-05
   7.11719990         8.10910715E-05
   7.12919998         7.92729625E-05
   7.14120007         7.73016800E-05
   7.15320015         7.52364213E-05
   7.16520023         7.31389737E-05
   7.17719984         7.10715540E-05
   7.18919992         6.90946399E-05
   7.20120001         6.72650058E-05
   7.21320009         6.56339835E-05
   7.22520018         6.42460145E-05
   7.23719978         6.31375806E-05
   7.24919987         6.23364249E-05
   7.26119995         6.18612030E-05
   7.27320004         6.17213809E-05
   7.28520012         6.19175044E-05
   7.29720020         6.24416280E-05
   7.30919981         6.32779775E-05
   7.32119989         6.44037355E-05
   7.33319998         6.57898781E-05
   7.34520006         6.74020630E-05
   7.35720015         6.92015456E-05
   7.36920023         7.11460452E-05
   7.38119984         7.31905820E-05
   7.39319992         7.52883425E-05
   7.40520000         7.73914653E-05
   7.41720009         7.94518710E-05
   7.42920017         8.14220693E-05
   7.44119978         8.32560472E-05
   7.45319986         8.49101125E-05
   7.46519995         8.63438399E-05
   7.47720003         8.75209589E-05
   7.48920012         8.84103065E-05
   7.50120020         8.89866569E-05
   7.51319981         8.92315511E-05
   7.52519989         8.91339732E-05
   7.53719997         8.86908674E-05
   7.54920006         8.79075233E-05
   7.56120014         8.67976560E-05
   7.57320023         8.53833262E-05
   7.58519983         8.36946201E-05
   7.59719992         8.17689943E-05
   7.60920000         7.96505337E-05
   7.62120008         7.73888969E-05
   7.63320017         7.50381951E-05
   7.64519978         7.26556391E-05
   7.65719986         7.03002515E-05
   7.66919994         6.80314188E-05
   7.68120003         6.59075740E-05
   7.69320011         6.39848877E-05
   7.70520020         6.23160740E-05
   7.71719980         6.09492818E-05
   7.72919989         5.99271734E-05
   7.74119997         5.92861034E-05
   7.75320005         5.90554373E-05
   7.76520014         5.92570213E-05
   7.77720022         5.99047235E-05
   7.78919983         6.10041461E-05
   7.80119991         6.25523899E-05
   7.81320000         6.45379041E-05
   7.82520008         6.69404835E-05
   7.83720016         6.97313371E-05
   7.84919977         7.28732848E-05
   7.86119986         7.63211356E-05
   7.87319994         8.00221824E-05
   7.88520002         8.39169370E-05
   7.89720011         8.79400905E-05
   7.90920019         9.20216189E-05
   7.92119980         9.60881807E-05
   7.93319988         1.00064681E-04
   7.94519997         1.03876002E-04
   7.95720005         1.07448832E-04
   7.96920013         1.10713583E-04
   7.98120022         1.13606271E-04
   7.99319983         1.16070296E-04
   8.00520039         1.18058066E-04
   8.01720047         1.19532400E-04
   8.02919960         1.20467557E-04
   8.04119968         1.20849953E-04
   8.05319977         1.20678502E-04
   8.06519985         1.19964490E-04
   8.07719994         1.18731041E-04
   8.08920002         1.17012263E-04
   8.10120010         1.14851915E-04
   8.11320019         1.12301947E-04
   8.12520027         1.09420660E-04
   8.13720036         1.06270883E-04
   8.14920044         1.02917998E-04
   8.16119957         9.94280272E-05
   8.17319965         9.58659075E-05
   8.18519974         9.22938489E-05
   8.19719982         8.87700735E-05
   8.20919991         8.53477468E-05
   8.22119999         8.20742789E-05
   8.23320007         7.89909318E-05
   8.24520016         7.61327319E-05
   8.25720024         7.35286158E-05
   8.26920033         7.12018009E-05
   8.28120041         6.91703026E-05
   8.29319954         6.74475159E-05
   8.30519962         6.60427904E-05
   8.31719971         6.49620197E-05
   8.32919979         6.42080486E-05
   8.34119987         6.37809935E-05
   8.35319996         6.36784171E-05
   8.36520004         6.38953206E-05
   8.37720013         6.44240281E-05
   8.38920021         6.52539893E-05
   8.40120029         6.63714673E-05
   8.41320038         6.77593125E-05
   8.42520046         6.93966867E-05
   8.43719959         7.12589754E-05
   8.44919968         7.33178022E-05
   8.46119976         7.55412257E-05
   8.47319984         7.78941321E-05
   8.48519993         8.03388393E-05
   8.49720001         8.28358316E-05
   8.50920010         8.53446545E-05
   8.52120018         8.78248757E-05
   8.53320026         9.02371467E-05
   8.54520035         9.25441636E-05
   8.55720043         9.47116350E-05
   8.56919956         9.67090382E-05
   8.58119965         9.85103106E-05
   8.59319973         1.00094308E-04
   8.60519981         1.01445039E-04
   8.61719990         1.02551770E-04
   8.62919998         1.03408871E-04
   8.64120007         1.04015533E-04
   8.65320015         1.04375322E-04
   8.66520023         1.04495695E-04
   8.67720032         1.04387364E-04
   8.68920040         1.04063700E-04
   8.70119953         1.03540144E-04
   8.71319962         1.02833597E-04
   8.72519970         1.01961981E-04
   8.73719978         1.00943755E-04
   8.74919987         9.97975876E-05
   8.76119995         9.85421211E-05
   8.77320004         9.71958143E-05
   8.78520012         9.57767843E-05
   8.79720020         9.43027917E-05
   8.80920029         9.27912333E-05
   8.82120037         9.12591640E-05
   8.83320045         8.97232676E-05
   8.84519958         8.81998640E-05
   8.85719967         8.67048875E-05
   8.86919975         8.52537123E-05
   8.88119984         8.38610576E-05
   8.89319992         8.25407114E-05
   8.90520000         8.13052902E-05
   8.91720009         8.01658389E-05
   8.92920017         7.91315324E-05
   8.94120026         7.82092611E-05
   8.95320034         7.74032960E-05
   8.96520042         7.67149613E-05
   8.97719955         7.61424380E-05
   8.98919964         7.56806185E-05
   9.00119972         7.53211134E-05
   9.01319981         7.50523832E-05
   9.02519989         7.48600723E-05
   9.03719997         7.47273807E-05
   9.04920006         7.46356891E-05
   9.06120014         7.45651996E-05
   9.07320023         7.44956778E-05
   9.08520031         7.44073186E-05