 -0.622799993         1.00000002E-24
 -0.610800028         1.00000002E-24
 -0.598800004         1.00000002E-24
 -0.586799979         1.00000002E-24
 -0.574800014         1.00000002E-24
 -0.562799990         1.00000002E-24
 -0.550800025         1.00000012E-24
 -0.538800001         1.00000022E-24
 -0.526799977         1.00000022E-24
 -0.514800012         1.00000022E-24
 -0.502799988         1.00000022E-24
 -0.490799993         1.00000022E-24
 -0.478799999         1.00000012E-24
 -0.466800004         1.00000002E-24
 -0.454800010         9.99999921E-25
 -0.442799985         9.99999822E-25
 -0.430799991         9.99999822E-25
 -0.418799996         9.99999822E-25
 -0.406800002         9.99999921E-25
 -0.394800007         1.00000012E-24
 -0.382800013         1.00000032E-24
 -0.370799989         1.00000051E-24
 -0.358799994         1.00000061E-24
 -0.346799999         1.00000051E-24
 -0.334800005         1.00000041E-24
 -0.322800010         1.00000022E-24
 -0.310799986         9.99999921E-25
 -0.298799992         9.99999724E-25
 -0.286799997         9.99999724E-25
 -0.274800003         9.99999822E-25
 -0.262800008         1.00000002E-24
 -0.250800014         1.00000002E-24
 -0.238800004         9.99999724E-25
 -0.226799995         9.99998935E-25
 -0.214800000         9.99997259E-25
 -0.202800006         9.99995385E-25
 -0.190799996         9.99995089E-25
 -0.178800002         1.00000081E-24
 -0.166800007         1.00001905E-24
 -0.154799998         1.00005711E-24
 -0.142800003         1.00011598E-24
 -0.130799994         1.00017870E-24
 -0.118799999         1.00019181E-24
 -0.106799997         1.00005179E-24
  -9.48000029E-02     9.99609040E-25
  -8.28000009E-02     9.98720487E-25
  -7.07999989E-02     9.97375874E-25
  -5.88000007E-02     9.95909973E-25
  -4.67999987E-02     9.95258177E-25
  -3.48000005E-02     9.97123438E-25
  -2.28000004E-02     1.00381978E-24
  -1.08000003E-02     1.01748285E-24
   1.20000006E-03     1.03839418E-24
   1.31999999E-02     1.06245680E-24
   2.52000000E-02     1.07845184E-24
   3.72000001E-02     1.06655365E-24
   4.91999984E-02     1.00041378E-24
   6.12000003E-02     8.55424298E-25
   7.32000023E-02     6.24826796E-25
   8.51999968E-02     3.42484603E-25
   9.71999988E-02     1.06227455E-25
  0.109200001         8.95494562E-26
  0.121200003         5.24361760E-25
  0.133200005         1.63712264E-24
  0.145199999         3.52918146E-24
  0.157199994         6.01259487E-24
  0.169200003         8.44433632E-24
  0.181199998         9.63790574E-24
  0.193200007         7.95768724E-24
  0.205200002         1.69810672E-24
  0.217199996        -1.02038259E-23
  0.229200006        -2.71888547E-23
  0.241200000        -4.60628694E-23
  0.253199995        -6.03679910E-23
  0.265199989        -6.06807270E-23
  0.277200013        -3.63607858E-23
  0.289200008         2.09795570E-23
  0.301200002         1.12545044E-22
  0.313199997         2.26984060E-22
  0.325199991         3.36411588E-22
  0.337199986         3.96259272E-22
  0.349200010         3.51382957E-22
  0.361200005         1.49918118E-22
  0.373199999        -2.35667992E-22
  0.385199994        -7.83866923E-22
  0.397199988        -1.40264184E-21
  0.409200013        -1.92068491E-21
  0.421200007        -2.10157856E-21
  0.433200002        -1.68836065E-21
  0.445199996        -4.79342027E-22
  0.457199991         1.57432908E-21
  0.469199985         4.27109176E-21
  0.481200010         7.09399948E-21
  0.493200004         9.21604087E-21
  0.505200028         9.60845326E-21
  0.517199993         7.26645937E-21
  0.529200017         1.53553641E-21
  0.541199982        -7.51865737E-21
  0.553200006        -1.87931251E-20
  0.565199971        -3.00054856E-20
  0.577199996        -3.78476748E-20
  0.589200020        -3.85157039E-20
  0.601199985        -2.86137962E-20
  0.613200009        -6.31633419E-21
  0.625199974         2.74530065E-20
  0.637199998         6.81655632E-20
  0.649200022         1.07529932E-19
  0.661199987         1.34342028E-19
  0.673200011         1.36471915E-19
  0.685199976         1.03834457E-19
  0.697200000         3.18574363E-20
  0.709200025        -7.53445668E-20
  0.721199989        -2.03057331E-19
  0.733200014        -3.26239155E-19
  0.745199978        -4.12587298E-19
  0.757200003        -4.28434114E-19
  0.769200027        -3.46763703E-19
  0.781199992        -1.55891544E-19
  0.793200016         1.33205095E-19
  0.805199981         4.83074150E-19
  0.817200005         8.31300747E-19
  0.829200029         1.09825856E-18
  0.841199994         1.20071470E-18
  0.853200018         1.06947029E-18
  0.865199983         6.67961890E-19
  0.877200007         8.01502551E-21
  0.889199972        -8.41075127E-19
  0.901199996        -1.75317726E-18
  0.913200021        -2.55727332E-18
  0.925199986        -3.06049196E-18
  0.937200010        -3.08008353E-18
  0.949199975        -2.48053226E-18
  0.961199999        -1.21069897E-18
  0.973200023         6.64928308E-19
  0.985199988         2.94720440E-18
  0.997200012         5.30179966E-18
   1.00919998         7.28270077E-18
   1.02119994         8.38349784E-18
   1.03320003         8.11685204E-18
   1.04519999         6.11721239E-18
   1.05719995         2.25489518E-18
   1.06920004        -3.25840609E-18
   1.08120000        -9.79923814E-18
   1.09319997        -1.63268032E-17
   1.10520005        -2.14681642E-17
   1.11720002        -2.37079724E-17
   1.12919998        -2.16753266E-17
   1.14119995        -1.44931357E-17
   1.15320003        -2.12710880E-18
   1.16520000         1.43494148E-17
   1.17719996         3.26645120E-17
   1.18920004         4.95041325E-17
   1.20120001         6.09496123E-17
   1.21319997         6.31696526E-17
   1.22520006         5.32711958E-17
   1.23720002         3.01509153E-17
   1.24919999        -4.84789133E-18
   1.26119995        -4.76654523E-17
   1.27320004        -9.17837159E-17
   1.28520000        -1.29057540E-16
   1.29719996        -1.51039130E-16
   1.30920005        -1.50589117E-16
   1.32120001        -1.23471106E-16
   1.33319998        -6.95871315E-17
   1.34519994         6.44893828E-18
   1.35720003         9.55892166E-17
   1.36919999         1.85496086E-16
   1.38119996         2.62376264E-16
   1.39320004         3.13162110E-16
   1.40520000         3.27604842E-16
   1.41719997         2.99854904E-16
   1.42920005         2.29224533E-16
   1.44120002         1.20034257E-16
   1.45319998        -1.93149684E-17
   1.46519995        -1.77691975E-16
   1.47720003        -3.42546582E-16
   1.48920000        -5.00751691E-16
   1.50119996        -6.38732775E-16
   1.51320004        -7.41942575E-16
   1.52520001        -7.94078618E-16
   1.53719997        -7.76711584E-16
   1.54920006        -6.70089247E-16
   1.56120002        -4.55729772E-16
   1.57319999        -1.21003884E-16
   1.58519995         3.34710654E-16
   1.59720004         8.93400590E-16
   1.60920000         1.51297586E-15
   1.62119997         2.12493652E-15
   1.63320005         2.63686883E-15
   1.64520001         2.94080395E-15
   1.65719998         2.92735285E-15
   1.66919994         2.50421098E-15
   1.68120003         1.61637095E-15
   1.69319999         2.64546415E-16
   1.70519996        -1.48190574E-15
   1.71720004        -3.48068157E-15
   1.72920001        -5.52271030E-15
   1.74119997        -7.34896966E-15
   1.75320005        -8.67633127E-15
   1.76520002        -9.22941160E-15
   1.77719998        -8.77468789E-15
   1.78919995        -7.15315258E-15
   1.80120003        -4.30849534E-15
   1.81320000        -3.08770456E-16
   1.82519996         4.63966447E-15
   1.83720005         1.01868443E-14
   1.84920001         1.58439156E-14
   1.86119998         2.10001965E-14
   1.87320006         2.49558742E-14
   1.88520002         2.69738760E-14
   1.89719999         2.63531449E-14
   1.90919995         2.25222012E-14
   1.92120004         1.51469600E-14
   1.93320000         4.24049046E-15
   1.94519997        -9.74317012E-15
   1.95720005        -2.58525128E-14
   1.96920002        -4.26402789E-14
   1.98119998        -5.82390378E-14
   1.99319994        -7.05160892E-14
   2.00519991        -7.72998270E-14
   2.01719999        -7.66550587E-14
   2.02920008        -6.71729247E-14
   2.04119992        -4.82339964E-14
   2.05320001        -2.02037873E-14
   2.06520009         1.54721579E-14
   2.07719994         5.62915532E-14
   2.08920002         9.88377742E-14
   2.10120010         1.39024968E-13
   2.11319995         1.72417717E-13
   2.12520003         1.94592484E-13
   2.13720012         2.01510873E-13
   2.14919996         1.89884214E-13
   2.16120005         1.57518895E-13
   2.17319989         1.03639936E-13
   2.18519998         2.91899073E-14
   2.19720006        -6.29086762E-14
   2.20919991        -1.67557591E-13
   2.22119999        -2.77404591E-13
   2.23320007        -3.82951564E-13
   2.24519992        -4.72923187E-13
   2.25720000        -5.34958145E-13
   2.26920009        -5.56648586E-13
   2.28119993        -5.26898512E-13
   2.29320002        -4.37506151E-13
   2.30520010        -2.84803946E-13
   2.31719995        -7.11398984E-14
   2.32920003         1.94044786E-13
   2.34120011         4.93774455E-13
   2.35319996         8.03915474E-13
   2.36520004         1.09446707E-12
   2.37719989         1.33175133E-12
   2.38919997         1.48137535E-12
   2.40120006         1.51172889E-12
   2.41319990         1.39770574E-12
   2.42519999         1.12428990E-12
   2.43720007         6.89643709E-13
   2.44919991         1.07363093E-13
   2.46120000        -5.92389419E-13
   2.47320008        -1.36308564E-12
   2.48519993        -2.14351410E-12
   2.49720001        -2.86100484E-12
   2.50920010        -3.43617474E-12
   2.52119994        -3.78906325E-12
   2.53320003        -3.84640974E-12
   2.54520011        -3.54966794E-12
   2.55719995        -2.86319904E-12
   2.56920004        -1.78189776E-12
   2.58119988        -3.37393958E-13
   2.59319997         1.39812749E-12
   2.60520005         3.31139695E-12
   2.61719990         5.25158519E-12
   2.62919998         7.03834343E-12
   2.64120007         8.47438526E-12
   2.65319991         9.36210831E-12
   2.66520000         9.52319647E-12
   2.67720008         8.81958222E-12
   2.68919992         7.17376679E-12
   2.70120001         4.58621335E-12
   2.71320009         1.14755753E-12
   2.72519994        -2.95636540E-12
   2.73720002        -7.44818443E-12
   2.74920011        -1.19721125E-11
   2.76119995        -1.61164276E-11
   2.77320004        -1.94442674E-11
   2.78520012        -2.15307910E-11
   2.79719996        -2.20039507E-11
   2.80920005        -2.05855263E-11
   2.82119989        -1.71286926E-11
   2.83319998        -1.16483706E-11
   2.84520006        -4.34084192E-12
   2.85719991         4.41028030E-12
   2.86919999         1.40437766E-11
   2.88120008         2.38471257E-11
   2.89319992         3.29990028E-11
   2.90520000         4.06261066E-11
   2.91720009         4.58711263E-11
   2.92919993         4.79673072E-11
   2.94120002         4.63141366E-11
   2.95320010         4.05479574E-11
   2.96519995         3.06011709E-11
   2.97720003         1.67439066E-11
   2.98920012        -3.96993988E-13
   3.00119996        -1.98457049E-11
   3.01320004        -4.03140160E-11
   3.02519989        -6.02670067E-11
   3.03719997        -7.80158299E-11
   3.04920006        -9.18333951E-11
   3.06119990        -1.00086626E-10
   3.07319999        -1.01377268E-10
   3.08520007        -9.46814571E-11
   3.09719992        -7.94777091E-11
   3.10920000        -5.58521840E-11
   3.12120008        -2.45705175E-11
   3.13319993         1.28933739E-11
   3.14520001         5.43796813E-11
   3.15720010         9.71213943E-11
   3.16919994         1.37881387E-10
   3.18120003         1.73145512E-10
   3.19320011         1.99364886E-10
   3.20519996         2.13235346E-10
   3.21720004         2.11996976E-10
   3.22919989         1.93732391E-10
   3.24119997         1.57638805E-10
   3.25320005         1.04247139E-10
   3.26519990         3.55613351E-11
   3.27719998        -4.49057458E-11
   3.28920007        -1.32218583E-10
   3.30119991        -2.20237828E-10
   3.31320000        -3.01971947E-10
   3.32520008        -3.70049519E-10
   3.33719993        -4.17287704E-10
   3.34920001        -4.37319153E-10
   3.36120009        -4.25229907E-10
   3.37319994        -3.78152537E-10
   3.38520002        -2.95755254E-10
   3.39720011        -1.80570808E-10
   3.40919995        -3.81150528E-11
   3.42120004         1.23240473E-10
   3.43319988         2.92659008E-10
   3.44519997         4.57487270E-10
   3.45720005         6.04132133E-10
   3.46919990         7.19110771E-10
   3.48119998         7.90196464E-10
   3.49320006         8.07566014E-10
   3.50519991         7.64844243E-10
   3.51719999         6.59938104E-10
   3.52920008         4.95565700E-10
   3.54119992         2.79401502E-10
   3.55320001         2.37912953E-11
   3.56520009        -2.54974125E-10
   3.57719994        -5.37793921E-10
   3.58920002        -8.04225186E-10
   3.60120010        -1.03416797E-09
   3.61319995        -1.20961818E-09
   3.62520003        -1.31631817E-09
   3.63720012        -1.34513001E-09
   3.64919996        -1.29296707E-09
   3.66120005        -1.16315235E-09
   3.67319989        -9.65116431E-10
   3.68519998        -7.13412662E-10
   3.69720006        -4.26096880E-10
   3.70919991        -1.22590590E-10
   3.72119999         1.78781420E-10
   3.73320007         4.63336619E-10
   3.74519992         7.22380045E-10
   3.75720000         9.55061030E-10
   3.76920009         1.16946752E-09
   3.78119993         1.38273792E-09
   3.79320002         1.62005453E-09
   3.80520010         1.91247640E-09
   3.81719995         2.29370811E-09
   3.82920003         2.79601631E-09
   3.84120011         3.44564466E-09
   3.85319996         4.25818003E-09
   3.86520004         5.23442045E-09
   3.87719989         6.35732444E-09
   3.88919997         7.59063568E-09
   3.90120006         8.87973606E-09
   3.91319990         1.01551620E-08
   3.92519999         1.13391332E-08
   3.93720007         1.23551880E-08
   3.94919991         1.31409381E-08
   3.96120000         1.36636045E-08
   3.97320008         1.39379610E-08
   3.98519993         1.40459591E-08
   3.99720001         1.41572958E-08
   4.00920010         1.45500128E-08
   4.02120018         1.56301176E-08
   4.03319979         1.79493327E-08
   4.04519987         2.22199308E-08
   4.05719995         2.93257632E-08
   4.06920004         4.03288283E-08
   4.08120012         5.64705651E-08
   4.09320021         7.91673074E-08
   4.10519981         1.09999689E-07
   4.11719990         1.50695413E-07
   4.12919998         2.03105486E-07
   4.14120007         2.69173398E-07
   4.15320015         3.50897920E-07
   4.16520023         4.50288866E-07
   4.17719984         5.69316796E-07
   4.18919992         7.09856749E-07
   4.20120001         8.73626504E-07
   4.21320009         1.06212053E-06
   4.22520018         1.27654107E-06
   4.23719978         1.51772792E-06
   4.24919987         1.78608741E-06
   4.26119995         2.08152574E-06
   4.27320004         2.40338727E-06
   4.28520012         2.75040065E-06
   4.29720020         3.12063844E-06
   4.30919981         3.51149060E-06
   4.32119989         3.91965386E-06
   4.33319998         4.34114736E-06
   4.34520006         4.77134381E-06
   4.35720015         5.20503090E-06
   4.36920023         5.63649292E-06
   4.38119984         6.05961895E-06
   4.39319992         6.46802800E-06
   4.40520000         6.85521763E-06
   4.41720009         7.21472406E-06
   4.42920017         7.54029043E-06
   4.44119978         7.82603820E-06
   4.45319986         8.06663411E-06
   4.46519995         8.25744974E-06
   4.47720003         8.39469612E-06
   4.48920012         8.47553929E-06
   4.50120020         8.49819480E-06
   4.51319981         8.46197145E-06
   4.52519989         8.36730214E-06
   4.53719997         8.21572485E-06
   4.54920006         8.00983435E-06
   4.56120014         7.75319950E-06
   4.57320023         7.45025727E-06
   4.58519983         7.10618224E-06
   4.59719992         6.72673468E-06
   4.60920000         6.31810644E-06
   4.62120008         5.88675675E-06
   4.63320017         5.43925216E-06
   4.64519978         4.98212103E-06
   4.65719986         4.52171344E-06
   4.66919994         4.06408253E-06
   4.68120003         3.61488605E-06
   4.69320011         3.17930471E-06
   4.70520020         2.76198534E-06
   4.71719980         2.36700089E-06
   4.72919989         1.99782744E-06
   4.74119997         1.65733888E-06
   4.75320005         1.34780828E-06
   4.76520014         1.07092262E-06
   4.77720022         8.27800761E-07
   4.78919983         6.19014713E-07
   4.80119991         4.44613732E-07
   4.81320000         3.04147449E-07
   4.82520008         1.96689726E-07
   4.83720016         1.20862239E-07
   4.84919977         7.48599618E-08
   4.86119986         5.64789140E-08
   4.87319994         6.31482564E-08
   4.88520002         9.19682677E-08
   4.89720011         1.39755485E-07
   4.90920019         2.03096675E-07
   4.92119980         2.78411562E-07
   4.93319988         3.62024650E-07
   4.94519997         4.50244528E-07
   4.95720005         5.39449672E-07
   4.96920013         6.26178064E-07
   4.98120022         7.07217737E-07
   4.99319983         7.79694460E-07
   5.00519991         8.41153337E-07
   5.01719999         8.89629518E-07
   5.02920008         9.23705784E-07
   5.04120016         9.42551651E-07
   5.05319977         9.45942759E-07
   5.06519985         9.34258310E-07
   5.07719994         9.08455490E-07
   5.08920002         8.70020244E-07
   5.10120010         8.20896730E-07
   5.11320019         7.63397509E-07
   5.12519979         7.00096848E-07
   5.13719988         6.33711977E-07
   5.14919996         5.66976837E-07
   5.16120005         5.02514183E-07
   5.17320013         4.42711467E-07
   5.18520021         3.89605844E-07
   5.19719982         3.44784411E-07
   5.20919991         3.09304454E-07
   5.22119999         2.83638116E-07
   5.23320007         2.67643827E-07
   5.24520016         2.60567504E-07
   5.25719976         2.61073268E-07
   5.26919985         2.67302738E-07
   5.28119993         2.76961600E-07
   5.29320002         2.87429032E-07
   5.30520010         2.95885201E-07
   5.31720018         2.99451955E-07
   5.32919979         2.95339788E-07
   5.34119987         2.80994840E-07
   5.35319996         2.54238188E-07
   5.36520004         2.13391630E-07
   5.37720013         1.57383141E-07
   5.38920021         8.58274234E-08
   5.40119982        -9.23088106E-10
   5.41319990        -1.01759611E-07
   5.42519999        -2.14831672E-07
   5.43720007        -3.37594912E-07
   5.44920015        -4.66890242E-07
   5.46120024        -5.99050395E-07
   5.47319984        -7.30029285E-07
   5.48519993        -8.55548251E-07
   5.49720001        -9.71252575E-07
   5.50920010        -1.07287042E-06
   5.52120018        -1.15636817E-06
   5.53319979        -1.21809364E-06
   5.54519987        -1.25490078E-06
   5.55719995        -1.26425289E-06
   5.56920004        -1.24429755E-06
   5.58120012        -1.19391291E-06
   5.59320021        -1.11272186E-06
   5.60519981        -1.00107798E-06
   5.61719990        -8.60023192E-07
   5.62919998        -6.91222397E-07
   5.64120007        -4.96879352E-07
   5.65320015        -2.79639920E-07
   5.66520023        -4.24884838E-08
   5.67719984         2.11356337E-07
   5.68919992         4.78541665E-07
   5.70120001         7.55670158E-07
   5.71320009         1.03937566E-06
   5.72520018         1.32638343E-06
   5.73719978         1.61355297E-06
   5.74919987         1.89790376E-06
   5.76119995         2.17662705E-06
   5.77320004         2.44708394E-06
   5.78520012         2.70679811E-06
   5.79720020         2.95344421E-06
   5.80919981         3.18483944E-06
   5.82119989         3.39893973E-06
   5.83319998         3.59384876E-06
   5.84520006         3.76783646E-06
   5.85720015         3.91937374E-06
   5.86920023         4.04717730E-06
   5.88119984         4.15026489E-06
   5.89319992         4.22802214E-06
   5.90520000         4.28026033E-06
   5.91720009         4.30727823E-06
   5.92920017         4.30990895E-06
   5.94119978         4.28954627E-06
   5.95319986         4.24815607E-06
   5.96519995         4.18824902E-06
   5.97720003         4.11282736E-06
   5.98920012         4.02530122E-06
   6.00120020         3.92936954E-06
   6.01319981         3.82888084E-06
   6.02519989         3.72766908E-06
   6.03719997         3.62937840E-06
   6.04920006         3.53728797E-06
   6.06120014         3.45414242E-06
   6.07320023         3.38200311E-06
   6.08519983         3.32212744E-06
   6.09719992         3.27488715E-06
   6.10920000         3.23972949E-06
   6.12120008         3.21519087E-06
   6.13320017         3.19895776E-06
   6.14519978         3.18798152E-06
   6.15719986         3.17863532E-06
   6.16919994         3.16691012E-06
   6.18120003         3.14863928E-06
   6.19320011         3.11974009E-06
   6.20520020         3.07645723E-06
   6.21719980         3.01559680E-06
   6.22919989         2.93473568E-06
   6.24119997         2.83239365E-06
   6.25320005         2.70815917E-06
   6.26520014         2.56275780E-06
   6.27720022         2.39805922E-06
   6.28919983         2.21702226E-06
   6.30119991         2.02357432E-06
   6.31320000         1.82243423E-06
   6.32520008         1.61888511E-06
   6.33720016         1.41850649E-06
   6.34919977         1.22688004E-06
   6.36119986         1.04928722E-06
   6.37319994         8.90408558E-07
   6.38520002         7.54050518E-07
   6.39720011         6.42906173E-07
   6.40920019         5.58370118E-07
   6.42119980         5.00415695E-07
   6.43319988         4.67544680E-07
   6.44519997         4.56812245E-07
   6.45720005         4.63928103E-07
   6.46920013         4.83431052E-07
   6.48120022         5.08927940E-07
   6.49319983         5.33388686E-07
   6.50519991         5.49481683E-07
   6.51719999         5.49932508E-07
   6.52920008         5.27888574E-07
   6.54120016         4.77271669E-07
   6.55319977         3.93097139E-07
   6.56519985         2.71746160E-07
   6.57719994         1.11173236E-07
   6.58920002        -8.89583518E-08
   6.60120010        -3.27223660E-07
   6.61320019        -6.00465057E-07
   6.62519979        -9.03903356E-07
   6.63719988        -1.23132520E-06
   6.64919996        -1.57533532E-06
   6.66120005        -1.92766106E-06
   6.67320013        -2.27949636E-06
   6.68520021        -2.62186586E-06
   6.69719982        -2.94599022E-06
   6.70919991        -3.24364032E-06
   6.72119999        -3.50746154E-06
   6.73320007        -3.73125272E-06
   6.74520016        -3.91019603E-06
   6.75719976        -4.04102275E-06
   6.76919985        -4.12211602E-06
   6.78119993        -4.15355044E-06
   6.79320002        -4.13706857E-06
   6.80520010        -4.07599919E-06
   6.81720018        -3.97512576E-06
   6.82919979        -3.84051964E-06
   6.84119987        -3.67933353E-06
   6.85319996        -3.49957986E-06
   6.86520004        -3.30989087E-06
   6.87720013        -3.11927556E-06
   6.88920021        -2.93687799E-06
   6.90119982        -2.77174195E-06
   6.91319990        -2.63258903E-06
   6.92519999        -2.52760742E-06
   6.93720007        -2.46425907E-06
   6.94920015        -2.44910484E-06
   6.96120024        -2.48764513E-06
   6.97319984        -2.58418049E-06
   6.98519993        -2.74169179E-06
   6.99720001        -2.96173698E-06
   7.00920010        -3.24437360E-06
   7.02120018        -3.58810189E-06
   7.03319979        -3.98983593E-06
   7.04519987        -4.44490433E-06
   7.05719995        -4.94708684E-06
   7.06920004        -5.48868456E-06
   7.08120012        -6.06063531E-06
   7.09320021        -6.65266634E-06
   7.10519981        -7.25349446E-06
   7.11719990        -7.85106295E-06
   7.12919998        -8.43282305E-06
   7.14120007        -8.98604230E-06
   7.15320015        -9.49815239E-06
   7.16520023        -9.95709888E-06
   7.17719984        -1.03517159E-05
   7.18919992        -1.06720809E-05
   7.20120001        -1.09098692E-05
   7.21320009        -1.10586570E-05
   7.22520018        -1.11141999E-05
   7.23719978        -1.10746341E-05
   7.24919987        -1.09406164E-05
   7.26119995        -1.07153819E-05
   7.27320004        -1.04047112E-05
   7.28520012        -1.00168063E-05
   7.29720020        -9.56207896E-06
   7.30919981        -9.05284287E-06
   7.32119989        -8.50293600E-06
   7.33319998        -7.92726951E-06
   7.34520006        -7.34132755E-06
   7.35720015        -6.76063155E-06
   7.36920023        -6.20019864E-06
   7.38119984        -5.67400593E-06
   7.39319992        -5.19449259E-06
   7.40520000        -4.77211370E-06
   7.41720009        -4.41497104E-06
   7.42920017        -4.12853205E-06
   7.44119978        -3.91545609E-06
   7.45319986        -3.77552760E-06
   7.46519995        -3.70570524E-06
   7.47720003        -3.70028260E-06
   7.48920012        -3.75115519E-06
   7.50120020        -3.84817668E-06
   7.51319981        -3.97959047E-06
   7.52519989        -4.13251973E-06
   7.53719997        -4.29348938E-06
   7.54920006        -4.44895841E-06
   7.56120014        -4.58584100E-06
   7.57320023        -4.69199131E-06
   7.58519983        -4.75663956E-06
   7.59719992        -4.77075673E-06
   7.60920000        -4.72733154E-06
   7.62120008        -4.62156868E-06
   7.63320017        -4.45098249E-06
   7.64519978        -4.21540335E-06
   7.65719986        -3.91689264E-06
   7.66919994        -3.55957172E-06
   7.68120003        -3.14938507E-06
   7.69320011        -2.69380484E-06
   7.70520020        -2.20148877E-06
   7.71719980        -1.68191775E-06
   7.72919989        -1.14502109E-06
   7.74119997        -6.00807141E-07
   7.75320005        -5.90144928E-08
   7.76520014         4.71203606E-07
   7.77720022         9.81554194E-07
   7.78919983         1.46481864E-06
   7.80119991         1.91502477E-06
   7.81320000         2.32755701E-06
   7.82520008         2.69920656E-06
   7.83720016         3.02816193E-06
   7.84919977         3.31395017E-06
   7.86119986         3.55732118E-06
   7.87319994         3.76009939E-06
   7.88520002         3.92500624E-06
   7.89720011         4.05545416E-06
   7.90920019         4.15533168E-06
   7.92119980         4.22878929E-06
   7.93319988         4.28003568E-06
   7.94519997         4.31313993E-06
   7.95720005         4.33186915E-06
   7.96920013         4.33954619E-06
   7.98120022         4.33894184E-06
   7.99319983         4.33220885E-06
   8.00520039         4.32084653E-06
   8.01720047         4.30569708E-06
   8.02919960         4.28698513E-06
   8.04119968         4.26438510E-06
   8.05319977         4.23712754E-06
   8.06519985         4.20412334E-06
   8.07719994         4.16411740E-06
   8.08920002         4.11584733E-06
   8.10120010         4.05821856E-06
   8.11320019         3.99046621E-06
   8.12520027         3.91231288E-06
   8.13720036         3.82410281E-06
   8.14920044         3.72691329E-06
   8.16119957         3.62262449E-06
   8.17319965         3.51395147E-06
   8.18519974         3.40442602E-06
   8.19719982         3.29832847E-06
   8.20919991         3.20056643E-06
   8.22119999         3.11650456E-06
   8.23320007         3.05174308E-06
   8.24520016         3.01185628E-06
   8.25720024         3.00209967E-06
   8.26920033         3.02709304E-06
   8.28120041         3.09050097E-06
   8.29319954         3.19472019E-06
   8.30519962         3.34059609E-06
   8.31719971         3.52718257E-06
   8.32919979         3.75156310E-06
   8.34119987         4.00874933E-06
   8.35319996         4.29166175E-06
   8.36520004         4.59121247E-06
   8.37720013         4.89648346E-06
   8.38920021         5.19500009E-06
   8.40120029         5.47310356E-06
   8.41320038         5.71640294E-06
   8.42520046         5.91029675E-06
   8.43719959         6.04053866E-06
   8.44919968         6.09383324E-06
   8.46119976         6.05843525E-06
   8.47319984         5.92471997E-06
   8.48519993         5.68569885E-06
   8.49720001         5.33746515E-06
   8.50920010         4.87952821E-06
   8.52120018         4.31502531E-06
   8.53320026         3.65080518E-06
   8.54520035         2.89734703E-06
   8.55720043         2.06854179E-06
   8.56919956         1.18131550E-06
   8.58119965         2.55117527E-07
   8.59319973        -6.88714579E-07
   8.60519981        -1.62769027E-06
   8.61719990        -2.53897383E-06
   8.62919998        -3.40023053E-06
   8.64120007        -4.19048047E-06
   8.65320015        -4.89091826E-06
   8.66520023        -5.48566459E-06
   8.67720032        -5.96242262E-06
   8.68920040        -6.31299008E-06
   8.70119953        -6.53362440E-06
   8.71319962        -6.62522370E-06
   8.72519970        -6.59331863E-06
   8.73719978        -6.44787633E-06
   8.74919987        -6.20291075E-06
   8.76119995        -5.87592376E-06
   8.77320004        -5.48719618E-06
   8.78520012        -5.05895241E-06
   8.79720020        -4.61444142E-06
   8.80920029        -4.17697220E-06
   8.82120037        -3.76894059E-06
   8.83320045        -3.41089753E-06
   8.84519958        -3.12069119E-06
   8.85719967        -2.91272818E-06
   8.86919975        -2.79738015E-06
   8.88119984        -2.78056268E-06
   8.89319992        -2.86350291E-06
   8.90520000        -3.04270839E-06
   8.91720009        -3.31013052E-06
   8.92920017        -3.65351934E-06
   8.94120026        -4.05695073E-06
   8.95320034        -4.50149901E-06
   8.96520042        -4.96602934E-06
   8.97719955        -5.42806947E-06
   8.98919964        -5.86472561E-06
   9.00119972        -6.25360508E-06
   9.01319981        -6.57370447E-06
   9.02519989        -6.80623225E-06
   9.03719997        -6.93533093E-06
   9.04920006        -6.94867185E-06
   9.06120014        -6.83790995E-06
   9.07320023        -6.59897660E-06
   9.08520031        -6.23220376E-06