 -0.622799993         1.00000002E-24
 -0.610800028         1.00000002E-24
 -0.598800004         1.00000002E-24
 -0.586799979         1.00000002E-24
 -0.574800014         1.00000002E-24
 -0.562799990         1.00000002E-24
 -0.550800025         1.00000012E-24
 -0.538800001         1.00000022E-24
 -0.526799977         1.00000032E-24
 -0.514800012         1.00000032E-24
 -0.502799988         1.00000032E-24
 -0.490799993         1.00000032E-24
 -0.478799999         1.00000032E-24
 -0.466800004         1.00000032E-24
 -0.454800010         1.00000022E-24
 -0.442799985         1.00000012E-24
 -0.430799991         1.00000012E-24
 -0.418799996         1.00000002E-24
 -0.406800002         9.99999724E-25
 -0.394800007         9.99998935E-25
 -0.382800013         9.99997160E-25
 -0.370799989         9.99993610E-25
 -0.358799994         9.99987595E-25
 -0.346799999         9.99979016E-25
 -0.334800005         9.99968761E-25
 -0.322800010         9.99959295E-25
 -0.310799986         9.99955252E-25
 -0.298799992         9.99962844E-25
 -0.286799997         9.99990948E-25
 -0.274800003         1.00005120E-24
 -0.262800008         1.00015602E-24
 -0.250800014         1.00030856E-24
 -0.238800004         1.00047511E-24
 -0.226799995         1.00053852E-24
 -0.214800000         1.00025640E-24
 -0.202800006         9.99279494E-25
 -0.190799996         9.97320160E-25
 -0.178800002         9.94524043E-25
 -0.166800007         9.91975431E-25
 -0.154799998         9.92029369E-25
 -0.142800003         9.97936655E-25
 -0.130799994         1.01221947E-24
 -0.118799999         1.03373763E-24
 -0.106799997         1.05443675E-24
  -9.48000029E-02     1.05810416E-24
  -8.28000009E-02     1.02421578E-24
  -7.07999989E-02     9.38983206E-25
  -5.88000007E-02     8.12179979E-25
  -4.67999987E-02     6.92676081E-25
  -3.48000005E-02     6.70247237E-25
  -2.28000004E-02     8.50279150E-25
  -1.08000003E-02     1.29562150E-24
   1.20000006E-03     1.94742759E-24
   1.31999999E-02     2.56002048E-24
   2.52000000E-02     2.70273429E-24
   3.72000001E-02     1.87951554E-24
   4.91999984E-02    -2.17240682E-25
   6.12000003E-02    -3.36938783E-24
   7.32000023E-02    -6.54629122E-24
   8.51999968E-02    -7.86710786E-24
   9.71999988E-02    -5.01205064E-24
  0.109200001         3.81666683E-24
  0.121200003         1.84958489E-23
  0.133200005         3.55528440E-23
  0.145199999         4.74183975E-23
  0.157199994         4.32500059E-23
  0.169200003         1.21027908E-23
  0.181199998        -5.13463568E-23
  0.193200007        -1.39443231E-22
  0.205200002        -2.25081378E-22
  0.217199996        -2.60243294E-22
  0.229200006        -1.84491329E-22
  0.241200000         5.28833892E-23
  0.253199995         4.57718908E-22
  0.265199989         9.51290925E-22
  0.277200013         1.34413386E-21
  0.289200008         1.34881270E-21
  0.301200002         6.56015770E-22
  0.313199997        -9.17526164E-22
  0.325199991        -3.23408636E-21
  0.337199986        -5.66300610E-21
  0.349200010        -7.04228777E-21
  0.361200005        -5.89342518E-21
  0.373199999        -9.59073006E-22
  0.385199994         7.99081029E-21
  0.397199988         1.93199890E-20
  0.409200013         2.90689814E-20
  0.421200007         3.13740462E-20
  0.433200002         2.01275952E-20
  0.445199996        -8.15644836E-21
  0.457199991        -5.09457567E-20
  0.469199985        -9.71227912E-20
  0.481200010        -1.27027244E-19
  0.493200004        -1.16662025E-19
  0.505200028        -4.64886103E-20
  0.517199993         8.67498171E-20
  0.529200017         2.59086771E-19
  0.541199982         4.14943806E-19
  0.553200006         4.74972071E-19
  0.565199971         3.59115991E-19
  0.577199996         2.23860649E-20
  0.589200020        -5.06348427E-19
  0.601199985        -1.09857795E-18
  0.613200009        -1.53156678E-18
  0.625199974        -1.53809044E-18
  0.637199998        -9.00212182E-19
  0.649200022         4.32829959E-19
  0.661199987         2.24249967E-18
  0.673200011         4.00602413E-18
  0.685199976         4.97435815E-18
  0.697200000         4.38076465E-18
  0.709200025         1.74993926E-18
  0.721199989        -2.77776845E-18
  0.733200014        -8.23502968E-18
  0.745199978        -1.28635039E-17
  0.757200003        -1.44846489E-17
  0.769200027        -1.11913550E-17
  0.781199992        -2.21070016E-18
  0.793200016         1.13386428E-17
  0.805199981         2.61343347E-17
  0.817200005         3.70745626E-17
  0.829200029         3.85475132E-17
  0.841199994         2.63652322E-17
  0.853200018        -1.39442385E-19
  0.865199983        -3.65909664E-17
  0.877200007        -7.33954644E-17
  0.889199972        -9.74331808E-17
  0.901199996        -9.56140717E-17
  0.913200021        -5.95997065E-17
  0.925199986         9.65305465E-18
  0.937200010         9.92205262E-17
  0.949199975         1.84942047E-16
  0.961199999         2.36314251E-16
  0.973200023         2.25055966E-16
  0.985199988         1.35418956E-16
  0.997200012        -2.68183634E-17
   1.00919998        -2.30109629E-16
   1.02119994        -4.20362176E-16
   1.03320003        -5.32499174E-16
   1.04519999        -5.08658002E-16
   1.05719995        -3.18698529E-16
   1.06920004         2.30891768E-17
   1.08120000         4.51358552E-16
   1.09319997         8.57593225E-16
   1.10520005         1.11326684E-15
   1.11720002         1.10437119E-15
   1.12919998         7.69061817E-16
   1.14119995         1.27583583E-16
   1.15320003        -7.06063477E-16
   1.16520000        -1.53767471E-15
   1.17719996        -2.13227987E-15
   1.18920004        -2.27264234E-15
   1.20120001        -1.82335785E-15
   1.21319997        -7.83406638E-16
   1.22520006         6.89249926E-16
   1.23720002         2.29199048E-15
   1.24919999         3.63256432E-15
   1.26119995         4.31594288E-15
   1.27320004         4.04468736E-15
   1.28520000         2.70901550E-15
   1.29719996         4.42880123E-16
   1.30920005        -2.37155884E-15
   1.32120001        -5.15790845E-15
   1.33319998        -7.25173621E-15
   1.34519994        -8.04043908E-15
   1.35720003        -7.10943213E-15
   1.36919999        -4.36387393E-15
   1.38119996        -9.77900729E-17
   1.39320004         5.00944094E-15
   1.40520000         9.97725106E-15
   1.41719997         1.36825696E-14
   1.42920005         1.50727345E-14
   1.44120002         1.33998673E-14
   1.45319998         8.43480830E-15
   1.46519995         6.14806795E-16
   1.47720003        -8.91795759E-15
   1.48920000        -1.84183401E-14
   1.50119996        -2.57910995E-14
   1.51320004        -2.89757537E-14
   1.52520001        -2.64103501E-14
   1.53719997        -1.74888790E-14
   1.54920006        -2.90539543E-15
   1.56120002         1.52234538E-14
   1.57319999         3.35403363E-14
   1.58519995         4.79622513E-14
   1.59720004         5.44810236E-14
   1.60920000         5.01177841E-14
   1.62119997         3.38296353E-14
   1.63320005         7.13302793E-15
   1.64520001        -2.57706047E-14
   1.65719998        -5.84984399E-14
   1.66919994        -8.36148980E-14
   1.68120003        -9.42188019E-14
   1.69319999        -8.56728967E-14
   1.70519996        -5.70659852E-14
   1.71720004        -1.19967648E-14
   1.72920001         4.16242053E-14
   1.74119997         9.28527139E-14
   1.75320005         1.29904456E-13
   1.76520002         1.42841508E-13
   1.77719998         1.26145961E-13
   1.78919995         8.05267311E-14
   1.80120003         1.34219409E-14
   1.81320000        -6.20719296E-14
   1.82519996        -1.29744211E-13
   1.83720005        -1.73807881E-13
   1.84920001        -1.82657586E-13
   1.86119998        -1.51951436E-13
   1.87320006        -8.62129311E-14
   1.88520002         1.55092040E-15
   1.89719999         9.22745563E-14
   1.90919995         1.64876020E-13
   1.92120004         2.01080973E-13
   1.93320000         1.89960989E-13
   1.94519997         1.31123126E-13
   1.95720005         3.57309634E-14
   1.96920002        -7.50334650E-14
   1.98119998        -1.73931887E-13
   1.99319994        -2.33409429E-13
   2.00519991        -2.32059326E-13
   2.01719999        -1.60535065E-13
   2.02920008        -2.56156926E-14
   2.04119992         1.48665504E-13
   2.05320001         3.23517363E-13
   2.06520009         4.51627586E-13
   2.07719994         4.86559198E-13
   2.08920002         3.93981126E-13
   2.10120010         1.62718702E-13
   2.11319995        -1.86865646E-13
   2.12520003        -5.99735051E-13
   2.13720012        -9.90383990E-13
   2.14919996        -1.25536376E-12
   2.16120005        -1.29338532E-12
   2.17319989        -1.03019145E-12
   2.18519998        -4.43413779E-13
   2.19720006         4.18675104E-13
   2.20919991         1.43069595E-12
   2.22119999         2.40064414E-12
   2.23320007         3.09883130E-12
   2.24519992         3.30247244E-12
   2.25720000         2.84848143E-12
   2.26920009         1.68334086E-12
   2.28119993        -1.02656687E-13
   2.29320002        -2.26803450E-12
   2.30520010        -4.44617867E-12
   2.31719995        -6.20409583E-12
   2.32920003        -7.12485756E-12
   2.34120011        -6.89740452E-12
   2.35319996        -5.39327914E-12
   2.36520004        -2.71052798E-12
   2.37719989         8.28979951E-13
   2.38919997         4.73214783E-12
   2.40120006         8.42791028E-12
   2.41319990         1.13803524E-11
   2.42519999         1.31937542E-11
   2.43720007         1.36813998E-11
   2.44919991         1.28776885E-11
   2.46120000         1.09875112E-11
   2.47320008         8.28490488E-12
   2.48519993         4.98994986E-12
   2.49720001         1.16412587E-12
   2.50920010        -3.33421637E-12
   2.52119994        -8.80242754E-12
   2.53320003        -1.55424146E-11
   2.54520011        -2.36206020E-11
   2.55719995        -3.25808477E-11
   2.56920004        -4.11740954E-11
   2.58119988        -4.71792432E-11
   2.59319997        -4.73878402E-11
   2.60520005        -3.78098802E-11
   2.61719990        -1.41338287E-11
   2.62919998         2.75545940E-11
   2.64120007         8.98169733E-11
   2.65319991         1.72713885E-10
   2.66520000         2.72521172E-10
   2.67720008         3.80377424E-10
   2.68919992         4.80932238E-10
   2.70120001         5.51071466E-10
   2.71320009         5.58795288E-10
   2.72519994         4.62320626E-10
   2.73720002         2.09456494E-10
   2.74920011        -2.62768168E-10
   2.76119995        -1.02835895E-09
   2.77320004        -2.17283325E-09
   2.78520012        -3.79455845E-09
   2.79719996        -6.00796612E-09
   2.80920005        -8.95013841E-09
   2.82119989        -1.27927553E-08
   2.83319998        -1.77619288E-08
   2.84520006        -2.41688642E-08
   2.85719991        -3.24545759E-08
   2.86919999        -4.32520650E-08
   2.88120008        -5.74689381E-08
   2.89319992        -7.63931567E-08
   2.90520000        -1.01823389E-07
   2.91720009        -1.36224088E-07
   2.92919993        -1.82903790E-07
   2.94120002        -2.46212323E-07
   2.95320010        -3.31750584E-07
   2.96519995        -4.46583527E-07
   2.97720003        -5.99443638E-07
   2.98920012        -8.00910357E-07
   3.00119996        -1.06354742E-06
   3.01320004        -1.40197903E-06
   3.02519989        -1.83288421E-06
   3.03719997        -2.37489030E-06
   3.04920006        -3.04834703E-06
   3.06119990        -3.87496675E-06
   3.07319999        -4.87731995E-06
   3.08520007        -6.07818447E-06
   3.09719992        -7.49975061E-06
   3.10920000        -9.16269710E-06
   3.12120008        -1.10851624E-05
   3.13319993        -1.32816376E-05
   3.14520001        -1.57618306E-05
   3.15720010        -1.85295394E-05
   3.16919994        -2.15816090E-05
   3.18120003        -2.49070035E-05
   3.19320011        -2.84860780E-05
   3.20519996        -3.22900996E-05
   3.21720004        -3.62810606E-05
   3.22919989        -4.04118255E-05
   3.24119997        -4.46266786E-05
   3.25320005        -4.88622354E-05
   3.26519990        -5.30487268E-05
   3.27719998        -5.71116798E-05
   3.28920007        -6.09738709E-05
   3.30119991        -6.45575929E-05
   3.31320000        -6.77870339E-05
   3.32520008        -7.05908096E-05
   3.33719993        -7.29044332E-05
   3.34920001        -7.46727019E-05
   3.36120009        -7.58518145E-05
   3.37319994        -7.64112046E-05
   3.38520002        -7.63349017E-05
   3.39720011        -7.56224254E-05
   3.40919995        -7.42891061E-05
   3.42120004        -7.23658668E-05
   3.43319988        -6.98983422E-05
   3.44519997        -6.69454967E-05
   3.45720005        -6.35777396E-05
   3.46919990        -5.98745355E-05
   3.48119998        -5.59217769E-05
   3.49320006        -5.18088782E-05
   3.50519991        -4.76258283E-05
   3.51719999        -4.34602371E-05
   3.52920008        -3.93946320E-05
   3.54119992        -3.55039956E-05
   3.55320001        -3.18537277E-05
   3.56520009        -2.84980888E-05
   3.57719994        -2.54791794E-05
   3.58920002        -2.28264635E-05
   3.60120010        -2.05568540E-05
   3.61319995        -1.86752950E-05
   3.62520003        -1.71758038E-05
   3.63720012        -1.60428626E-05
   3.64919996        -1.52530811E-05
   3.66120005        -1.47769952E-05
   3.67319989        -1.45809345E-05
   3.68519998        -1.46288057E-05
   3.69720006        -1.48837371E-05
   3.70919991        -1.53094861E-05
   3.72119999        -1.58715739E-05
   3.73320007        -1.65381116E-05
   3.74519992        -1.72803157E-05
   3.75720000        -1.80727293E-05
   3.76920009        -1.88931972E-05
   3.78119993        -1.97226400E-05
   3.79320002        -2.05446959E-05
   3.80520010        -2.13453022E-05
   3.81719995        -2.21122627E-05
   3.82920003        -2.28348836E-05
   3.84120011        -2.35036950E-05
   3.85319996        -2.41103116E-05
   3.86520004        -2.46474101E-05
   3.87719989        -2.51088550E-05
   3.88919997        -2.54899205E-05
   3.90120006        -2.57876090E-05
   3.91319990        -2.60009765E-05
   3.92519999        -2.61314781E-05
   3.93720007        -2.61832338E-05
   3.94919991        -2.61632122E-05
   3.96120000        -2.60812649E-05
   3.97320008        -2.59500139E-05
   3.98519993        -2.57845786E-05
   3.99720001        -2.56021103E-05
   4.00920010        -2.54212118E-05
   4.02120018        -2.52612008E-05
   4.03319979        -2.51413203E-05
   4.04519987        -2.50799021E-05
   4.05719995        -2.50935445E-05
   4.06920004        -2.51963538E-05
   4.08120012        -2.53993185E-05
   4.09320021        -2.57098163E-05
   4.10519981        -2.61313435E-05
   4.11719990        -2.66634379E-05
   4.12919998        -2.73018322E-05
   4.14120007        -2.80388267E-05
   4.15320015        -2.88638585E-05
   4.16520023        -2.97642400E-05
   4.17719984        -3.07260125E-05
   4.18919992        -3.17348786E-05
   4.20120001        -3.27771595E-05
   4.21320009        -3.38407008E-05
   4.22520018        -3.49156726E-05
   4.23719978        -3.59952646E-05
   4.24919987        -3.70761300E-05
   4.26119995        -3.81586651E-05
   4.27320004        -3.92470065E-05
   4.28520012        -4.03487975E-05
   4.29720020        -4.14747192E-05
   4.30919981        -4.26377846E-05
   4.32119989        -4.38525094E-05
   4.33319998        -4.51339110E-05
   4.34520006        -4.64964687E-05
   4.35720015        -4.79530972E-05
   4.36920023        -4.95141685E-05
   4.38119984        -5.11866747E-05
   4.39319992        -5.29735626E-05
   4.40520000        -5.48733224E-05
   4.41720009        -5.68797877E-05
   4.42920017        -5.89822157E-05
   4.44119978        -6.11656214E-05
   4.45319986        -6.34113312E-05
   4.46519995        -6.56977718E-05
   4.47720003        -6.80013254E-05
   4.48920012        -7.02973412E-05
   4.50120020        -7.25611389E-05
   4.51319981        -7.47689846E-05
   4.52519989        -7.68989703E-05
   4.53719997        -7.89317201E-05
   4.54920006        -8.08509503E-05
   4.56120014        -8.26437827E-05
   4.57320023        -8.43008456E-05
   4.58519983        -8.58161147E-05
   4.59719992        -8.71866287E-05
   4.60920000        -8.84119509E-05
   4.62120008        -8.94935438E-05
   4.63320017        -9.04340704E-05
   4.64519978        -9.12366886E-05
   4.65719986        -9.19043741E-05
   4.66919994        -9.24393462E-05
   4.68120003        -9.28426380E-05
   4.69320011        -9.31138638E-05
   4.70520020        -9.32511757E-05
   4.71719980        -9.32514231E-05
   4.72919989        -9.31105096E-05
   4.74119997        -9.28239824E-05
   4.75320005        -9.23876723E-05
   4.76520014        -9.17984871E-05
   4.77720022        -9.10552772E-05
   4.78919983        -9.01596213E-05
   4.80119991        -8.91165546E-05
   4.81320000        -8.79352738E-05
   4.82520008        -8.66295304E-05
   4.83720016        -8.52179437E-05
   4.84919977        -8.37240004E-05
   4.86119986        -8.21758440E-05
   4.87319994        -8.06057360E-05
   4.88520002        -7.90493359E-05
   4.89720011        -7.75446606E-05
   4.90920019        -7.61308620E-05
   4.92119980        -7.48467864E-05
   4.93319988        -7.37294613E-05
   4.94519997        -7.28124724E-05
   4.95720005        -7.21243050E-05
   4.96920013        -7.16868453E-05
   4.98120022        -7.15139249E-05
   4.99319983        -7.16101786E-05
   5.00519991        -7.19701202E-05
   5.01719999        -7.25776699E-05
   5.02920008        -7.34060741E-05
   5.04120016        -7.44182689E-05
   5.05319977        -7.55678193E-05
   5.06519985        -7.68002647E-05
   5.07719994        -7.80550035E-05
   5.08920002        -7.92675710E-05
   5.10120010        -8.03722651E-05
   5.11320019        -8.13050065E-05
   5.12519979        -8.20062996E-05
   5.13719988        -8.24242161E-05
   5.14919996        -8.25171155E-05
   5.16120005        -8.22560978E-05
   5.17320013        -8.16269603E-05
   5.18520021        -8.06315584E-05
   5.19719982        -7.92884457E-05
   5.20919991        -7.76327579E-05
   5.22119999        -7.57153030E-05
   5.23320007        -7.36008369E-05
   5.24520016        -7.13655973E-05
   5.25719976        -6.90942616E-05
   5.26919985        -6.68763023E-05
   5.28119993        -6.48020359E-05
   5.29320002        -6.29585120E-05
   5.30520010        -6.14253659E-05
   5.31720018        -6.02709515E-05
   5.32919979        -5.95488455E-05
   5.34119987        -5.92948709E-05
   5.35319996        -5.95249148E-05
   5.36520004        -6.02334330E-05
   5.37720013        -6.13929151E-05
   5.38920021        -6.29541246E-05
   5.40119982        -6.48472851E-05
   5.41319990        -6.69839501E-05
   5.42519999        -6.92595931E-05
   5.43720007        -7.15567730E-05
   5.44920015        -7.37486262E-05
   5.46120024        -7.57026573E-05
   5.47319984        -7.72846543E-05
   5.48519993        -7.83624346E-05
   5.49720001        -7.88095494E-05
   5.50920010        -7.85085795E-05
   5.52120018        -7.73541105E-05
   5.53319979        -7.52552151E-05
   5.54519987        -7.21374963E-05
   5.55719995        -6.79446821E-05
   5.56920004        -6.26396504E-05
   5.58120012        -5.62051428E-05
   5.59320021        -4.86440222E-05
   5.60519981        -3.99792370E-05
   5.61719990        -3.02535045E-05
   5.62919998        -1.95287193E-05
   5.64120007        -7.88521447E-06
   5.65320015         4.57919759E-06
   5.66520023         1.77503625E-05
   5.67719984         3.14990903E-05
   5.68919992         4.56826820E-05
   5.70120001         6.01466854E-05
   5.71320009         7.47268859E-05
   5.72520018         8.92515673E-05
   5.73719978         1.03544080E-04
   5.74919987         1.17425596E-04
   5.76119995         1.30718166E-04
   5.77320004         1.43247918E-04
   5.78520012         1.54848385E-04
   5.79720020         1.65363876E-04
   5.80919981         1.74652683E-04
   5.82119989         1.82590273E-04
   5.83319998         1.89072001E-04
   5.84520006         1.94015549E-04
   5.85720015         1.97362882E-04
   5.86920023         1.99081682E-04
   5.88119984         1.99166054E-04
   5.89319992         1.97636764E-04
   5.90520000         1.94540713E-04
   5.91720009         1.89949991E-04
   5.92920017         1.83960059E-04
   5.94119978         1.76687696E-04
   5.95319986         1.68268292E-04
   5.96519995         1.58852883E-04
   5.97720003         1.48604755E-04
   5.98920012         1.37695984E-04
   6.00120020         1.26303828E-04
   6.01319981         1.14607043E-04
   6.02519989         1.02782265E-04
   6.03719997         9.10005983E-05
   6.04920006         7.94243606E-05
   6.06120014         6.82041136E-05
   6.07320023         5.74760561E-05
   6.08519983         4.73598338E-05
   6.09719992         3.79567937E-05
   6.10920000         2.93487446E-05
   6.12120008         2.15972614E-05
   6.13320017         1.47435112E-05
   6.14519978         8.80863900E-06
   6.15719986         3.79464109E-06
   6.16919994        -3.14274786E-07
   6.18120003        -3.54993585E-06
   6.19320011        -5.95811525E-06
   6.20520020        -7.59620752E-06
   6.21719980        -8.53076199E-06
   6.22919989        -8.83496978E-06
   6.24119997        -8.58621570E-06
   6.25320005        -7.86375404E-06
   6.26520014        -6.74662988E-06
   6.27720022        -5.31185242E-06
   6.28919983        -3.63290951E-06
   6.30119991        -1.77860920E-06
   6.31320000         1.87730677E-07
   6.32520008         2.20876723E-06
   6.33720016         4.23332540E-06
   6.34919977         6.21633444E-06
   6.36119986         8.11856262E-06
   6.37319994         9.90619537E-06
   6.38520002         1.15503199E-05
   6.39720011         1.30263516E-05
   6.40920019         1.43134603E-05
   6.42119980         1.53940291E-05
   6.43319988         1.62531705E-05
   6.44519997         1.68783299E-05
   6.45720005         1.72589862E-05
   6.46920013         1.73864573E-05
   6.48120022         1.72538275E-05
   6.49319983         1.68559545E-05
   6.50519991         1.61895914E-05
   6.51719999         1.52535831E-05
   6.52920008         1.40491147E-05
   6.54120016         1.25800134E-05
   6.55319977         1.08530494E-05
   6.56519985         8.87822807E-06
   6.57719994         6.66903088E-06
   6.58920002         4.24258087E-06
   6.60120010         1.61970479E-06
   6.61320019        -1.17513036E-06
   6.62519979        -4.11402016E-06
   6.63719988        -7.16597151E-06
   6.64919996        -1.02973872E-05
   6.66120005        -1.34726915E-05
   6.67320013        -1.66550471E-05
   6.68520021        -1.98071593E-05
   6.69719982        -2.28921217E-05
   6.70919991        -2.58742548E-05
   6.72119999        -2.87199382E-05
   6.73320007        -3.13983364E-05
   6.74520016        -3.38820464E-05
   6.75719976        -3.61476268E-05
   6.76919985        -3.81759855E-05
   6.78119993        -3.99526143E-05
   6.79320002        -4.14677124E-05
   6.80520010        -4.27161976E-05
   6.81720018        -4.36976006E-05
   6.82919979        -4.44158904E-05
   6.84119987        -4.48792780E-05
   6.85319996        -4.50999833E-05
   6.86520004        -4.50939806E-05
   6.87720013        -4.48807841E-05
   6.88920021        -4.44831785E-05
   6.90119982        -4.39269679E-05
   6.91319990        -4.32407214E-05
   6.92519999        -4.24554273E-05
   6.93720007        -4.16040675E-05
   6.94920015        -4.07211337E-05
   6.96120024        -3.98419652E-05
   6.97319984        -3.90019741E-05
   6.98519993        -3.82357102E-05
   6.99720001        -3.75758063E-05
   7.00920010        -3.70518246E-05
   7.02120018        -3.66890345E-05
   7.03319979        -3.65072265E-05
   7.04519987        -3.65196138E-05
   7.05719995        -3.67318789E-05
   7.06920004        -3.71415117E-05
   7.08120012        -3.77374381E-05
   7.09320021        -3.85000385E-05
   7.10519981        -3.94015915E-05
   7.11719990        -4.04071434E-05
   7.12919998        -4.14757633E-05
   7.14120007        -4.25621838E-05
   7.15320015        -4.36187183E-05
   7.16520023        -4.45973674E-05
   7.17719984        -4.54520305E-05
   7.18919992        -4.61406707E-05
   7.20120001        -4.66273123E-05
   7.21320009        -4.68838116E-05
   7.22520018        -4.68912294E-05
   7.23719978        -4.66407910E-05
   7.24919987        -4.61343407E-05
   7.26119995        -4.53842913E-05
   7.27320004        -4.44130601E-05
   7.28520012        -4.32520283E-05
   7.29720020        -4.19401076E-05
   7.30919981        -4.05219325E-05
   7.32119989        -3.90458554E-05
   7.33319998        -3.75617892E-05
   7.34520006        -3.61190505E-05
   7.35720015        -3.47642708E-05
   7.36920023        -3.35395380E-05
   7.38119984        -3.24807406E-05
   7.39319992        -3.16163096E-05
   7.40520000        -3.09663264E-05
   7.41720009        -3.05419853E-05
   7.42920017        -3.03455381E-05
   7.44119978        -3.03705419E-05
   7.45319986        -3.06025104E-05
   7.46519995        -3.10198484E-05
   7.47720003        -3.15950492E-05
   7.48920012        -3.22960332E-05
   7.50120020        -3.30876501E-05
   7.51319981        -3.39331746E-05
   7.52519989        -3.47958012E-05
   7.53719997        -3.56400233E-05
   7.54920006        -3.64328516E-05
   7.56120014        -3.71448332E-05
   7.57320023        -3.77508113E-05
   7.58519983        -3.82304206E-05
   7.59719992        -3.85683197E-05
   7.60920000        -3.87541586E-05
   7.62120008        -3.87823020E-05
   7.63320017        -3.86514112E-05
   7.64519978        -3.83638471E-05
   7.65719986        -3.79250414E-05
   7.66919994        -3.73428338E-05
   7.68120003        -3.66268869E-05
   7.69320011        -3.57881763E-05
   7.70520020        -3.48386202E-05
   7.71719980        -3.37908859E-05
   7.72919989        -3.26583358E-05
   7.74119997        -3.14551289E-05
   7.75320005        -3.01964646E-05
   7.76520014        -2.88988631E-05
   7.77720022        -2.75804996E-05
   7.78919983        -2.62614813E-05
   7.80119991        -2.49640361E-05
   7.81320000        -2.37125223E-05
   7.82520008        -2.25332460E-05
   7.83720016        -2.14540378E-05
   7.84919977        -2.05035958E-05
   7.86119986        -1.97105892E-05
   7.87319994        -1.91025883E-05
   7.88520002        -1.87048590E-05
   7.89720011        -1.85391273E-05
   7.90920019        -1.86223588E-05
   7.92119980        -1.89656967E-05
   7.93319988        -1.95735847E-05
   7.94519997        -2.04431872E-05
   7.95720005        -2.15641467E-05
   7.96920013        -2.29186771E-05
   7.98120022        -2.44820349E-05
   7.99319983        -2.62233025E-05
   8.00520039        -2.81064640E-05
   8.01720047        -3.00917000E-05
   8.02919960        -3.21367806E-05
   8.04119968        -3.41985833E-05
   8.05319977        -3.62344945E-05
   8.06519985        -3.82037506E-05
   8.07719994        -4.00686076E-05
   8.08920002        -4.17952651E-05
   8.10120010        -4.33545829E-05
   8.11320019        -4.47225138E-05
   8.12520027        -4.58803188E-05
   8.13720036        -4.68145699E-05
   8.14920044        -4.75169691E-05
   8.16119957        -4.79840819E-05
   8.17319965        -4.82169453E-05
   8.18519974        -4.82207106E-05
   8.19719982        -4.80042218E-05
   8.20919991        -4.75796805E-05
   8.22119999        -4.69623155E-05
   8.23320007        -4.61700874E-05
   8.24520016        -4.52234381E-05
   8.25720024        -4.41450102E-05
   8.26920033        -4.29593492E-05
   8.28120041        -4.16925395E-05
   8.29319954        -4.03717495E-05
   8.30519962        -3.90246751E-05
   8.31719971        -3.76788958E-05
   8.32919979        -3.63610779E-05
   8.34119987        -3.50961491E-05
   8.35319996        -3.39063990E-05
   8.36520004        -3.28106034E-05
   8.37720013        -3.18232160E-05
   8.38920021        -3.09536445E-05
   8.40120029        -3.02057542E-05
   8.41320038        -2.95775790E-05
   8.42520046        -2.90613025E-05
   8.43719959        -2.86435534E-05
   8.44919968        -2.83059726E-05
   8.46119976        -2.80260992E-05
   8.47319984        -2.77784948E-05
   8.48519993        -2.75360635E-05
   8.49720001        -2.72715060E-05
   8.50920010        -2.69588400E-05
   8.52120018        -2.65748749E-05
   8.53320026        -2.61005716E-05
   8.54520035        -2.55222312E-05
   8.55720043        -2.48323904E-05
   8.56919956        -2.40304416E-05
   8.58119965        -2.31228769E-05
   8.59319973        -2.21231967E-05
   8.60519981        -2.10514736E-05
   8.61719990        -1.99335773E-05
   8.62919998        -1.88001413E-05
   8.64120007        -1.76853082E-05
   8.65320015        -1.66253049E-05
   8.66520023        -1.56569404E-05
   8.67720032        -1.48160689E-05
   8.68920040        -1.41361024E-05
   8.70119953        -1.36466115E-05
   8.71319962        -1.33720741E-05
   8.72519970        -1.33308222E-05
   8.73719978        -1.35342198E-05
   8.74919987        -1.39861022E-05
   8.76119995        -1.46825096E-05
   8.77320004        -1.56117203E-05
   8.78520012        -1.67546041E-05
   8.79720020        -1.80852621E-05
   8.80920029        -1.95719622E-05
   8.82120037        -2.11783208E-05
   8.83320045        -2.28646677E-05
   8.84519958        -2.45895390E-05
   8.85719967        -2.63112597E-05
   8.86919975        -2.79894593E-05
   8.88119984        -2.95865411E-05
   8.89319992        -3.10689466E-05
   8.90520000        -3.24081957E-05
   8.91720009        -3.35816621E-05
   8.92920017        -3.45730077E-05
   8.94120026        -3.53722789E-05
   8.95320034        -3.59757032E-05
   8.96520042        -3.63851905E-05
   8.97719955        -3.66075765E-05
   8.98919964        -3.66536915E-05
   9.00119972        -3.65373671E-05
   9.01319981        -3.62743885E-05
   9.02519989        -3.58815560E-05
   9.03719997        -3.53758660E-05
   9.04920006        -3.47738896E-05
   9.06120014        -3.40913648E-05
   9.07320023        -3.33430362E-05
   9.08520031        -3.25426336E-05