 -0.622799993         1.00000002E-24
 -0.610800028         1.00000002E-24
 -0.598800004         1.00000002E-24
 -0.586799979         1.00000002E-24
 -0.574800014         1.00000002E-24
 -0.562799990         1.00000002E-24
 -0.550800025         1.00000002E-24
 -0.538800001         1.00000002E-24
 -0.526799977         1.00000002E-24
 -0.514800012         1.00000012E-24
 -0.502799988         1.00000022E-24
 -0.490799993         1.00000032E-24
 -0.478799999         1.00000032E-24
 -0.466800004         1.00000032E-24
 -0.454800010         1.00000032E-24
 -0.442799985         1.00000032E-24
 -0.430799991         1.00000041E-24
 -0.418799996         1.00000051E-24
 -0.406800002         1.00000081E-24
 -0.394800007         1.00000130E-24
 -0.382800013         1.00000229E-24
 -0.370799989         1.00000268E-24
 -0.358799994         9.99999822E-25
 -0.346799999         9.99986905E-25
 -0.334800005         9.99953575E-25
 -0.322800010         9.99889185E-25
 -0.310799986         9.99797381E-25
 -0.298799992         9.99722143E-25
 -0.286799997         9.99777857E-25
 -0.274800003         1.00015828E-24
 -0.262800008         1.00108096E-24
 -0.250800014         1.00262298E-24
 -0.238800004         1.00446221E-24
 -0.226799995         1.00565763E-24
 -0.214800000         1.00475991E-24
 -0.202800006         1.00061070E-24
 -0.190799996         9.93948569E-25
 -0.178800002         9.89184539E-25
 -0.166800007         9.94498405E-25
 -0.154799998         1.01729925E-24
 -0.142800003         1.05242841E-24
 -0.130799994         1.06397960E-24
 -0.118799999         9.69422489E-25
 -0.106799997         6.45572260E-25
  -9.48000029E-02    -1.57567755E-26
  -8.28000009E-02    -9.79293999E-25
  -7.07999989E-02    -1.87224165E-24
  -5.88000007E-02    -1.79478912E-24
  -4.67999987E-02     7.08779986E-25
  -3.48000005E-02     7.29186497E-24
  -2.28000004E-02     1.88468810E-23
  -1.08000003E-02     3.39114737E-23
   1.20000006E-03     4.68011170E-23
   1.31999999E-02     4.64016094E-23
   2.52000000E-02     1.71068858E-23
   3.72000001E-02    -5.64507538E-23
   4.91999984E-02    -1.79924822E-22
   6.12000003E-02    -3.35994893E-22
   7.32000023E-02    -4.71377081E-22
   8.51999968E-02    -4.91666887E-22
   9.71999988E-02    -2.73871251E-22
  0.109200001         2.94693367E-22
  0.121200003         1.24925568E-21
  0.133200005         2.46348987E-21
  0.145199999         3.57728473E-21
  0.157199994         3.98136084E-21
  0.169200003         2.90938808E-21
  0.181199998        -3.26697543E-22
  0.193200007        -5.96493955E-21
  0.205200002        -1.33600017E-20
  0.217199996        -2.06414585E-20
  0.229200006        -2.46761176E-20
  0.241200000        -2.15478401E-20
  0.253199995        -7.67585642E-21
  0.265199989         1.85074909E-20
  0.277200013         5.46809812E-20
  0.289200008         9.32114806E-20
  0.301200002         1.21012569E-19
  0.313199997         1.21447317E-19
  0.325199991         7.86285902E-20
  0.337199986        -1.62866596E-20
  0.349200010        -1.58184023E-19
  0.361200005        -3.22735683E-19
  0.373199999        -4.65527116E-19
  0.385199994        -5.27910544E-19
  0.397199988        -4.50507170E-19
  0.409200013        -1.92917466E-19
  0.421200007         2.44607337E-19
  0.433200002         8.04162554E-19
  0.445199996         1.36542197E-18
  0.457199991         1.75929239E-18
  0.469199985         1.80216599E-18
  0.481200010         1.34683564E-18
  0.493200004         3.39390706E-19
  0.505200028        -1.13383425E-18
  0.517199993        -2.82668067E-18
  0.529200017        -4.35459804E-18
  0.541199982        -5.26156311E-18
  0.553200006        -5.12419116E-18
  0.565199971        -3.67180883E-18
  0.577199996        -8.92389432E-19
  0.589200020         2.90687294E-18
  0.601199985         7.10735585E-18
  0.613200009         1.08620759E-17
  0.625199974         1.32414047E-17
  0.637199998         1.34122439E-17
  0.649200022         1.08136403E-17
  0.661199987         5.29577158E-18
  0.673200011        -2.79699337E-18
  0.685199976        -1.26010759E-17
  0.697200000        -2.27575899E-17
  0.709200025        -3.14781431E-17
  0.721199989        -3.66626995E-17
  0.733200014        -3.61040515E-17
  0.745199978        -2.78293303E-17
  0.757200003        -1.06158921E-17
  0.769200027         1.53367160E-17
  0.781199992         4.76945724E-17
  0.793200016         8.14681053E-17
  0.805199981         1.09000011E-16
  0.817200005         1.20782769E-16
  0.829200029         1.07294411E-16
  0.841199994         6.17631146E-17
  0.853200018        -1.66140202E-17
  0.865199983        -1.19860906E-16
  0.877200007        -2.29930111E-16
  0.889199972        -3.19988480E-16
  0.901199996        -3.58898262E-16
  0.913200021        -3.18682303E-16
  0.925199986        -1.83702481E-16
  0.937200010         4.07264227E-17
  0.949199975         3.23146590E-16
  0.961199999         6.06877401E-16
  0.973200023         8.18622509E-16
  0.985199988         8.84388688E-16
  0.997200012         7.49945184E-16
   1.00919998         4.00888174E-16
   1.02119994        -1.23799067E-16
   1.03320003        -7.30328271E-16
   1.04519999        -1.28409941E-15
   1.05719995        -1.63840662E-15
   1.06920004        -1.67249048E-15
   1.08120000        -1.32954347E-15
   1.09319997        -6.43319247E-16
   1.10520005         2.56811813E-16
   1.11720002         1.16789877E-15
   1.12919998         1.86079544E-15
   1.14119995         2.14299569E-15
   1.15320003         1.92040602E-15
   1.16520000         1.23887071E-15
   1.17719996         2.89115374E-16
   1.18920004        -6.32727788E-16
   1.20120001        -1.20439149E-15
   1.21319997        -1.17869622E-15
   1.22520006        -4.78928946E-16
   1.23720002         7.42442537E-16
   1.24919999         2.10654659E-15
   1.26119995         3.08260023E-15
   1.27320004         3.12426705E-15
   1.28520000         1.83779574E-15
   1.29719996        -8.62392778E-16
   1.30920005        -4.65815224E-15
   1.32120001        -8.82913093E-15
   1.33319998        -1.23657900E-14
   1.34519994        -1.41787259E-14
   1.35720003        -1.33604302E-14
   1.36919999        -9.43639257E-15
   1.38119996        -2.53911848E-15
   1.39320004         6.54622044E-15
   1.40520000         1.64852822E-14
   1.41719997         2.56295687E-14
   1.42920005         3.23298415E-14
   1.44120002         3.52525592E-14
   1.45319998         3.36223426E-14
   1.46519995         2.73336956E-14
   1.47720003         1.69123697E-14
   1.48920000         3.35008921E-15
   1.50119996        -1.21269284E-14
   1.51320004        -2.82771260E-14
   1.52520001        -4.39785164E-14
   1.53719997        -5.82384889E-14
   1.54920006        -7.00839465E-14
   1.56120002        -7.83856758E-14
   1.57319999        -8.17050149E-14
   1.58519995        -7.82594001E-14
   1.59720004        -6.60804351E-14
   1.60920000        -4.33876771E-14
   1.62119997        -9.13576618E-15
   1.63320005         3.63706596E-14
   1.64520001         9.09423294E-14
   1.65719998         1.50207686E-13
   1.66919994         2.07678208E-13
   1.68120003         2.55238539E-13
   1.69319999         2.84038526E-13
   1.70519996         2.85680361E-13
   1.71720004         2.53528454E-13
   1.72920001         1.83938761E-13
   1.74119997         7.72139039E-14
   1.75320005        -6.18631733E-14
   1.76520002        -2.23994082E-13
   1.77719998        -3.95827360E-13
   1.78919995        -5.60852038E-13
   1.80120003        -7.00614642E-13
   1.81320000        -7.96143750E-13
   1.82519996        -8.29483834E-13
   1.83720005        -7.85276737E-13
   1.84920001        -6.52364122E-13
   1.86119998        -4.25399977E-13
   1.87320006        -1.06447484E-13
   1.88520002         2.93521067E-13
   1.89719999         7.53386286E-13
   1.90919995         1.24117025E-12
   1.92120004         1.71419812E-12
   1.93320000         2.12051210E-12
   1.94519997         2.40186950E-12
   1.95720005         2.49851246E-12
   1.96920002         2.35564649E-12
   1.98119998         1.93124423E-12
   1.99319994         1.20443662E-12
   2.00519991         1.83437209E-13
   2.01719999        -1.08826815E-12
   2.02920008        -2.52876496E-12
   2.04119992        -4.01871808E-12
   2.05320001        -5.40727619E-12
   2.06520009        -6.52304122E-12
   2.07719994        -7.18958443E-12
   2.08920002        -7.24431929E-12
   2.10120010        -6.55896561E-12
   2.11319995        -5.05946457E-12
   2.12520003        -2.74307486E-12
   2.13720012         3.09466618E-13
   2.14919996         3.92847430E-12
   2.16120005         7.85773963E-12
   2.17319989         1.17654593E-11
   2.18519998         1.52636254E-11
   2.19720006         1.79352661E-11
   2.20919991         1.93683663E-11
   2.22119999         1.91947586E-11
   2.23320007         1.71317249E-11
   2.24519992         1.30234573E-11
   2.25720000         6.87889155E-12
   2.26920009        -1.09813319E-12
   2.28119993        -1.04908391E-11
   2.29320002        -2.06680367E-11
   2.30520010        -3.08031378E-11
   2.31719995        -3.99163619E-11
   2.32920003        -4.69408887E-11
   2.34120011        -5.08110776E-11
   2.35319996        -5.05679700E-11
   2.36520004        -4.54741071E-11
   2.37719989        -3.51271096E-11
   2.38919997        -1.95596109E-11
   2.40120006         6.87447332E-13
   2.41319990         2.45303066E-11
   2.42519999         5.03562851E-11
   2.43720007         7.60919661E-11
   2.44919991         9.93264637E-11
   2.46120000         1.17485313E-10
   2.47320008         1.28044658E-10
   2.48519993         1.28770841E-10
   2.49720001         1.17966248E-10
   2.50920010         9.47001227E-11
   2.52119994         5.90022128E-11
   2.53320003         1.19982089E-11
   2.54520011        -4.40311260E-11
   2.55719995        -1.05680735E-10
   2.56920004        -1.68549882E-10
   2.58119988        -2.27469057E-10
   2.59319997        -2.76818790E-10
   2.60520005        -3.10925480E-10
   2.61719990        -3.24512028E-10
   2.62919998        -3.13174958E-10
   2.64120007        -2.73853690E-10
   2.65319991        -2.05255576E-10
   2.66520000        -1.08198971E-10
   2.67720008         1.41600655E-11
   2.68919992         1.56247279E-10
   2.70120001         3.10157372E-10
   2.71320009         4.65919636E-10
   2.72519994         6.11942275E-10
   2.73720002         7.35621841E-10
   2.74920011         8.24093183E-10
   2.76119995         8.65085725E-10
   2.77320004         8.47841186E-10
   2.78520012         7.64044994E-10
   2.79719996         6.08719408E-10
   2.80920005         3.81027043E-10
   2.82119989         8.49369186E-11
   2.83319998        -2.70290901E-10
   2.84520006        -6.69838962E-10
   2.85719991        -1.09331666E-09
   2.86919999        -1.51502022E-09
   2.88120008        -1.90448990E-09
   2.89319992        -2.22738472E-09
   2.90520000        -2.44668685E-09
   2.91720009        -2.52425614E-09
   2.92919993        -2.42274090E-09
   2.94120002        -2.10785345E-09
   2.95320010        -1.55099789E-09
   2.96519995        -7.32225558E-10
   2.97720003         3.56548041E-10
   2.98920012         1.70816894E-09
   3.00119996         3.29687078E-09
   3.01320004         5.07512787E-09
   3.02519989         6.97102909E-09
   3.03719997         8.88651641E-09
   3.04920006         1.06968976E-08
   3.06119990         1.22520643E-08
   3.07319999         1.33798190E-08
   3.08520007         1.38916709E-08
   3.09719992         1.35913316E-08
   3.10920000         1.22859651E-08
   3.12120008         9.79999992E-09
   3.13319993         5.99100325E-09
   3.14520001         7.66757768E-10
   3.15720010        -5.89768012E-09
   3.16919994        -1.39445815E-08
   3.18120003        -2.32217729E-08
   3.19320011        -3.34767698E-08
   3.20519996        -4.43593038E-08
   3.21720004        -5.54347857E-08
   3.22919989        -6.62111148E-08
   3.24119997        -7.61810242E-08
   3.25320005        -8.48815631E-08
   3.26519990        -9.19716072E-08
   3.27719998        -9.73273373E-08
   3.28920007        -1.01154683E-07
   3.30119991        -1.04116069E-07
   3.31320000        -1.07468026E-07
   3.32520008        -1.13204202E-07
   3.33719993        -1.24197740E-07
   3.34920001        -1.44335345E-07
   3.36120009        -1.78634210E-07
   3.37319994        -2.33333949E-07
   3.38520002        -3.15953230E-07
   3.39720011        -4.35302894E-07
   3.40919995        -6.01447709E-07
   3.42120004        -8.25610073E-07
   3.43319988        -1.12001067E-06
   3.44519997        -1.49764355E-06
   3.45720005        -1.97198619E-06
   3.46919990        -2.55664781E-06
   3.48119998        -3.26496047E-06
   3.49320006        -4.10952589E-06
   3.50519991        -5.10172458E-06
   3.51719999        -6.25120720E-06
   3.52920008        -7.56538566E-06
   3.54119992        -9.04893659E-06
   3.55320001        -1.07033411E-05
   3.56520009        -1.25264878E-05
   3.57719994        -1.45123404E-05
   3.58920002        -1.66507052E-05
   3.60120010        -1.89271177E-05
   3.61319995        -2.13228213E-05
   3.62520003        -2.38149096E-05
   3.63720012        -2.63765814E-05
   3.64919996        -2.89775380E-05
   3.66120005        -3.15845209E-05
   3.67319989        -3.41619379E-05
   3.68519998        -3.66726272E-05
   3.69720006        -3.90786845E-05
   3.70919991        -4.13423804E-05
   3.72119999        -4.34270805E-05
   3.73320007        -4.52982022E-05
   3.74519992        -4.69241240E-05
   3.75720000        -4.82770884E-05
   3.76920009        -4.93339721E-05
   3.78119993        -5.00769820E-05
   3.79320002        -5.04942254E-05
   3.80520010        -5.05801108E-05
   3.81719995        -5.03355768E-05
   3.82920003        -4.97681613E-05
   3.84120011        -4.88918849E-05
   3.85319996        -4.77269350E-05
   3.86520004        -4.62991738E-05
   3.87719989        -4.46395061E-05
   3.88919997        -4.27830746E-05
   3.90120006        -4.07683547E-05
   3.91319990        -3.86361353E-05
   3.92519999        -3.64284606E-05
   3.93720007        -3.41875275E-05
   3.94919991        -3.19545834E-05
   3.96120000        -2.97688985E-05
   3.97320008        -2.76667743E-05
   3.98519993        -2.56806798E-05
   3.99720001        -2.38385182E-05
   4.00920010        -2.21630453E-05
   4.02120018        -2.06714667E-05
   4.03319979        -1.93752185E-05
   4.04519987        -1.82799286E-05
   4.05719995        -1.73855697E-05
   4.06920004        -1.66867958E-05
   4.08120012        -1.61734242E-05
   4.09320021        -1.58310777E-05
   4.10519981        -1.56419210E-05
   4.11719990        -1.55854977E-05
   4.12919998        -1.56396127E-05
   4.14120007        -1.57812337E-05
   4.15320015        -1.59873798E-05
   4.16520023        -1.62359556E-05
   4.17719984        -1.65065121E-05
   4.18919992        -1.67809067E-05
   4.20120001        -1.70438252E-05
   4.21320009        -1.72831697E-05
   4.22520018        -1.74902871E-05
   4.23719978        -1.76600479E-05
   4.24919987        -1.77907641E-05
   4.26119995        -1.78839618E-05
   4.27320004        -1.79440303E-05
   4.28520012        -1.79777562E-05
   4.29720020        -1.79937706E-05
   4.30919981        -1.80019397E-05
   4.32119989        -1.80127372E-05
   4.33319998        -1.80365860E-05
   4.34520006        -1.80832667E-05
   4.35720015        -1.81613577E-05
   4.36920023        -1.82777676E-05
   4.38119984        -1.84373566E-05
   4.39319992        -1.86426932E-05
   4.40520000        -1.88939011E-05
   4.41720009        -1.91886720E-05
   4.42920017        -1.95223693E-05
   4.44119978        -1.98882699E-05
   4.45319986        -2.02779120E-05
   4.46519995        -2.06815093E-05
   4.47720003        -2.10884427E-05
   4.48920012        -2.14878073E-05
   4.50120020        -2.18689456E-05
   4.51319981        -2.22219987E-05
   4.52519989        -2.25384101E-05
   4.53719997        -2.28113895E-05
   4.54920006        -2.30362748E-05
   4.56120014        -2.32108268E-05
   4.57320023        -2.33354112E-05
   4.58519983        -2.34130621E-05
   4.59719992        -2.34494455E-05
   4.60920000        -2.34527051E-05
   4.62120008        -2.34332019E-05
   4.63320017        -2.34031741E-05
   4.64519978        -2.33763058E-05
   4.65719986        -2.33672654E-05
   4.66919994        -2.33911869E-05
   4.68120003        -2.34631570E-05
   4.69320011        -2.35976950E-05
   4.70520020        -2.38082794E-05
   4.71719980        -2.41069192E-05
   4.72919989        -2.45037991E-05
   4.74119997        -2.50069879E-05
   4.75320005        -2.56222502E-05
   4.76520014        -2.63529382E-05
   4.77720022        -2.71999816E-05
   4.78919983        -2.81619559E-05
   4.80119991        -2.92352270E-05
   4.81320000        -3.04141595E-05
   4.82520008        -3.16913611E-05
   4.83720016        -3.30579751E-05
   4.84919977        -3.45039516E-05
   4.86119986        -3.60183622E-05
   4.87319994        -3.75896416E-05
   4.88520002        -3.92058537E-05
   4.89720011        -4.08548585E-05
   4.90920019        -4.25244834E-05
   4.92119980        -4.42026139E-05
   4.93319988        -4.58772665E-05
   4.94519997        -4.75365960E-05
   4.95720005        -4.91689098E-05
   4.96920013        -5.07626319E-05
   4.98120022        -5.23062808E-05
   4.99319983        -5.37884662E-05
   5.00519991        -5.51978956E-05
   5.01719999        -5.65234222E-05
   5.02920008        -5.77541323E-05
   5.04120016        -5.88794683E-05
   5.05319977        -5.98894512E-05
   5.06519985        -6.07748807E-05
   5.07719994        -6.15275858E-05
   5.08920002        -6.21407817E-05
   5.10120010        -6.26093097E-05
   5.11320019        -6.29299684E-05
   5.12519979        -6.31017901E-05
   5.13719988        -6.31262446E-05
   5.14919996        -6.30074355E-05
   5.16120005        -6.27521440E-05
   5.17320013        -6.23698579E-05
   5.18520021        -6.18726117E-05
   5.19719982        -6.12748336E-05
   5.20919991        -6.05929308E-05
   5.22119999        -5.98449624E-05
   5.23320007        -5.90500640E-05
   5.24520016        -5.82278990E-05
   5.25719976        -5.73980360E-05
   5.26919985        -5.65793162E-05
   5.28119993        -5.57892126E-05
   5.29320002        -5.50432596E-05
   5.30520010        -5.43545066E-05
   5.31720018        -5.37331289E-05
   5.32919979        -5.31860860E-05
   5.34119987        -5.27169504E-05
   5.35319996        -5.23258786E-05
   5.36520004        -5.20097274E-05
   5.37720013        -5.17623012E-05
   5.38920021        -5.15747415E-05
   5.40119982        -5.14360545E-05
   5.41319990        -5.13336781E-05
   5.42519999        -5.12541519E-05
   5.43720007        -5.11838080E-05
   5.44920015        -5.11094404E-05
   5.46120024        -5.10189493E-05
   5.47319984        -5.09019083E-05
   5.48519993        -5.07500517E-05
   5.49720001        -5.05576027E-05
   5.50920010        -5.03215124E-05
   5.52120018        -5.00415408E-05
   5.53319979        -4.97201581E-05
   5.54519987        -4.93623775E-05
   5.55719995        -4.89754057E-05
   5.56920004        -4.85682212E-05
   5.58120012        -4.81510724E-05
   5.59320021        -4.77349131E-05
   5.60519981        -4.73308282E-05
   5.61719990        -4.69494516E-05
   5.62919998        -4.66004349E-05
   5.64120007        -4.62919306E-05
   5.65320015        -4.60302035E-05
   5.66520023        -4.58193026E-05
   5.67719984        -4.56608177E-05
   5.68919992        -4.55537811E-05
   5.70120001        -4.54946421E-05
   5.71320009        -4.54773617E-05
   5.72520018        -4.54935944E-05
   5.73719978        -4.55329973E-05
   5.74919987        -4.55835434E-05
   5.76119995        -4.56319685E-05
   5.77320004        -4.56642447E-05
   5.78520012        -4.56660564E-05
   5.79720020        -4.56233574E-05
   5.80919981        -4.55228583E-05
   5.82119989        -4.53525608E-05
   5.83319998        -4.51022097E-05
   5.84520006        -4.47637212E-05
   5.85720015        -4.43315257E-05
   5.86920023        -4.38028510E-05
   5.88119984        -4.31778863E-05
   5.89319992        -4.24598475E-05
   5.90520000        -4.16549483E-05
   5.91720009        -4.07722182E-05
   5.92920017        -3.98232369E-05
   5.94119978        -3.88217668E-05
   5.95319986        -3.77832548E-05
   5.96519995        -3.67243156E-05
   5.97720003        -3.56620985E-05
   5.98920012        -3.46136767E-05
   6.00120020        -3.35954282E-05
   6.01319981        -3.26224072E-05
   6.02519989        -3.17078157E-05
   6.03719997        -3.08625386E-05
   6.04920006        -3.00947740E-05
   6.06120014        -2.94097954E-05
   6.07320023        -2.88098363E-05
   6.08519983        -2.82941000E-05
   6.09719992        -2.78589250E-05
   6.10920000        -2.74980321E-05
   6.12120008        -2.72029120E-05
   6.13320017        -2.69632692E-05
   6.14519978        -2.67675296E-05
   6.15719986        -2.66033876E-05
   6.16919994        -2.64583232E-05
   6.18120003        -2.63201291E-05
   6.19320011        -2.61773548E-05
   6.20520020        -2.60196921E-05
   6.21719980        -2.58382643E-05
   6.22919989        -2.56258281E-05
   6.24119997        -2.53768503E-05
   6.25320005        -2.50874946E-05
   6.26520014        -2.47555217E-05
   6.27720022        -2.43801060E-05
   6.28919983        -2.39615692E-05
   6.30119991        -2.35011066E-05
   6.31320000        -2.30004698E-05
   6.32520008        -2.24616506E-05
   6.33720016        -2.18866007E-05
   6.34919977        -2.12769828E-05
   6.36119986        -2.06339828E-05
   6.37319994        -1.99581882E-05
   6.38520002        -1.92495372E-05
   6.39720011        -1.85073604E-05
   6.40920019        -1.77304664E-05
   6.42119980        -1.69173145E-05
   6.43319988        -1.60662275E-05
   6.44519997        -1.51756467E-05
   6.45720005        -1.42443932E-05
   6.46920013        -1.32719442E-05
   6.48120022        -1.22586735E-05
   6.49319983        -1.12060670E-05
   6.50519991        -1.01168780E-05
   6.51719999        -8.99522456E-06
   6.52920008        -7.84660915E-06
   6.54120016        -6.67786935E-06
   6.55319977        -5.49705101E-06
   6.56519985        -4.31322314E-06
   6.57719994        -3.13622536E-06
   6.58920002        -1.97638656E-06
   6.60120010        -8.44209637E-07
   6.61320019         2.49946737E-07
   6.62519979         1.29617422E-06
   6.63719988         2.28529393E-06
   6.64919996         3.20908907E-06
   6.66120005         4.06048412E-06
   6.67320013         4.83366011E-06
   6.68520021         5.52410620E-06
   6.69719982         6.12860777E-06
   6.70919991         6.64517620E-06
   6.72119999         7.07293884E-06
   6.73320007         7.41199437E-06
   6.74520016         7.66324865E-06
   6.75719976         7.82825646E-06
   6.76919985         7.90907052E-06
   6.78119993         7.90812373E-06
   6.79320002         7.82814277E-06
   6.80520010         7.67210804E-06
   6.81720018         7.44325644E-06
   6.82919979         7.14512453E-06
   6.84119987         6.78163133E-06
   6.85319996         6.35718334E-06
   6.86520004         5.87679506E-06
   6.87720013         5.34620767E-06
   6.88920021         4.77199637E-06
   6.90119982         4.16165085E-06
   6.91319990         3.52361872E-06
   6.92519999         2.86730756E-06
   6.93720007         2.20303423E-06
   6.94920015         1.54192446E-06
   6.96120024         8.95761218E-07
   6.97319984         2.76787205E-07
   6.98519993        -3.02532356E-07
   6.99720001        -8.29779992E-07
   7.00920010        -1.29287605E-06
   7.02120018        -1.68038059E-06
   7.03319979        -1.98179600E-06
   7.04519987        -2.18785976E-06
   7.05719995        -2.29081479E-06
   7.06920004        -2.28465683E-06
   7.08120012        -2.16534022E-06
   7.09320021        -1.93094456E-06
   7.10519981        -1.58179080E-06
   7.11719990        -1.12050418E-06
   7.12919998        -5.52018889E-07
   7.14120007         1.16479114E-07
   7.15320015         8.75672981E-07
   7.16520023         1.71429963E-06
   7.17719984         2.61940022E-06
   7.18919992         3.57662611E-06
   7.20120001         4.57060378E-06
   7.21320009         5.58534111E-06
   7.22520018         6.60466958E-06
   7.23719978         7.61270667E-06
   7.24919987         8.59432475E-06
   7.26119995         9.53560357E-06
   7.27320004         1.04242563E-05
   7.28520012         1.12500029E-05
   7.29720020         1.20048771E-05
   7.30919981         1.26834448E-05
   7.32119989         1.32829318E-05
   7.33319998         1.38032374E-05
   7.34520006         1.42468416E-05
   7.35720015         1.46185957E-05
   7.36920023         1.49254065E-05
   7.38119984         1.51758422E-05
   7.39319992         1.53796391E-05
   7.40520000         1.55471698E-05
   7.41720009         1.56888818E-05
   7.42920017         1.58147413E-05
   7.44119978         1.59336851E-05
   7.45319986         1.60531563E-05
   7.46519995         1.61786920E-05
   7.47720003         1.63136356E-05
   7.48920012         1.64589546E-05
   7.50120020         1.66131795E-05
   7.51319981         1.67724775E-05
   7.52519989         1.69308623E-05
   7.53719997         1.70805106E-05
   7.54920006         1.72121709E-05
   7.56120014         1.73156695E-05
   7.57320023         1.73804565E-05
   7.58519983         1.73961926E-05
   7.59719992         1.73533008E-05
   7.60920000         1.72435284E-05
   7.62120008         1.70604144E-05
   7.63320017         1.67996786E-05
   7.64519978         1.64595094E-05
   7.65719986         1.60407362E-05
   7.66919994         1.55468588E-05
   7.68120003         1.49839625E-05
   7.69320011         1.43604948E-05
   7.70520020         1.36869330E-05
   7.71719980         1.29753544E-05
   7.72919989         1.22389274E-05
   7.74119997         1.14913473E-05
   7.75320005         1.07462492E-05
   7.76520014         1.00166126E-05
   7.77720022         9.31420982E-06
   7.78919983         8.64908998E-06
   7.80119991         8.02915929E-06
   7.81320000         7.45985199E-06
   7.82520008         6.94391474E-06
   7.83720016         6.48132664E-06
   7.84919977         6.06934145E-06
   7.86119986         5.70267048E-06
   7.87319994         5.37378492E-06
   7.88520002         5.07333334E-06
   7.89720011         4.79065375E-06
   7.90920019         4.51436199E-06
   7.92119980         4.23298025E-06
   7.93319988         3.93558776E-06
   7.94519997         3.61245384E-06
   7.95720005         3.25562428E-06
   7.96920013         2.85943224E-06
   7.98120022         2.42089982E-06
   7.99319983         1.94001177E-06
   8.00520039         1.41983605E-06
   8.01720047         8.66484527E-07
   8.02919960         2.88902726E-07
   8.04119968        -3.01502070E-07
   8.05319977        -8.91388481E-07
   8.06519985        -1.46614127E-06
   8.07719994        -2.01063608E-06
   8.08920002        -2.51007737E-06
   8.10120010        -2.95086556E-06
   8.11320019        -3.32145351E-06
   8.12520027        -3.61314437E-06
   8.13720036        -3.82078906E-06
   8.14920044        -3.94333847E-06
   8.16119957        -3.98421707E-06
   8.17319965        -3.95148800E-06
   8.18519974        -3.85778867E-06
   8.19719982        -3.72002614E-06
   8.20919991        -3.55884026E-06
   8.22119999        -3.39784310E-06
   8.23320007        -3.26266263E-06
   8.24520016        -3.17982699E-06
   8.25720024        -3.17553918E-06
   8.26920033        -3.27439034E-06
   8.28120041        -3.49808010E-06
   8.29319954        -3.86420197E-06
   8.30519962        -4.38516099E-06
   8.31719971        -5.06727793E-06
   8.32919979        -5.91013986E-06
   8.34119987        -6.90624347E-06
   8.35319996        -8.04094543E-06
   8.36520004        -9.29276030E-06
   8.37720013        -1.06339876E-05
   8.38920021        -1.20316563E-05
   8.40120029        -1.34487509E-05
   8.41320038        -1.48456684E-05
   8.42520046        -1.61818480E-05
   8.43719959        -1.74174820E-05
   8.44919968        -1.85152476E-05
   8.46119976        -1.94419536E-05
   8.47319984        -2.01700423E-05
   8.48519993        -2.06788500E-05
   8.49720001        -2.09555728E-05
   8.50920010        -2.09958835E-05
   8.52120018        -2.08041729E-05
   8.53320026        -2.03934069E-05
   8.54520035        -1.97845802E-05
   8.55720043        -1.90058490E-05
   8.56919956        -1.80913248E-05
   8.58119965        -1.70796393E-05
   8.59319973        -1.60123145E-05
   8.60519981        -1.49320676E-05
   8.61719990        -1.38810628E-05
   8.62919998        -1.28992551E-05
   8.64120007        -1.20228588E-05
   8.65320015        -1.12830221E-05
   8.66520023        -1.07047636E-05
   8.67720032        -1.03061921E-05
   8.68920040        -1.00980478E-05
   8.70119953        -1.00835759E-05
   8.71319962        -1.02587001E-05
   8.72519970        -1.06125071E-05
   8.73719978        -1.11279815E-05
   8.74919987        -1.17829650E-05
   8.76119995        -1.25512752E-05
   8.77320004        -1.34039392E-05
   8.78520012        -1.43104789E-05
   8.79720020        -1.52401990E-05
   8.80920029        -1.61634016E-05
   8.82120037        -1.70525054E-05
   8.83320045        -1.78830160E-05
   8.84519958        -1.86343023E-05
   8.85719967        -1.92901807E-05
   8.86919975        -1.98392445E-05
   8.88119984        -2.02750107E-05
   8.89319992        -2.05957986E-05
   8.90520000        -2.08044421E-05
   8.91720009        -2.09077934E-05
   8.92920017        -2.09161026E-05
   8.94120026        -2.08422680E-05
   8.95320034        -2.07010380E-05
   8.96520042        -2.05081833E-05
   8.97719955        -2.02796964E-05
   8.98919964        -2.00310496E-05
   9.00119972        -1.97765548E-05
   9.01319981        -1.95288630E-05
   9.02519989        -1.92985826E-05
   9.03719997        -1.90940937E-05
   9.04920006        -1.89214898E-05
   9.06120014        -1.87846908E-05
   9.07320023        -1.86856741E-05
   9.08520031        -1.86248217E-05