 -0.622799993         1.00000002E-24
 -0.610800028         1.00000002E-24
 -0.598800004         1.00000002E-24
 -0.586799979         8.03954175E-16
 -0.574800014         4.88461878E-15
 -0.562799990         1.59911113E-14
 -0.550800025         3.66409377E-14
 -0.538800001         6.40862688E-14
 -0.526799977         8.70356304E-14
 -0.514800012         8.62444542E-14
 -0.502799988         4.12002551E-14
 -0.490799993        -5.75409674E-14
 -0.478799999        -1.94313356E-13
 -0.466800004        -3.19218068E-13
 -0.454800010        -3.50745230E-13
 -0.442799985        -1.93897185E-13
 -0.430799991         2.28150588E-13
 -0.418799996         9.37210270E-13
 -0.406800002         1.87080212E-12
 -0.394800007         2.87334414E-12
 -0.382800013         3.71593598E-12
 -0.370799989         4.14442699E-12
 -0.358799994         3.94629295E-12
 -0.346799999         3.02037063E-12
 -0.334800005         1.43205738E-12
 -0.322800010        -5.59534298E-13
 -0.310799986        -2.50912984E-12
 -0.298799992        -3.82767602E-12
 -0.286799997        -3.85672440E-12
 -0.274800003        -1.97305215E-12
 -0.262800008         2.27539298E-12
 -0.250800014         9.00170043E-12
 -0.238800004         1.77879569E-11
 -0.226799995         2.74937052E-11
 -0.214800000         3.61106423E-11
 -0.202800006         4.07235773E-11
 -0.190799996         3.76334797E-11
 -0.178800002         2.26657807E-11
 -0.166800007        -8.37098012E-12
 -0.154799998        -5.91829710E-11
 -0.142800003        -1.32605843E-10
 -0.130799994        -2.30511235E-10
 -0.118799999        -3.54125868E-10
 -0.106799997        -5.04765896E-10
  -9.48000029E-02    -6.84836965E-10
  -8.28000009E-02    -8.98800034E-10
  -7.07999989E-02    -1.15373100E-09
  -5.88000007E-02    -1.45912493E-09
  -4.67999987E-02    -1.82575544E-09
  -3.48000005E-02    -2.26363617E-09
  -2.28000004E-02    -2.77939294E-09
  -1.08000003E-02    -3.37356054E-09
   1.20000006E-03    -4.03838385E-09
   1.31999999E-02    -4.75661599E-09
   2.52000000E-02    -5.50159829E-09
   3.72000001E-02    -6.23863627E-09
   4.91999984E-02    -6.92747770E-09
   6.12000003E-02    -7.52558726E-09
   7.32000023E-02    -7.99197331E-09
   8.51999968E-02    -8.29142976E-09
   9.71999988E-02    -8.39920844E-09
  0.109200001        -8.30610247E-09
  0.121200003        -8.02375144E-09
  0.133200005        -7.58957874E-09
  0.145199999        -7.07031411E-09
  0.157199994        -6.56267130E-09
  0.169200003        -6.18962437E-09
  0.181199998        -6.09098816E-09
  0.193200007        -6.40766951E-09
  0.205200002        -7.25989446E-09
  0.217199996        -8.72079031E-09
  0.229200006        -1.07875984E-08
  0.241200000        -1.33535725E-08
  0.253199995        -1.61838933E-08
  0.265199989        -1.88991454E-08
  0.277200013        -2.09698339E-08
  0.289200008        -2.17253273E-08
  0.301200002        -2.03804618E-08
  0.313199997        -1.60825770E-08
  0.325199991        -7.98095368E-09
  0.337199986         4.68105865E-09
  0.349200010         2.24533601E-08
  0.361200005         4.55512676E-08
  0.373199999         7.37218073E-08
  0.385199994         1.06116943E-07
  0.397199988         1.41189574E-07
  0.409200013         1.76629754E-07
  0.421200007         2.09358134E-07
  0.433200002         2.35591273E-07
  0.445199996         2.50989274E-07
  0.457199991         2.50889229E-07
  0.469199985         2.30621936E-07
  0.481200010         1.85898926E-07
  0.493200004         1.13249847E-07
  0.505200028         1.04804485E-08
  0.517199993        -1.22885922E-07
  0.529200017        -2.85227230E-07
  0.541199982        -4.72549743E-07
  0.553200006        -6.78371578E-07
  0.565199971        -8.93807226E-07
  0.577199996        -1.10789119E-06
  0.589200020        -1.30816363E-06
  0.601199985        -1.48152401E-06
  0.613200009        -1.61534251E-06
  0.625199974        -1.69879183E-06
  0.637199998        -1.72434284E-06
  0.649200022        -1.68934946E-06
  0.661199987        -1.59762726E-06
  0.673200011        -1.46092577E-06
  0.685199976        -1.30018043E-06
  0.697200000        -1.14643694E-06
  0.709200025        -1.04134745E-06
  0.721199989        -1.03715217E-06
  0.733200014        -1.19608490E-06
  0.745199978        -1.58916316E-06
  0.757200003        -2.29436887E-06
  0.769200027        -3.39424469E-06
  0.781199992        -4.97298925E-06
  0.793200016        -7.11314988E-06
  0.805199981        -9.89205546E-06
  0.817200005        -1.33781596E-05
  0.829200029        -1.76274698E-05
  0.841199994        -2.26802567E-05
  0.853200018        -2.85582555E-05
  0.865199983        -3.52625175E-05
  0.877200007        -4.27720915E-05
  0.889199972        -5.10436548E-05
  0.901199996        -6.00122439E-05
  0.913200021        -6.95929994E-05
  0.925199986        -7.96840977E-05
  0.937200010        -9.01706444E-05
  0.949199975        -1.00929457E-04
  0.961199999        -1.11834568E-04
  0.973200023        -1.22763202E-04
  0.985199988        -1.33601847E-04
  0.997200012        -1.44252423E-04
   1.00919998        -1.54637688E-04
   1.02119994        -1.64706216E-04
   1.03320003        -1.74436034E-04
   1.04519999        -1.83837270E-04
   1.05719995        -1.92953026E-04
   1.06920004        -2.01858711E-04
   1.08120000        -2.10659797E-04
   1.09319997        -2.19487774E-04
   1.10520005        -2.28494639E-04
   1.11720002        -2.37846005E-04
   1.12919998        -2.47713237E-04
   1.14119995        -2.58264772E-04
   1.15320003        -2.69657001E-04
   1.16520000        -2.82025518E-04
   1.17719996        -2.95476435E-04
   1.18920004        -3.10078671E-04
   1.20120001        -3.25857487E-04
   1.21319997        -3.42789310E-04
   1.22520006        -3.60798207E-04
   1.23720002        -3.79754289E-04
   1.24919999        -3.99473764E-04
   1.26119995        -4.19720775E-04
   1.27320004        -4.40210977E-04
   1.28520000        -4.60616546E-04
   1.29719996        -4.80572460E-04
   1.30920005        -4.99683840E-04
   1.32120001        -5.17533917E-04
   1.33319998        -5.33692539E-04
   1.34519994        -5.47724776E-04
   1.35720003        -5.59199660E-04
   1.36919999        -5.67698327E-04
   1.38119996        -5.72822348E-04
   1.39320004        -5.74201054E-04
   1.40520000        -5.71498240E-04
   1.41719997        -5.64418617E-04
   1.42920005        -5.52713114E-04
   1.44120002        -5.36184001E-04
   1.45319998        -5.14688960E-04
   1.46519995        -4.88144549E-04
   1.47720003        -4.56529349E-04
   1.48920000        -4.19885881E-04
   1.50119996        -3.78322176E-04
   1.51320004        -3.32012743E-04
   1.52520001        -2.81198183E-04
   1.53719997        -2.26184522E-04
   1.54920006        -1.67341030E-04
   1.56120002        -1.05097519E-04
   1.57319999        -3.99402415E-05
   1.58519995         2.75929979E-05
   1.59720004         9.69190150E-05
   1.60920000         1.67416161E-04
   1.62119997         2.38432360E-04
   1.63320005         3.09293770E-04
   1.64520001         3.79314122E-04
   1.65719998         4.47804778E-04
   1.66919994         5.14084531E-04
   1.68120003         5.77489962E-04
   1.69319999         6.37385529E-04
   1.70519996         6.93173031E-04
   1.71720004         7.44300778E-04
   1.72920001         7.90271792E-04
   1.74119997         8.30651610E-04
   1.75320005         8.65074224E-04
   1.76520002         8.93247547E-04
   1.77719998         9.14957607E-04
   1.78919995         9.30071110E-04
   1.80120003         9.38537007E-04
   1.81320000         9.40386730E-04
   1.82519996         9.35733144E-04
   1.83720005         9.24768043E-04
   1.84920001         9.07758833E-04
   1.86119998         8.85043468E-04
   1.87320006         8.57025094E-04
   1.88520002         8.24165065E-04
   1.89719999         7.86975375E-04
   1.90919995         7.46010628E-04
   1.92120004         7.01858778E-04
   1.93320000         6.55132113E-04
   1.94519997         6.06457179E-04
   1.95720005         5.56465355E-04
   1.96920002         5.05782780E-04
   1.98119998         4.55020869E-04
   1.99319994         4.04767081E-04
   2.00519991         3.55576369E-04
   2.01719999         3.07963055E-04
   2.02920008         2.62393936E-04
   2.04119992         2.19282098E-04
   2.05320001         1.78982009E-04
   2.06520009         1.41785771E-04
   2.07719994         1.07920612E-04
   2.08920002         7.75478256E-05
   2.10120010         5.07629047E-05
   2.11319995         2.75970942E-05
   2.12520003         8.02019076E-06
   2.13720012        -8.05551645E-06
   2.14919996        -2.07702415E-05
   2.16120005        -3.03108209E-05
   2.17319989        -3.69040863E-05
   2.18519998        -4.08097112E-05
   2.19720006        -4.23127094E-05
   2.20919991        -4.17157316E-05
   2.22119999        -3.93314040E-05
   2.23320007        -3.54749100E-05
   2.24519992        -3.04568966E-05
   2.25720000        -2.45770116E-05
   2.26920009        -1.81180694E-05
   2.28119993        -1.13410651E-05
   2.29320002        -4.48105993E-06
   2.30520010         2.25601093E-06
   2.31719995         8.69557243E-06
   2.32920003         1.46956963E-05
   2.34120011         2.01474686E-05
   2.35319996         2.49744789E-05
   2.36520004         2.91314736E-05
   2.37719989         3.26022382E-05
   2.38919997         3.53968244E-05
   2.40120006         3.75481904E-05
   2.41319990         3.91084068E-05
   2.42519999         4.01445359E-05
   2.43720007         4.07343614E-05
   2.44919991         4.09620770E-05
   2.46120000         4.09141321E-05
   2.47320008         4.06752588E-05
   2.48519993         4.03249032E-05
   2.49720001         3.99340497E-05
   2.50920010         3.95626339E-05
   2.52119994         3.92574802E-05
   2.53320003         3.90509667E-05
   2.54520011         3.89603229E-05
   2.55719995         3.89876514E-05
   2.56920004         3.91206631E-05
   2.58119988         3.93339978E-05
   2.59319997         3.95911120E-05
   2.60520005         3.98465891E-05
   2.61719990         4.00487843E-05
   2.62919998         4.01426296E-05
   2.64120007         4.00724930E-05
   2.65319991         3.97849908E-05
   2.66520000         3.92316251E-05
   2.67720008         3.83711667E-05
   2.68919992         3.71717360E-05
   2.70120001         3.56124619E-05
   2.71320009         3.36847406E-05
   2.72519994         3.13930250E-05
   2.73720002         2.87551338E-05
   2.74920011         2.58021209E-05
   2.76119995         2.25777076E-05
   2.77320004         1.91373492E-05
   2.78520012         1.55469952E-05
   2.79719996         1.18815769E-05
   2.80920005         8.22326547E-06
   2.82119989         4.65957555E-06
   2.83319998         1.28130512E-06
   2.84520006        -1.81965538E-06
   2.85719991        -4.55263398E-06
   2.86919999        -6.83056805E-06
   2.88120008        -8.57245504E-06
   2.89319992        -9.70579913E-06
   2.90520000        -1.01690357E-05
   2.91720009        -9.91380693E-06
   2.92919993        -8.90707270E-06
   2.94120002        -7.13294139E-06
   2.95320010        -4.59415151E-06
   2.96519995        -1.31311208E-06
   2.97720003         2.66758821E-06
   2.98920012         7.28526174E-06
   3.00119996         1.24578910E-05
   3.01320004         1.80855895E-05
   3.02519989         2.40527643E-05
   3.03719997         3.02309672E-05
   3.04920006         3.64823209E-05
   3.06119990         4.26634251E-05
   3.07319999         4.86295758E-05
   3.08520007         5.42391354E-05
   3.09719992         5.93578770E-05
   3.10920000         6.38630663E-05
   3.12120008         6.76471391E-05
   3.13319993         7.06208666E-05
   3.14520001         7.27157530E-05
   3.15720010         7.38856688E-05
   3.16919994         7.41076728E-05
   3.18120003         7.33819397E-05
   3.19320011         7.17309667E-05
   3.20519996         6.91980676E-05
   3.21720004         6.58453573E-05
   3.22919989         6.17513579E-05
   3.24119997         5.70084703E-05
   3.25320005         5.17203916E-05
   3.26519990         4.59997136E-05
   3.27719998         3.99657365E-05
   3.28920007         3.37426245E-05
   3.30119991         2.74578288E-05
   3.31320000         2.12408231E-05
   3.32520008         1.52220218E-05
   3.33719993         9.53179097E-06
   3.34920001         4.29939701E-06
   3.36120009        -3.48245067E-07
   3.37319994        -4.28816247E-06
   3.38520002        -7.40339101E-06
   3.39720011        -9.58556211E-06
   3.40919995        -1.07380474E-05
   3.42120004        -1.07795877E-05
   3.43319988        -9.64824449E-06
   3.44519997        -7.30552119E-06
   3.45720005        -3.74030787E-06
   3.46919990         1.02760112E-06
   3.48119998         6.94476284E-06
   3.49320006         1.39224139E-05
   3.50519991         2.18361311E-05
   3.51719999         3.05270260E-05
   3.52920008         3.98046031E-05
   3.54119992         4.94512824E-05
   3.55320001         5.92285214E-05
   3.56520009         6.88843429E-05
   3.57719994         7.81619601E-05
   3.58920002         8.68091229E-05
   3.60120010         9.45876964E-05
   3.61319995         1.01282967E-04
   3.62520003         1.06712185E-04
   3.63720012         1.10731846E-04
   3.64919996         1.13243252E-04
   3.66120005         1.14196082E-04
   3.67319989         1.13589806E-04
   3.68519998         1.11472800E-04
   3.69720006         1.07939304E-04
   3.70919991         1.03124388E-04
   3.72119999         9.71972986E-05
   3.73320007         9.03535765E-05
   3.74519992         8.28063494E-05
   3.75720000         7.47774466E-05
   3.76920009         6.64886902E-05
   3.78119993         5.81540371E-05
   3.79320002         4.99727175E-05
   3.80520010         4.21239201E-05
   3.81719995         3.47631176E-05
   3.82920003         2.80200456E-05
   3.84120011         2.19983413E-05
   3.85319996         1.67765975E-05
   3.86520004         1.24105673E-05
   3.87719989         8.93615561E-06
   3.88919997         6.37281755E-06
   3.90120006         4.72695683E-06
   3.91319990         3.99497776E-06
   3.92519999         4.16569401E-06
   3.93720007         5.22187020E-06
   3.94919991         7.14076486E-06
   3.96120000         9.89368618E-06
   3.97320008         1.34446182E-05
   3.98519993         1.77481961E-05
   3.99720001         2.27472065E-05
   4.00920010         2.83700974E-05
   4.02120018         3.45287772E-05
   4.03319979         4.11171568E-05
   4.04519987         4.80106864E-05
   4.05719995         5.50672157E-05
   4.06920004         6.21292493E-05
   4.08120012         6.90276793E-05
   4.09320021         7.55868386E-05
   4.10519981         8.16306783E-05
   4.11719990         8.69897194E-05
   4.12919998         9.15083801E-05
   4.14120007         9.50521426E-05
   4.15320015         9.75141520E-05
   4.16520023         9.88206739E-05
   4.17719984         9.89350665E-05
   4.18919992         9.78598837E-05
   4.20120001         9.56369186E-05
   4.21320009         9.23451298E-05
   4.22520018         8.80965745E-05
   4.23719978         8.30305507E-05
   4.24919987         7.73064094E-05
   4.26119995         7.10954628E-05
   4.27320004         6.45725959E-05
   4.28520012         5.79081061E-05
   4.29720020         5.12604129E-05
   4.30919981         4.47700186E-05
   4.32119989         3.85551575E-05
   4.33319998         3.27093621E-05
   4.34520006         2.73010573E-05
   4.35720015         2.23750812E-05
   4.36920023         1.79559302E-05
   4.38119984         1.40523653E-05
   4.39319992         1.06628786E-05
   4.40520000         7.78148478E-06
   4.41720009         5.40326118E-06
   4.42920017         3.52909797E-06
   4.44119978         2.16916715E-06
   4.45319986         1.34477443E-06
   4.46519995         1.08839663E-06
   4.47720003         1.44183127E-06
   4.48920012         2.45263618E-06
   4.50120020         4.16910416E-06
   4.51319981         6.63423089E-06
   4.52519989         9.87914973E-06
   4.53719997         1.39166632E-05
   4.54920006         1.87354271E-05
   4.56120014         2.42953411E-05
   4.57320023         3.05246467E-05
   4.58519983         3.73190742E-05
   4.59719992         4.45432233E-05
   4.60920000         5.20342401E-05
   4.62120008         5.96075515E-05
   4.63320017         6.70644731E-05
   4.64519978         7.42010816E-05
   4.65719986         8.08177938E-05
   4.66919994         8.67290946E-05
   4.68120003         9.17726211E-05
   4.69320011         9.58170858E-05
   4.70520020         9.87683889E-05
   4.71719980         1.00573568E-04
   4.72919989         1.01222329E-04
   4.74119997         1.00746016E-04
   4.75320005         9.92141358E-05
   4.76520014         9.67287633E-05
   4.77720022         9.34172203E-05
   4.78919983         8.94235491E-05
   4.80119991         8.48995478E-05
   4.81320000         7.99958507E-05
   4.82520008         7.48539096E-05
   4.83720016         6.95992276E-05
   4.84919977         6.43364765E-05
   4.86119986         5.91466560E-05
   4.87319994         5.40864894E-05
   4.88520002         4.91899809E-05
   4.89720011         4.44718571E-05
   4.90920019         3.99325691E-05
   4.92119980         3.55642696E-05
   4.93319988         3.13572855E-05
   4.94519997         2.73063033E-05
   4.95720005         2.34158670E-05
   4.96920013         1.97044847E-05
   4.98120022         1.62070592E-05
   4.99319983         1.29753053E-05
   5.00519991         1.00761235E-05
   5.01719999         7.58799797E-06
   5.02920008         5.59571663E-06
   5.04120016         4.18381251E-06
   5.05319977         3.42928047E-06
   5.06519985         3.39414669E-06
   5.07719994         4.11855081E-06
   5.08920002         5.61488196E-06
   5.10120010         7.86352757E-06
   5.11320019         1.08106051E-05
   5.12519979         1.43679272E-05
   5.13719988         1.84152977E-05
   5.14919996         2.28050121E-05
   5.16120005         2.73682981E-05
   5.17320013         3.19232822E-05
   5.18520021         3.62839528E-05
   5.19719982         4.02694641E-05
   5.20919991         4.37132439E-05
   5.22119999         4.64711993E-05
   5.23320007         4.84285556E-05
   5.24520016         4.95049062E-05
   5.25719976         4.96571920E-05
   5.26919985         4.88804544E-05
   5.28119993         4.72064967E-05
   5.29320002         4.47005150E-05
   5.30520010         4.14561582E-05
   5.31720018         3.75893251E-05
   5.32919979         3.32312848E-05
   5.34119987         2.85216247E-05
   5.35319996         2.36015167E-05
   5.36520004         1.86078014E-05
   5.37720013         1.36682420E-05
   5.38920021         8.89819330E-06
   5.40119982         4.39877431E-06
   5.41319990         2.56541909E-07
   5.42519999        -3.45550870E-06
   5.43720007        -6.67593849E-06
   5.44920015        -9.35215576E-06
   5.46120024        -1.14374579E-05
   5.47319984        -1.28881902E-05
   5.48519993        -1.36615172E-05
   5.49720001        -1.37140278E-05
   5.50920010        -1.30015069E-05
   5.52120018        -1.14800059E-05
   5.53319979        -9.10820108E-06
   5.54519987        -5.85094585E-06
   5.55719995        -1.68376278E-06
   5.56920004         3.40206429E-06
   5.58120012         9.39425627E-06
   5.59320021         1.62546603E-05
   5.60519981         2.39151759E-05
   5.61719990         3.22750093E-05
   5.62919998         4.11995788E-05
   5.64120007         5.05213611E-05
   5.65320015         6.00428357E-05
   5.66520023         6.95414856E-05
   5.67719984         7.87767203E-05
   5.68919992         8.74984034E-05
   5.70120001         9.54565912E-05
   5.71320009         1.02411897E-04
   5.72520018         1.08145992E-04
   5.73719978         1.12471535E-04
   5.74919987         1.15240917E-04
   5.76119995         1.16353338E-04
   5.77320004         1.15759780E-04
   5.78520012         1.13465409E-04
   5.79720020         1.09529465E-04
   5.80919981         1.04062463E-04
   5.82119989         9.72209964E-05
   5.83319998         8.92004318E-05
   5.84520006         8.02259965E-05
   5.85720015         7.05427592E-05
   5.86920023         6.04051384E-05
   5.88119984         5.00665737E-05
   5.89319992         3.97699223E-05
   5.90520000         2.97391107E-05
   5.91720009         2.01724615E-05
   5.92920017         1.12380112E-05
   5.94119978         3.07088885E-06
   5.95319986        -4.22716630E-06
   5.96519995        -1.05863592E-05
   5.97720003        -1.59657429E-05
   5.98920012        -2.03488507E-05
   6.00120020        -2.37385248E-05
   6.01319981        -2.61514342E-05
   6.02519989        -2.76127575E-05
   6.03719997        -2.81514749E-05
   6.04920006        -2.77966265E-05
   6.06120014        -2.65748040E-05
   6.07320023        -2.45090378E-05
   6.08519983        -2.16190692E-05
   6.09719992        -1.79229319E-05
   6.10920000        -1.34396241E-05
   6.12120008        -8.19256638E-06
   6.13320017        -2.21345772E-06
   6.14519978         4.45384785E-06
   6.15719986         1.17498803E-05
   6.16919994         1.95968478E-05
   6.18120003         2.78970292E-05
   6.19320011         3.65324595E-05
   6.20520020         4.53660250E-05
   6.21719980         5.42440284E-05
   6.22919989         6.30000723E-05
   6.24119997         7.14601047E-05
   6.25320005         7.94483058E-05
   6.26520014         8.67935523E-05
   6.27720022         9.33358970E-05
   6.28919983         9.89328182E-05
   6.30119991         1.03464801E-04
   6.31320000         1.06839769E-04
   6.32520008         1.08996333E-04
   6.33720016         1.09905428E-04
   6.34919977         1.09570436E-04
   6.36119986         1.08025764E-04
   6.37319994         1.05334082E-04
   6.38520002         1.01582344E-04
   6.39720011         9.68770473E-05
   6.40920019         9.13389667E-05
   6.42119980         8.50977594E-05
   6.43319988         7.82867792E-05
   6.44519997         7.10385066E-05
   6.45720005         6.34807147E-05
   6.46920013         5.57337189E-05
   6.48120022         4.79086193E-05
   6.49319983         4.01068064E-05
   6.50519991         3.24203029E-05
   6.51719999         2.49330387E-05
   6.52920008         1.77226248E-05
   6.54120016         1.08623726E-05
   6.55319977         4.42326154E-06
   6.56519985        -1.52448411E-06
   6.57719994        -6.91043579E-06
   6.58920002        -1.16637893E-05
   6.60120010        -1.57141076E-05
   6.61320019        -1.89929706E-05
   6.62519979        -2.14364445E-05
   6.63719988        -2.29882335E-05
   6.64919996        -2.36032720E-05
   6.66120005        -2.32514994E-05
   6.67320013        -2.19214871E-05
   6.68520021        -1.96235942E-05
   6.69719982        -1.63923705E-05
   6.70919991        -1.22879155E-05
   6.72119999        -7.39601546E-06
   6.73320007        -1.82693248E-06
   6.74520016         4.28714702E-06
   6.75719976         1.07959149E-05
   6.76919985         1.75358218E-05
   6.78119993         2.43357481E-05
   6.79320002         3.10231844E-05
   6.80520010         3.74305528E-05
   6.81720018         4.34013164E-05
   6.82919979         4.87956058E-05
   6.84119987         5.34949868E-05
   6.85319996         5.74061960E-05
   6.86520004         6.04636443E-05
   6.87720013         6.26305991E-05
   6.88920021         6.38989659E-05
   6.90119982         6.42878294E-05
   6.91319990         6.38407510E-05
   6.92519999         6.26221736E-05
   6.93720007         6.07130387E-05
   6.94920015         5.82060638E-05
   6.96120024         5.52008714E-05
   6.97319984         5.17993394E-05
   6.98519993         4.81013776E-05
   6.99720001         4.42014498E-05
   7.00920010         4.01858888E-05
   7.02120018         3.61312013E-05
   7.03319979         3.21032931E-05
   7.04519987         2.81576267E-05
   7.05719995         2.43402210E-05
   7.06920004         2.06892528E-05
   7.08120012         1.72371256E-05
   7.09320021         1.40127522E-05
   7.10519981         1.10437977E-05
   7.11719990         8.35866103E-06
   7.12919998         5.98795259E-06
   7.14120007         3.96533687E-06
   7.15320015         2.32759362E-06
   7.16520023         1.11385839E-06
   7.17719984         3.64072946E-07
   7.18919992         1.16736871E-07
   7.20120001         4.06125366E-07
   7.21320009         1.25920042E-06
   7.22520018         2.69245697E-06
   7.23719978         4.70898931E-06
   7.24919987         7.29602425E-06
   7.26119995         1.04231640E-05
   7.27320004         1.40415123E-05
   7.28520012         1.80838124E-05
   7.29720020         2.24656214E-05
   7.30919981         2.70875225E-05
   7.32119989         3.18382445E-05
   7.33319998         3.65985579E-05
   7.34520006         4.12457157E-05
   7.35720015         4.56581984E-05
   7.36920023         4.97205074E-05
   7.38119984         5.33277198E-05
   7.39319992         5.63895192E-05
   7.40520000         5.88335497E-05
   7.41720009         6.06078393E-05
   7.42920017         6.16822217E-05
   7.44119978         6.20486971E-05
   7.45319986         6.17207770E-05
   7.46519995         6.07318580E-05
   7.47720003         5.91328790E-05
   7.48920012         5.69893236E-05
   7.50120020         5.43778842E-05
   7.51319981         5.13829509E-05
   7.52519989         4.80931012E-05
   7.53719997         4.45978148E-05
   7.54920006         4.09845234E-05
   7.56120014         3.73361618E-05
   7.57320023         3.37291822E-05
   7.58519983         3.02322223E-05
   7.59719992         2.69052816E-05
   7.60920000         2.37995082E-05
   7.62120008         2.09573918E-05
   7.63320017         1.84133605E-05
   7.64519978         1.61946191E-05
   7.65719986         1.43220914E-05
   7.66919994         1.28113752E-05
   7.68120003         1.16735737E-05
   7.69320011         1.09159400E-05
   7.70520020         1.05422760E-05
   7.71719980         1.05530398E-05
   7.72919989         1.09452376E-05
   7.74119997         1.17120499E-05
   7.75320005         1.28423171E-05
   7.76520014         1.43199113E-05
   7.77720022         1.61231146E-05
   7.78919983         1.82240747E-05
   7.80119991         2.05884571E-05
   7.81320000         2.31753675E-05
   7.82520008         2.59376156E-05
   7.83720016         2.88223964E-05
   7.84919977         3.17723570E-05
   7.86119986         3.47270834E-05
   7.87319994         3.76249263E-05
   7.88520002         4.04050479E-05
   7.89720011         4.30096115E-05
   7.90920019         4.53860193E-05
   7.92119980         4.74889348E-05
   7.93319988         4.92821309E-05
   7.94519997         5.07398690E-05
   7.95720005         5.18478446E-05
   7.96920013         5.26035692E-05
   7.98120022         5.30161269E-05
   7.99319983         5.31053920E-05
   8.00520039         5.29006393E-05
   8.01720047         5.24387506E-05
   8.02919960         5.17620210E-05
   8.04119968         5.09157908E-05
   8.05319977         4.99460039E-05
   8.06519985         4.88968799E-05
   8.07719994         4.78087932E-05
   8.08920002         4.67165191E-05
   8.10120010         4.56479065E-05
   8.11320019         4.46230370E-05
   8.12520027         4.36538867E-05
   8.13720036         4.27445120E-05
   8.14920044         4.18916316E-05
   8.16119957         4.10856810E-05
   8.17319965         4.03121339E-05
   8.18519974         3.95530733E-05
   8.19719982         3.87888467E-05
   8.20919991         3.79997982E-05
   8.22119999         3.71678689E-05
   8.23320007         3.62780811E-05
   8.24520016         3.53197756E-05
   8.25720024         3.42875937E-05
   8.26920033         3.31821502E-05
   8.28120041         3.20104045E-05
   8.29319954         3.07857117E-05
   8.30519962         2.95275677E-05
   8.31719971         2.82610708E-05
   8.32919979         2.70161090E-05
   8.34119987         2.58263462E-05
   8.35319996         2.47279677E-05
   8.36520004         2.37583190E-05
   8.37720013         2.29544294E-05
   8.38920021         2.23514908E-05
   8.40120029         2.19813719E-05
   8.41320038         2.18712012E-05
   8.42520046         2.20420934E-05
   8.43719959         2.25080967E-05
   8.44919968         2.32753591E-05
   8.46119976         2.43416307E-05
   8.47319984         2.56960884E-05
   8.48519993         2.73194964E-05
   8.49720001         2.91847246E-05
   8.50920010         3.12576012E-05
   8.52120018         3.34980396E-05
   8.53320026         3.58613797E-05
   8.54520035         3.82999060E-05
   8.55720043         4.07644548E-05
   8.56919956         4.32060006E-05
   8.58119965         4.55771806E-05
   8.59319973         4.78337170E-05
   8.60519981         4.99356174E-05
   8.61719990         5.18481538E-05
   8.62919998         5.35425534E-05
   8.64120007         5.49964207E-05
   8.65320015         5.61938505E-05
   8.66520023         5.71252604E-05
   8.67720032         5.77869432E-05
   8.68920040         5.81804852E-05
   8.70119953         5.83119545E-05
   8.71319962         5.81910463E-05
   8.72519970         5.78302024E-05
   8.73719978         5.72437748E-05
   8.74919987         5.64472539E-05
   8.76119995         5.54565922E-05
   8.77320004         5.42877133E-05
   8.78520012         5.29561585E-05
   8.79720020         5.14768653E-05
   8.80920029         4.98641639E-05
   8.82120037         4.81318420E-05
   8.83320045         4.62933967E-05
   8.84519958         4.43623467E-05
   8.85719967         4.23526035E-05
   8.86919975         4.02788428E-05
   8.88119984         3.81568207E-05
   8.89319992         3.60036247E-05
   8.90520000         3.38377613E-05
   8.91720009         3.16790793E-05
   8.92920017         2.95485661E-05
   8.94120026         2.74679242E-05
   8.95320034         2.54590432E-05
   8.96520042         2.35433290E-05
   8.97719955         2.17410052E-05
   8.98919964         2.00704017E-05
   9.00119972         1.85473127E-05
   9.01319981         1.71844640E-05
   9.02519989         1.59911888E-05
   9.03719997         1.49733123E-05
   9.04920006         1.41332857E-05
   9.06120014         1.34705688E-05
   9.07320023         1.29822511E-05
   9.08520031         1.26638388E-05