  -6.00000000       0.00000000    
  -5.94999981       0.00000000    
  -5.90000010       0.00000000    
  -5.84999990       0.00000000    
  -5.80000019       0.00000000    
  -5.75000000       0.00000000    
  -5.69999981       0.00000000    
  -5.65000010       0.00000000    
  -5.59999990       0.00000000    
  -5.55000019      -4.90612521E-32
  -5.50000000      -1.20188930E-29
  -5.44999981      -1.51923914E-28
  -5.40000010      -1.00179336E-27
  -5.34999990      -4.76549602E-27
  -5.30000019      -1.96599268E-26
  -5.25000000      -7.72665406E-26
  -5.19999981      -2.86062190E-25
  -5.15000010      -9.40451474E-25
  -5.09999990      -2.61068350E-24
  -5.05000019      -5.87771544E-24
  -5.00000000      -1.00829866E-23
  -4.94999981      -1.08178200E-23
  -4.90000010       1.93449283E-24
  -4.84999990       3.87114083E-23
  -4.80000019       8.91086234E-23
  -4.75000000       8.23092735E-23
  -4.69999981      -1.41125777E-22
  -4.65000010      -7.64684805E-22
  -4.59999990      -1.72565002E-21
  -4.55000019      -2.21188116E-21
  -4.50000000      -2.06860837E-22
  -4.44999981       7.12661334E-21
  -4.40000010       2.10705763E-20
  -4.34999990       3.63705305E-20
  -4.30000019       3.53398409E-20
  -4.25000000      -1.31333623E-20
  -4.19999981      -1.39961558E-19
  -4.15000010      -3.39116366E-19
  -4.09999990      -5.11921350E-19
  -4.05000019      -4.23504971E-19
  -4.00000000       2.64321170E-19
  -3.95000005       1.80548547E-18
  -3.90000010       3.99333352E-18
  -3.84999990       5.69639500E-18
  -3.79999995       4.62018340E-18
  -3.75000000      -2.19748636E-18
  -3.70000005      -1.66694529E-17
  -3.65000010      -3.66911446E-17
  -3.59999990      -5.28973399E-17
  -3.54999995      -4.74451510E-17
  -3.50000000       1.94353530E-18
  -3.45000005       1.10034947E-16
  -3.40000010       2.64769582E-16
  -3.34999990       4.07071541E-16
  -3.29999995       4.23313212E-16
  -3.25000000       1.68118477E-16
  -3.20000005      -4.69044706E-16
  -3.15000010      -1.45716010E-15
  -3.09999990      -2.51021115E-15
  -3.04999995      -3.03371033E-15
  -3.00000000      -2.21656219E-15
  -2.95000005       6.66030000E-16
  -2.90000010       5.74853436E-15
  -2.84999990       1.20080761E-14
  -2.79999995       1.69157951E-14
  -2.75000000       1.66725950E-14
  -2.70000005       7.33077709E-15
  -2.65000010      -1.31775228E-14
  -2.59999990      -4.25692637E-14
  -2.54999995      -7.23173556E-14
  -2.50000000      -8.77251830E-14
  -2.45000005      -7.12232194E-14
  -2.40000010      -9.26158191E-15
  -2.34999990       9.84404751E-14
  -2.29999995       2.30468802E-13
  -2.25000000       3.40755825E-13
  -2.20000005       3.65704781E-13
  -2.15000010       2.43684928E-13
  -2.09999990      -5.55299012E-14
  -2.04999995      -4.99849511E-13
  -2.00000000      -9.76071004E-13
  -1.95000005      -1.29804078E-12
  -1.89999998      -1.25150671E-12
  -1.85000002      -6.73261902E-13
  -1.79999995       4.54566858E-13
  -1.75000000       1.92990307E-12
  -1.70000005       3.31743595E-12
  -1.64999998       4.02925783E-12
  -1.60000002       3.50432942E-12
  -1.54999995       1.45013407E-12
  -1.50000000      -1.93239348E-12
  -1.45000005      -5.84364631E-12
  -1.39999998      -8.99053748E-12
  -1.35000002      -9.93540493E-12
  -1.29999995      -7.62787316E-12
  -1.25000000      -1.95660784E-12
  -1.20000005       5.90937022E-12
  -1.14999998       1.36091052E-11
  -1.10000002       1.82136754E-11
  -1.04999995       1.72897027E-11
  -1.00000000       1.00757926E-11
 -0.949999988      -1.71908093E-12
 -0.899999976      -1.39849434E-11
 -0.850000024      -2.14105331E-11
 -0.800000012      -1.96447286E-11
 -0.750000000      -7.73950869E-12
 -0.699999988       1.01908924E-11
 -0.649999976       2.51928617E-11
 -0.600000024       2.62086446E-11
 -0.550000012       5.01078129E-12
 -0.500000000      -3.81446263E-11
 -0.449999988      -9.05676367E-11
 -0.400000006      -1.27508351E-10
 -0.349999994      -1.18554888E-10
 -0.300000012      -3.96937032E-11
 -0.250000000       1.12051389E-10
 -0.200000003       3.06918713E-10
 -0.150000006       4.80128548E-10
 -0.100000001       5.44026657E-10
  -5.00000007E-02   4.15445817E-10
   0.00000000       5.29152035E-11
   5.00000007E-02  -5.07891396E-10
  0.100000001      -1.13581622E-09
  0.150000006      -1.61712710E-09
  0.200000003      -1.70640591E-09
  0.250000000      -1.20938670E-09
  0.300000012      -7.68939704E-11
  0.349999994       1.52262769E-09
  0.400000006       3.18734683E-09
  0.449999988       4.34844072E-09
  0.500000000       4.42108394E-09
  0.550000012       3.01122616E-09
  0.600000024       1.19337193E-10
  0.649999976      -3.73477382E-09
  0.699999988      -7.53572404E-09
  0.750000000      -9.98061278E-09
  0.800000012      -9.85009052E-09
  0.850000024      -6.45598286E-09
  0.899999976      -2.72549101E-11
  0.949999988       8.11932122E-09
   1.00000000       1.57414455E-08
   1.04999995       2.01963672E-08
   1.10000002       1.92376515E-08
   1.14999998       1.18737873E-08
   1.20000005      -9.94485494E-10
   1.25000000      -1.64317715E-08
   1.29999995      -2.99857028E-08
   1.35000002      -3.68380881E-08
   1.39999998      -3.33366508E-08
   1.45000005      -1.84664941E-08
   1.50000000       5.25495780E-09
   1.54999995       3.18870441E-08
   1.60000002       5.33505187E-08
   1.64999998       6.16904501E-08
   1.70000005       5.17443759E-08
   1.75000000       2.33901769E-08
   1.79999995      -1.74690538E-08
   1.85000002      -5.97556920E-08
   1.89999998      -8.99575667E-08
   1.95000005      -9.61767483E-08
   2.00000000      -7.23554763E-08
   2.04999995      -2.12846860E-08
   2.09999990       4.48302266E-08
   2.15000010       1.06854117E-07
   2.20000005       1.43932368E-07
   2.25000000       1.40122722E-07
   2.29999995       9.04478128E-08
   2.34999990       4.23957669E-09
   2.40000010      -9.57752064E-08
   2.45000005      -1.79000054E-07
   2.50000000      -2.15948702E-07
   2.54999995      -1.88178191E-07
   2.59999990      -9.59739666E-08
   2.65000010       3.91268777E-08
   2.70000005       1.78564818E-07
   2.75000000       2.77272079E-07
   2.79999995       2.97806537E-07
   2.84999990       2.23837390E-07
   2.90000010       6.83408174E-08
   2.95000005      -1.26978520E-07
   3.00000000      -3.02018123E-07
   3.04999995      -3.96154093E-07
   3.09999990      -3.68593930E-07
   3.15000010      -2.14618424E-07
   3.20000005       2.83421535E-08
   3.25000000       2.88181184E-07
   3.29999995       4.78337938E-07
   3.34999990       5.25510302E-07
   3.40000010       3.96356654E-07
   3.45000005       1.13932280E-07
   3.50000000      -2.43078603E-07
   3.54999995      -5.60282047E-07
   3.59999990      -7.22289883E-07
   3.65000010      -6.52253789E-07
   3.70000005      -3.43310575E-07
   3.75000000       1.29862201E-07
   3.79999995       6.25900668E-07
   3.84999990       9.76360525E-07
   3.90000010       1.03976402E-06
   3.95000005       7.53540917E-07
   4.00000000       1.65923822E-07
   4.05000019      -5.65618109E-07
   4.09999990      -1.21317692E-06
   4.15000010      -1.54608267E-06
   4.19999981      -1.40829934E-06
   4.25000000      -7.80705307E-07
   4.30000019       1.94577481E-07
   4.34999990       1.24072744E-06
   4.40000010       2.02109618E-06
   4.44999981       2.24339874E-06
   4.50000000       1.76212620E-06
   4.55000019       6.44936222E-07
   4.59999990      -8.23321216E-07
   4.65000010      -2.20772790E-06
   4.69999981      -3.04782884E-06
   4.75000000      -3.00528359E-06
   4.80000019      -1.98878615E-06
   4.84999990      -2.12669320E-07
   4.90000010       1.83752968E-06
   4.94999981       3.53176210E-06
   5.00000000       4.28337489E-06
   5.05000019       3.74382148E-06
   5.09999990       1.94166114E-06
   5.15000010      -6.85225643E-07
   5.19999981      -3.38602490E-06
   5.25000000      -5.30441412E-06
   5.30000019      -5.74174601E-06
   5.34999990      -4.39706992E-06
   5.40000010      -1.50459573E-06
   5.44999981       2.18573359E-06
   5.50000000       5.59385671E-06
   5.55000019       7.61837873E-06
   5.59999990       7.48203229E-06
   5.65000010       5.00751821E-06
   5.69999981       7.29821863E-07
   5.75000000      -4.20538481E-06
   5.80000019      -8.34419916E-06
   5.84999990      -1.03499069E-05
   5.90000010      -9.42787665E-06
   5.94999981      -5.61623574E-06
   6.00000000       1.59904872E-07
   6.05000019       6.30648583E-06
   6.09999990       1.10034571E-05
   6.15000010       1.27506919E-05
   6.19999981       1.08531303E-05
   6.25000000       5.68839596E-06
   6.30000019      -1.34263041E-06
   6.34999990      -8.18884109E-06
   6.40000010      -1.27501762E-05
   6.44999981      -1.35328401E-05
   6.50000000      -1.01548667E-05
   6.55000019      -3.53181122E-06
   6.59999990       4.33786545E-06
   6.65000010       1.09463754E-05
   6.69999981       1.40507382E-05
   6.75000000       1.24141707E-05
   6.80000019       6.27564305E-06
   6.84999990      -2.62153708E-06
   6.90000010      -1.14825925E-05
   6.94999981      -1.72855198E-05
   7.00000000      -1.77406528E-05
   7.05000019      -1.20897448E-05
   7.09999990      -1.47886203E-06
   7.15000010       1.12442340E-05
   7.19999981       2.22858980E-05
   7.25000000       2.80171480E-05
   7.30000019       2.61152745E-05
   7.34999990       1.63815239E-05
   7.40000010       9.58273290E-07
   7.44999981      -1.61603693E-05
   7.50000000      -3.02164153E-05
   7.55000019      -3.70727685E-05
   7.59999990      -3.44834698E-05
   7.65000010      -2.28508252E-05
   7.69999981      -5.20959429E-06
   7.75000000       1.35933678E-05
   7.80000019       2.83054469E-05
   7.84999990       3.48475842E-05
   7.90000010       3.15796751E-05
   7.94999981       1.98419712E-05
   8.00000000       3.57350928E-06
   8.05000019      -1.19062361E-05
   8.10000038      -2.15938089E-05
   8.14999962      -2.24467876E-05
   8.19999981      -1.44385185E-05
   8.25000000      -6.48829655E-07
   8.30000019       1.36871495E-05
   8.35000038       2.29110374E-05
   8.39999962       2.29189682E-05
   8.44999981       1.27337998E-05
   8.50000000      -4.88936757E-06
   8.55000019      -2.41041544E-05
   8.60000038      -3.77463366E-05
   8.64999962      -3.97393087E-05
   8.69999981      -2.73788282E-05
   8.75000000      -2.71789122E-06
   8.80000019       2.75012717E-05
   8.85000038       5.34965293E-05
   8.89999962       6.53021634E-05
   8.94999981       5.60326225E-05
   9.00000000       2.45481497E-05
   9.05000019      -2.33868413E-05
   9.10000038      -7.59696995E-05
   9.14999962      -1.18179341E-04
   9.19999981      -1.35866256E-04
   9.25000000      -1.19979151E-04
   9.30000019      -6.96596035E-05
   9.35000038       6.81850543E-06
   9.39999962       9.37133154E-05
   9.44999981       1.71780383E-04
   9.50000000       2.23527124E-04
   9.55000019       2.38296750E-04
   9.60000038       2.15686247E-04
   9.64999962       1.66214304E-04
   9.69999981       1.08912391E-04
   9.75000000       6.64062100E-05
   9.80000019       5.88201765E-05
   9.85000038       9.82412457E-05
   9.89999962       1.85379657E-04
   9.94999981       3.09475028E-04
   10.0000000       4.51572036E-04
   10.0500002       5.90298325E-04
   10.1000004       7.08512554E-04
   10.1499996       7.98891939E-04
   10.1999998       8.66800663E-04
   10.2500000       9.29555099E-04
   10.3000002       1.01226289E-03
   10.3500004       1.14144466E-03
   10.3999996       1.33833324E-03
   10.4499998       1.61387725E-03
   10.5000000       1.96698611E-03
   10.5500002       2.38659885E-03
   10.6000004       2.85700359E-03
   10.6499996       3.36482795E-03
   10.6999998       3.90560296E-03
   10.7500000       4.48790658E-03
   10.8000002       5.13381464E-03
   10.8500004       5.87553577E-03
   10.8999996       6.74928445E-03
   10.9499998       7.78834475E-03
   11.0000000       9.01756343E-03
   11.0500002       1.04510821E-02
   11.1000004       1.20941689E-02
   11.1499996       1.39486631E-02
   11.1999998       1.60204489E-02
   11.2500000       1.83266066E-02
   11.3000002       2.09000129E-02
   11.3500004       2.37898361E-02
   11.3999996       2.70577110E-02
   11.4499998       3.07707358E-02
   11.5000000       3.49935256E-02
   11.5500002       3.97819616E-02
   11.6000004       4.51808423E-02
   11.6499996       5.12265302E-02
   11.6999998       5.79540394E-02
   11.7500000       6.54067025E-02
   11.8000002       7.36454576E-02
   11.8500004       8.27549398E-02
   11.8999996       9.28442553E-02
   11.9499998      0.104041912    
   12.0000000      0.116486296    
   12.0500002      0.130314350    
   12.1000004      0.145651951    
   12.1499996      0.162608951    
   12.1999998      0.181280866    
   12.2500000      0.201756760    
   12.3000002      0.224131510    
   12.3500004      0.248518586    
   12.3999996      0.275059879    
   12.4499998      0.303929240    
   12.5000000      0.335328609    
   12.5500002      0.369477600    
   12.6000004      0.406599283    
   12.6499996      0.446906596    
   12.6999998      0.490593225    
   12.7500000      0.537831128    
   12.8000002      0.588776171    
   12.8500004      0.643579006    
   12.8999996      0.702398300    
   12.9499998      0.765412092    
   13.0000000      0.832822025    
   13.0500002      0.904850602    
   13.1000004      0.981730223    
   13.1499996       1.06368828    
   13.1999998       1.15093136    
   13.2500000       1.24363446    
   13.3000002       1.34193766    
   13.3500004       1.44595110    
   13.3999996       1.55576694    
   13.4499998       1.67147338    
   13.5000000       1.79316771    
   13.5500002       1.92096066    
   13.6000004       2.05497289    
   13.6499996       2.19532347    
   13.6999998       2.34210873    
   13.7500000       2.49538589    
   13.8000002       2.65515757    
   13.8500004       2.82136583    
   13.8999996       2.99389839    
   13.9499998       3.17260051    
   14.0000000       3.35729527    
   14.0500002       3.54779863    
   14.1000004       3.74393177    
   14.1499996       3.94552159    
   14.1999998       4.15239239    
   14.2500000       4.36434841    
   14.3000002       4.58115673    
   14.3500004       4.80253029    
   14.3999996       5.02812195    
   14.4499998       5.25752592    
   14.5000000       5.49029112    
   14.5500002       5.72593737    
   14.6000004       5.96397638    
   14.6499996       6.20392323    
   14.6999998       6.44530249    
   14.7500000       6.68764544    
   14.8000002       6.93047810    
   14.8500004       7.17331123    
   14.8999996       7.41562653    
   14.9499998       7.65687895    
   15.0000000       7.89649820    
   15.0500002       8.13390636    
   15.1000004       8.36853409    
   15.1499996       8.59983635    
   15.1999998       8.82730961    
   15.2500000       9.05048561    
   15.3000002       9.26892948    
   15.3500004       9.48222446    
   15.3999996       9.68995571    
   15.4499998       9.89169979    
   15.5000000       10.0870275    
   15.5500002       10.2755117    
   15.6000004       10.4567471    
   15.6499996       10.6303768    
   15.6999998       10.7961149    
   15.7500000       10.9537544    
   15.8000002       11.1031742    
   15.8500004       11.2443161    
   15.8999996       11.3771677    
   15.9499998       11.5017328    
   16.0000000       11.6180086    
   16.0499992       11.7259750    
   16.1000004       11.8256083    
   16.1499996       11.9168949    
   16.2000008       11.9998655    
   16.2500000       12.0746260    
   16.2999992       12.1413755    
   16.3500004       12.2004089    
   16.3999996       12.2521019    
   16.4500008       12.2968788    
   16.5000000       12.3351727    
   16.5499992       12.3673868    
   16.6000004       12.3938770    
   16.6499996       12.4149456    
   16.7000008       12.4308586    
   16.7500000       12.4418812    
   16.7999992       12.4483156    
   16.8500004       12.4505320    
   16.8999996       12.4489822    
   16.9500008       12.4441919    
   17.0000000       12.4367304    
   17.0499992       12.4271650    
   17.1000004       12.4160166    
   17.1499996       12.4037275    
   17.2000008       12.3906441    
   17.2500000       12.3770285    
   17.2999992       12.3630915    
   17.3500004       12.3490334    
   17.3999996       12.3350830    
   17.4500008       12.3215284    
   17.5000000       12.3087196    
   17.5499992       12.2970524    
   17.6000004       12.2869368    
   17.6499996       12.2787514    
   17.7000008       12.2728043    
   17.7500000       12.2693119    
   17.7999992       12.2683916    
   17.8500004       12.2700806    
   17.8999996       12.2743654    
   17.9500008       12.2812223    
   18.0000000       12.2906466    
   18.0499992       12.3026733    
   18.1000004       12.3173866    
   18.1499996       12.3348980    
   18.2000008       12.3553276    
   18.2500000       12.3787775    
   18.2999992       12.4053087    
   18.3500004       12.4349318    
   18.3999996       12.4675999    
   18.4500008       12.5032282    
   18.5000000       12.5417099    
   18.5499992       12.5829344    
   18.6000004       12.6268024    
   18.6499996       12.6732349    
   18.7000008       12.7221661    
   18.7500000       12.7735405    
   18.7999992       12.8272943    
   18.8500004       12.8833542    
   18.8999996       12.9416218    
   18.9500008       13.0019903    
   19.0000000       13.0643444    
   19.0499992       13.1285782    
   19.1000004       13.1946087    
   19.1499996       13.2623825    
   19.2000008       13.3318729    
   19.2500000       13.4030666    
   19.2999992       13.4759502    
   19.3500004       13.5504885    
   19.3999996       13.6266060    
   19.4500008       13.7041845    
   19.5000000       13.7830715    
   19.5499992       13.8630934    
   19.6000004       13.9440928    
   19.6499996       14.0259399    
   19.7000008       14.1085672    
   19.7500000       14.1919651    
   19.7999992       14.2761736    
   19.8500004       14.3612614    
   19.8999996       14.4472914    
   19.9500008       14.5342941    
   20.0000000       14.6222525    
   20.0499992       14.7110891    
   20.1000004       14.8006811    
   20.1499996       14.8908892    
   20.2000008       14.9815855    
   20.2500000       15.0726757    
   20.2999992       15.1641169    
   20.3500004       15.2559175    
   20.3999996       15.3481245    
   20.4500008       15.4407978    
   20.5000000       15.5339928    
   20.5499992       15.6277313    
   20.6000004       15.7220058    
   20.6499996       15.8167696    
   20.7000008       15.9119558    
   20.7500000       16.0074921    
   20.7999992       16.1033154    
   20.8500004       16.1993790    
   20.8999996       16.2956657    
   20.9500008       16.3921757    
   21.0000000       16.4889336    
   21.0499992       16.5859680    
   21.1000004       16.6833210    
   21.1499996       16.7810287    
   21.2000008       16.8791237    
   21.2500000       16.9776287    
   21.2999992       17.0765553    
   21.3500004       17.1758976    
   21.3999996       17.2756386    
   21.4500008       17.3757420    
   21.5000000       17.4761696    
   21.5499992       17.5768852    
   21.6000004       17.6778584    
   21.6499996       17.7790833    
   21.7000008       17.8805790    
   21.7500000       17.9823837    
   21.7999992       18.0845470    
   21.8500004       18.1871243    
   21.8999996       18.2901554    
   21.9500008       18.3936615    
   22.0000000       18.4976463    
   22.0499992       18.6020927    
   22.1000004       18.7069683    
   22.1499996       18.8122425    
   22.2000008       18.9178791    
   22.2500000       19.0238495    
   22.2999992       19.1301308    
   22.3500004       19.2367039    
   22.3999996       19.3435555    
   22.4500008       19.4506798    
   22.5000000       19.5580807    
   22.5499992       19.6657772    
   22.6000004       19.7737961    
   22.6499996       19.8821716    
   22.7000008       19.9909439    
   22.7500000       20.1001377    
   22.7999992       20.2097569    
   22.8500004       20.3197861    
   22.8999996       20.4301891    
   22.9500008       20.5409107    
   23.0000000       20.6518974    
   23.0499992       20.7631111    
   23.1000004       20.8745193    
   23.1499996       20.9861183    
   23.2000008       21.0979099    
   23.2500000       21.2098961    
   23.2999992       21.3220711    
   23.3500004       21.4344215    
   23.3999996       21.5469189    
   23.4500008       21.6595402    
   23.5000000       21.7722683    
   23.5499992       21.8850937    
   23.6000004       21.9980240    
   23.6499996       22.1110630    
   23.7000008       22.2242050    
   23.7500000       22.3374214    
   23.7999992       22.4506512    
   23.8500004       22.5638084    
   23.8999996       22.6767864    
   23.9500008       22.7894859    
   24.0000000       22.9018135    
   24.0499992       23.0137062    
   24.1000004       23.1251144    
   24.1499996       23.2359924    
   24.2000008       23.3462811    
   24.2500000       23.4558945    
   24.2999992       23.5647068    
   24.3500004       23.6725616    
   24.3999996       23.7792931    
   24.4500008       23.8847389    
   24.5000000       23.9887581    
   24.5499992       24.0912342    
   24.6000004       24.1920643    
   24.6499996       24.2911358    
   24.7000008       24.3882961    
   24.7500000       24.4833431    
   24.7999992       24.5760059    
   24.8500004       24.6659622    
   24.8999996       24.7528610    
   24.9500008       24.8363400    
   25.0000000       24.9160576    
   25.0499992       24.9916973    
   25.1000004       25.0629616    
   25.1499996       25.1295681    
   25.2000008       25.1912098    
   25.2500000       25.2475624    
   25.2999992       25.2982559    
   25.3500004       25.3428898    
   25.3999996       25.3810310    
   25.4500008       25.4122314    
   25.5000000       25.4360180    
   25.5499992       25.4518986    
   25.6000004       25.4593525    
   25.6499996       25.4578285    
   25.7000008       25.4467449    
   25.7500000       25.4255180    
   25.7999992       25.3935757    
   25.8500004       25.3503914    
   25.8999996       25.2955017    
   25.9500008       25.2285175    
   26.0000000       25.1490955    
   26.0499992       25.0569077    
   26.1000004       24.9516220    
   26.1499996       24.8328705    
   26.2000008       24.7002468    
   26.2500000       24.5533428    
   26.2999992       24.3917789    
   26.3500004       24.2152596    
   26.3999996       24.0236053    
   26.4500008       23.8167572    
   26.5000000       23.5947723    
   26.5499992       23.3577805    
   26.6000004       23.1059456    
   26.6499996       22.8394375    
   26.7000008       22.5584335    
   26.7500000       22.2631454    
   26.7999992       21.9538689    
   26.8500004       21.6310177    
   26.8999996       21.2951641    
   26.9500008       20.9470310    
   27.0000000       20.5874577    
   27.0499992       20.2173538    
   27.1000004       19.8376446    
   27.1499996       19.4492340    
   27.2000008       19.0530109    
   27.2500000       18.6498737    
   27.2999992       18.2407703    
   27.3500004       17.8267498    
   27.3999996       17.4089794    
   27.4500008       16.9887295    
   27.5000000       16.5673389    
   27.5499992       16.1461563    
   27.6000004       15.7264938    
   27.6499996       15.3095932    
   27.7000008       14.8966274    
   27.7500000       14.4887218    
   27.7999992       14.0869970    
   27.8500004       13.6925888    
   27.8999996       13.3066492    
   27.9500008       12.9303255    
   28.0000000       12.5647154    
   28.0499992       12.2108164    
   28.1000004       11.8695002    
   28.1499996       11.5415163    
   28.2000008       11.2275171    
   28.2500000       10.9281006    
   28.2999992       10.6438475    
   28.3500004       10.3753347    
   28.3999996       10.1231070    
   28.4500008       9.88763428    
   28.5000000       9.66924667    
   28.5499992       9.46808910    
   28.6000004       9.28411198    
   28.6499996       9.11710262    
   28.7000008       8.96674919    
   28.7500000       8.83270454    
   28.7999992       8.71464634    
   28.8500004       8.61228371    
   28.8999996       8.52533340    
   28.9500008       8.45345974    
   29.0000000       8.39621258    
   29.0499992       8.35298824    
   29.1000004       8.32303238    
   29.1499996       8.30548573    
   29.2000008       8.29946136    
   29.2500000       8.30411053    
   29.2999992       8.31866837    
   29.3500004       8.34245110    
   29.3999996       8.37481308    
   29.4500008       8.41507244    
   29.5000000       8.46245289    
   29.5499992       8.51605797    
   29.6000004       8.57490063    
   29.6499996       8.63796329    
   29.7000008       8.70428848    
   29.7500000       8.77305508    
   29.7999992       8.84360695    
   29.8500004       8.91543579    
   29.8999996       8.98811531    
   29.9500008       9.06122398    
   30.0000000       9.13427830    
   30.0499992       9.20671368    
   30.1000004       9.27791405    
   30.1499996       9.34727287    
   30.2000008       9.41427231    
   30.2500000       9.47853184    
   30.2999992       9.53981686    
   30.3500004       9.59800053    
   30.3999996       9.65299797    
   30.4500008       9.70469856    
   30.5000000       9.75292778    
   30.5499992       9.79745102    
   30.6000004       9.83803654    
   30.6499996       9.87452030    
   30.7000008       9.90686989    
   30.7500000       9.93520832    
   30.7999992       9.95977688    
   30.8500004       9.98087406    
   30.8999996       9.99876022    
   30.9500008       10.0135946    
   31.0000000       10.0254126    
   31.0499992       10.0341606    
   31.1000004       10.0397663    
   31.1499996       10.0422268    
   31.2000008       10.0416603    
   31.2500000       10.0383167    
   31.2999992       10.0325336    
   31.3500004       10.0246534    
   31.3999996       10.0149460    
   31.4500008       10.0035639    
   31.5000000       9.99054241    
   31.5499992       9.97585964    
   31.6000004       9.95951176    
   31.6499996       9.94158649    
   31.7000008       9.92229462    
   31.7500000       9.90193653    
   31.7999992       9.88083744    
   31.8500004       9.85925388    
   31.8999996       9.83730507    
   31.9500008       9.81495571    
   32.0000000       9.79205894    
   32.0499992       9.76844311    
   32.0999985       9.74400711    
   32.1500015       9.71878529    
   32.2000008       9.69296265    
   32.2500000       9.66682053    
   32.2999992       9.64064503    
   32.3499985       9.61463642    
   32.4000015       9.58884335    
   32.4500008       9.56316757    
   32.5000000       9.53742313    
   32.5499992       9.51142883    
   32.5999985       9.48509121    
   32.6500015       9.45845699    
   32.7000008       9.43169689    
   32.7500000       9.40503788    
   32.7999992       9.37866879    
   32.8499985       9.35266399    
   32.9000015       9.32695961    
   32.9500008       9.30137634    
   33.0000000       9.27570915    
   33.0499992       9.24981880    
   33.0999985       9.22370625    
   33.1500015       9.19751835    
   33.2000008       9.17150307    
   33.2500000       9.14591980    
   33.2999992       9.12094307    
   33.3499985       9.09660053    
   33.4000015       9.07277393    
   33.4500008       9.04925823    
   33.5000000       9.02585602    
   33.5499992       9.00246620    
   33.5999985       8.97912788    
   33.6500015       8.95600986    
   33.7000008       8.93333149    
   33.7500000       8.91127396    
   33.7999992       8.88990116    
   33.8499985       8.86912918    
   33.9000015       8.84876347    
   33.9500008       8.82858944    
   34.0000000       8.80846024    
   34.0499992       8.78837204    
   34.0999985       8.76846790    
   34.1500015       8.74898434    
   34.2000008       8.73015213    
   34.2500000       8.71209431    
   34.2999992       8.69476795    
   34.3499985       8.67797565    
   34.4000015       8.66143227    
   34.4500008       8.64487171    
   34.5000000       8.62815380    
   34.5499992       8.61130619    
   34.5999985       8.59450912    
   34.6500015       8.57801342    
   34.7000008       8.56203461    
   34.7500000       8.54665470    
   34.7999992       8.53179550    
   34.8499985       8.51724339    
   34.9000015       8.50274277    
   34.9500008       8.48809433    
   35.0000000       8.47323895    
   35.0499992       8.45826626    
   35.0999985       8.44337082    
   35.1500015       8.42875195    
   35.2000008       8.41451931    
   35.2500000       8.40063858    
   35.2999992       8.38693142    
   35.3499985       8.37315750    
   35.4000015       8.35911751    
   35.4500008       8.34474182    
   35.5000000       8.33014202    
   35.5499992       8.31556702    
   35.5999985       8.30132198    
   35.6500015       8.28764343    
   35.7000008       8.27460957    
   35.7500000       8.26210690    
   35.7999992       8.24987793    
   35.8499985       8.23762703    
   35.9000015       8.22513008    
   35.9500008       8.21232605    
   36.0000000       8.19933510    
   36.0499992       8.18639088    
   36.0999985       8.17374325    
   36.1500015       8.16154289    
   36.2000008       8.14977741    
   36.2500000       8.13828373    
   36.2999992       8.12681770    
   36.3499985       8.11517334    
   36.4000015       8.10328770    
   36.4500008       8.09127712    
   36.5000000       8.07940960    
   36.5499992       8.06799126    
   36.5999985       8.05724716    
   36.6500015       8.04721260    
   36.7000008       8.03770447    
   36.7500000       8.02837467    
   36.7999992       8.01883316    