  -6.00000000       0.00000000    
  -5.94999981       0.00000000    
  -5.90000010       0.00000000    
  -5.84999990       0.00000000    
  -5.80000019       0.00000000    
  -5.75000000       0.00000000    
  -5.69999981       0.00000000    
  -5.65000010       0.00000000    
  -5.59999990       0.00000000    
  -5.55000019       1.99398568E-26
  -5.50000000       2.67670588E-25
  -5.44999981       1.71654121E-24
  -5.40000010       6.65601073E-24
  -5.34999990       1.53307591E-23
  -5.30000019       9.11859072E-24
  -5.25000000      -8.41695401E-23
  -5.19999981      -3.99099348E-22
  -5.15000010      -9.59356946E-22
  -5.09999990      -1.08423971E-21
  -5.05000019       1.56744718E-21
  -5.00000000       1.10433168E-20
  -4.94999981       2.87266934E-20
  -4.90000010       3.94898480E-20
  -4.84999990      -1.28224538E-20
  -4.80000019      -2.45898669E-19
  -4.75000000      -8.10966787E-19
  -4.69999981      -1.74287079E-18
  -4.65000010      -2.62889186E-18
  -4.59999990      -2.15663501E-18
  -4.55000019       2.13425543E-18
  -4.50000000       1.32293345E-17
  -4.44999981       3.23151143E-17
  -4.40000010       5.43836180E-17
  -4.34999990       6.29134185E-17
  -4.30000019       2.73285469E-17
  -4.25000000      -9.04926921E-17
  -4.19999981      -3.14085005E-16
  -4.15000010      -6.13027178E-16
  -4.09999990      -8.56891511E-16
  -4.05000019      -7.90611871E-16
  -4.00000000      -7.43050256E-17
  -3.95000005       1.57111144E-15
  -3.90000010       4.10465221E-15
  -3.84999990       6.85609897E-15
  -3.79999995       8.32535640E-15
  -3.75000000       6.32259908E-15
  -3.70000005      -1.33241099E-15
  -3.65000010      -1.54985566E-14
  -3.59999990      -3.40681361E-14
  -3.54999995      -5.06895382E-14
  -3.50000000      -5.48824156E-14
  -3.45000005      -3.45292778E-14
  -3.40000010       1.89065835E-14
  -3.34999990       1.03353104E-13
  -3.29999995       1.99805030E-13
  -3.25000000       2.70471281E-13
  -3.20000005       2.65177854E-13
  -3.15000010       1.37842008E-13
  -3.09999990      -1.29218657E-13
  -3.04999995      -5.00570776E-13
  -3.00000000      -8.74237694E-13
  -2.95000005      -1.09195031E-12
  -2.90000010      -9.80420281E-13
  -2.84999990      -4.19865179E-13
  -2.79999995       5.78596849E-13
  -2.75000000       1.81768879E-12
  -2.70000005       2.91547667E-12
  -2.65000010       3.38722236E-12
  -2.59999990       2.80447237E-12
  -2.54999995       9.92080224E-13
  -2.50000000      -1.80857759E-12
  -2.45000005      -4.89385355E-12
  -2.40000010      -7.23118700E-12
  -2.34999990      -7.77458306E-12
  -2.29999995      -5.88402634E-12
  -2.25000000      -1.69663469E-12
  -2.20000005       3.73200386E-12
  -2.15000010       8.65244942E-12
  -2.09999990       1.12225836E-11
  -2.04999995       1.03206575E-11
  -2.00000000       6.24645865E-12
  -1.95000005       9.25948771E-13
  -1.89999998      -2.66160206E-12
  -1.85000002      -1.83378074E-12
  -1.79999995       4.05979243E-12
  -1.75000000       1.22676392E-11
  -1.70000005       1.65212514E-11
  -1.64999998       8.82684204E-12
  -1.60000002      -1.68390284E-11
  -1.54999995      -5.98753755E-11
  -1.50000000      -1.09300027E-10
  -1.45000005      -1.43192333E-10
  -1.39999998      -1.33217035E-10
  -1.35000002      -5.46425995E-11
  -1.29999995       1.00042370E-10
  -1.25000000       3.08307241E-10
  -1.20000005       5.11617471E-10
  -1.14999998       6.22183194E-10
  -1.10000002       5.45458234E-10
  -1.04999995       2.16126561E-10
  -1.00000000      -3.61302765E-10
 -0.949999988      -1.08190623E-09
 -0.899999976      -1.73651027E-09
 -0.850000024      -2.04757633E-09
 -0.800000012      -1.74722781E-09
 -0.750000000      -6.84106716E-10
 -0.699999988       1.07093978E-09
 -0.649999976       3.16170112E-09
 -0.600000024       4.96684738E-09
 -0.550000012       5.72786973E-09
 -0.500000000       4.77676032E-09
 -0.449999988       1.81448390E-09
 -0.400000006      -2.84578605E-09
 -0.349999994      -8.17404988E-09
 -0.300000012      -1.25449118E-08
 -0.250000000      -1.41178313E-08
 -0.200000003      -1.14233520E-08
 -0.150000006      -4.00823952E-09
 -0.100000001       7.07742265E-09
  -5.00000007E-02   1.91791099E-08
   0.00000000       2.84800965E-08
   5.00000007E-02   3.09932986E-08
  0.100000001       2.39094078E-08
  0.150000006       6.92048108E-09
  0.200000003      -1.69639698E-08
  0.250000000      -4.15448973E-08
  0.300000012      -5.87222360E-08
  0.349999994      -6.08005664E-08
  0.400000006      -4.32626699E-08
  0.449999988      -7.14828285E-09
  0.500000000       3.99070572E-08
  0.550000012       8.46786889E-08
  0.600000024       1.11556417E-07
  0.649999976       1.07350623E-07
  0.699999988       6.63948896E-08
  0.750000000      -5.77389914E-09
  0.800000012      -9.17707084E-08
  0.850000024      -1.65662087E-07
  0.899999976      -1.99936409E-07
  0.949999988      -1.74527045E-07
   1.00000000      -8.52108428E-08
   1.04999995       5.16371870E-08
   1.10000002       2.00307255E-07
   1.14999998       3.13811654E-07
   1.20000005       3.47332417E-07
   1.25000000       2.73548466E-07
   1.29999995       9.50411874E-08
   1.35000002      -1.50908846E-07
   1.39999998      -3.98089753E-07
   1.45000005      -5.67624795E-07
   1.50000000      -5.91169453E-07
   1.54999995      -4.34601958E-07
   1.60000002      -1.14593227E-07
   1.64999998       2.98397168E-07
   1.70000005       6.93701622E-07
   1.75000000       9.48692900E-07
   1.79999995       9.64832793E-07
   1.85000002       7.01260774E-07
   1.89999998       1.95125338E-07
   1.95000005      -4.39310952E-07
   2.00000000      -1.03509501E-06
   2.04999995      -1.41582325E-06
   2.09999990      -1.44669173E-06
   2.15000010      -1.07881237E-06
   2.20000005      -3.72818448E-07
   2.25000000       5.07347522E-07
   2.29999995       1.33152673E-06
   2.34999990       1.86331874E-06
   2.40000010       1.92749576E-06
   2.45000005       1.46591378E-06
   2.50000000       5.64719983E-07
   2.54999995      -5.57472390E-07
   2.59999990      -1.60042305E-06
   2.65000010      -2.26094403E-06
   2.70000005      -2.31940612E-06
   2.75000000      -1.71015051E-06
   2.79999995      -5.54372434E-07
   2.84999990       8.57299938E-07
   2.90000010       2.13231488E-06
   2.95000005       2.87949342E-06
   3.00000000       2.82233236E-06
   3.04999995       1.89110358E-06
   3.09999990       2.65239834E-07
   3.15000010      -1.65148674E-06
   3.20000005      -3.32331024E-06
   3.25000000      -4.22335188E-06
   3.29999995      -3.98786597E-06
   3.34999990      -2.54065776E-06
   3.40000010      -1.48029301E-07
   3.45000005       2.61976129E-06
   3.50000000       5.01985505E-06
   3.54999995       6.33271475E-06
   3.59999990       6.07192169E-06
   3.65000010       4.14730130E-06
   3.70000005       9.28263375E-07
   3.75000000      -2.82121914E-06
   3.79999995      -6.12861368E-06
   3.84999990      -8.07495417E-06
   3.90000010      -8.06104617E-06
   3.95000005      -5.99835175E-06
   4.00000000      -2.36205642E-06
   4.05000019       1.91838581E-06
   4.09999990       5.70751399E-06
   4.15000010       7.98305609E-06
   4.19999981       8.13278984E-06
   4.25000000       6.13859083E-06
   4.30000019       2.58885780E-06
   4.34999990      -1.48808272E-06
   4.40000010      -4.92160416E-06
   4.44999981      -6.73832938E-06
   4.50000000      -6.44128659E-06
   4.55000019      -4.14575061E-06
   4.59999990      -5.34550963E-07
   4.65000010       3.34779361E-06
   4.69999981       6.39423706E-06
   4.75000000       7.73534157E-06
   4.80000019       6.95472818E-06
   4.84999990       4.16784496E-06
   4.90000010      -4.08446361E-08
   4.94999981      -4.78439279E-06
   5.00000000      -9.08203310E-06
   5.05000019      -1.20499744E-05
   5.09999990      -1.30368535E-05
   5.15000010      -1.16971069E-05
   5.19999981      -8.01943224E-06
   5.25000000      -2.33387050E-06
   5.30000019       4.69130782E-06
   5.34999990       1.20741315E-05
   5.40000010       1.85937988E-05
   5.44999981       2.29443940E-05
   5.50000000       2.39722049E-05
   5.55000019       2.09612099E-05
   5.59999990       1.38917785E-05
   5.65000010       3.57914519E-06
   5.69999981      -8.38467531E-06
   5.75000000      -1.99088208E-05
   5.80000019      -2.88511292E-05
   5.84999990      -3.35184777E-05
   5.90000010      -3.30714538E-05
   5.94999981      -2.77054023E-05
   6.00000000      -1.85494100E-05
   6.05000019      -7.32014769E-06
   6.09999990       4.14787746E-06
   6.15000010       1.43342977E-05
   6.19999981       2.22884337E-05
   6.25000000       2.76473584E-05
   6.30000019       3.04557961E-05
   6.34999990       3.09073439E-05
   6.40000010       2.91501146E-05
   6.44999981       2.52547416E-05
   6.50000000       1.93477936E-05
   6.55000019       1.18131920E-05
   6.59999990       3.40882980E-06
   6.65000010      -4.83104441E-06
   6.69999981      -1.19366032E-05
   6.75000000      -1.74779761E-05
   6.80000019      -2.19579761E-05
   6.84999990      -2.68851909E-05
   6.90000010      -3.43895190E-05
   6.94999981      -4.64350196E-05
   7.00000000      -6.38976562E-05
   7.05000019      -8.59103238E-05
   7.09999990      -1.09854918E-04
   7.15000010      -1.32178073E-04
   7.19999981      -1.49880434E-04
   7.25000000      -1.62198281E-04
   7.30000019      -1.71808832E-04
   7.34999990      -1.84952412E-04
   7.40000010      -2.10196944E-04
   7.44999981      -2.56077561E-04
   7.50000000      -3.28345865E-04
   7.55000019      -4.27847583E-04
   7.59999990      -5.49966819E-04
   7.65000010      -6.86104642E-04
   7.69999981      -8.26936215E-04
   7.75000000      -9.66469641E-04
   7.80000019      -1.10549445E-03
   7.84999990      -1.25307497E-03
   7.90000010      -1.42533588E-03
   7.94999981      -1.64174126E-03
   8.00000000      -1.92004500E-03
   8.05000019      -2.27170577E-03
   8.10000038      -2.69955560E-03
   8.14999962      -3.19881039E-03
   8.19999981      -3.76133807E-03
   8.25000000      -4.38186387E-03
   8.30000019      -5.06396359E-03
   8.35000038      -5.82361966E-03
   8.39999962      -6.68890215E-03
   8.44999981      -7.69568607E-03
   8.50000000      -8.88082292E-03
   8.55000019      -1.02752307E-02
   8.60000038      -1.18994992E-02
   8.64999962      -1.37638599E-02
   8.69999981      -1.58727579E-02
   8.75000000      -1.82326324E-02
   8.80000019      -2.08602659E-02
   8.85000038      -2.37887986E-02
   8.89999962      -2.70693079E-02
   8.94999981      -3.07675153E-02
   9.00000000      -3.49569358E-02
   9.05000019      -3.97111624E-02
   9.10000038      -4.50981632E-02
   9.14999962      -5.11788055E-02
   9.19999981      -5.80099486E-02
   9.25000000      -6.56509548E-02
   9.30000019      -7.41708428E-02
   9.35000038      -8.36535841E-02
   9.39999962      -9.41995531E-02
   9.44999981     -0.105923042    
   9.50000000     -0.118947454    
   9.55000019     -0.133400559    
   9.60000038     -0.149412289    
   9.64999962     -0.167116195    
   9.69999981     -0.186654076    
   9.75000000     -0.208181381    
   9.80000019     -0.231871247    
   9.85000038     -0.257914454    
   9.89999962     -0.286515594    
   9.94999981     -0.317886531    
   10.0000000     -0.352240533    
   10.0500002     -0.389789969    
   10.1000004     -0.430749685    
   10.1499996     -0.475345284    
   10.1999998     -0.523823380    
   10.2500000     -0.576459348    
   10.3000002     -0.633559525    
   10.3500004     -0.695454180    
   10.3999996     -0.762484789    
   10.4499998     -0.834987998    
   10.5000000     -0.913283706    
   10.5500002     -0.997670710    
   10.6000004      -1.08843350    
   10.6499996      -1.18585742    
   10.6999998      -1.29024696    
   10.7500000      -1.40194118    
   10.8000002      -1.52131641    
   10.8500004      -1.64877903    
   10.8999996      -1.78474677    
   10.9499998      -1.92962444    
   11.0000000      -2.08378625    
   11.0500002      -2.24756718    
   11.1000004      -2.42126918    
   11.1499996      -2.60517716    
   11.1999998      -2.79958224    
   11.2500000      -3.00479579    
   11.3000002      -3.22115469    
   11.3500004      -3.44900870    
   11.3999996      -3.68869877    
   11.4499998      -3.94052958    
   11.5000000      -4.20474958    
   11.5500002      -4.48154545    
   11.6000004      -4.77104950    
   11.6499996      -5.07336617    
   11.6999998      -5.38859081    
   11.7500000      -5.71683359    
   11.8000002      -6.05821657    
   11.8500004      -6.41286182    
   11.8999996      -6.78086519    
   11.9499998      -7.16226625    
   12.0000000      -7.55703402    
   12.0500002      -7.96506166    
   12.1000004      -8.38618469    
   12.1499996      -8.82020760    
   12.1999998      -9.26692772    
   12.2500000      -9.72615528    
   12.3000002      -10.1977053    
   12.3500004      -10.6813803    
   12.3999996      -11.1769371    
   12.4499998      -11.6840677    
   12.5000000      -12.2023792    
   12.5500002      -12.7314110    
   12.6000004      -13.2706556    
   12.6499996      -13.8195963    
   12.6999998      -14.3777361    
   12.7500000      -14.9446135    
   12.8000002      -15.5197916    
   12.8500004      -16.1028252    
   12.8999996      -16.6932297    
   12.9499998      -17.2904663    
   13.0000000      -17.8939133    
   13.0500002      -18.5029106    
   13.1000004      -19.1167793    
   13.1499996      -19.7348728    
   13.1999998      -20.3565998    
   13.2500000      -20.9814396    
   13.3000002      -21.6089134    
   13.3500004      -22.2385616    
   13.3999996      -22.8698902    
   13.4499998      -23.5023632    
   13.5000000      -24.1353931    
   13.5500002      -24.7683716    
   13.6000004      -25.4007092    
   13.6499996      -26.0318718    
   13.6999998      -26.6614113    
   13.7500000      -27.2889538    
   13.8000002      -27.9141846    
   13.8500004      -28.5368004    
   13.8999996      -29.1564827    
   13.9499998      -29.7728901    
   14.0000000      -30.3856525    
   14.0500002      -30.9944267    
   14.1000004      -31.5989246    
   14.1499996      -32.1989403    
   14.1999998      -32.7943497    
   14.2500000      -33.3851013    
   14.3000002      -33.9711685    
   14.3500004      -34.5525055    
   14.3999996      -35.1290283    
   14.4499998      -35.7006035    
   14.5000000      -36.2671051    
   14.5500002      -36.8284416    
   14.6000004      -37.3846207    
   14.6499996      -37.9357529    
   14.6999998      -38.4820404    
   14.7500000      -39.0237236    
   14.8000002      -39.5610199    
   14.8500004      -40.0940781    
   14.8999996      -40.6229515    
   14.9499998      -41.1476250    
   15.0000000      -41.6680756    
   15.0500002      -42.1843452    
   15.1000004      -42.6965866    
   15.1499996      -43.2050819    
   15.1999998      -43.7102165    
   15.2500000      -44.2124062    
   15.3000002      -44.7120132    
   15.3500004      -45.2092743    
   15.3999996      -45.7042961    
   15.4499998      -46.1970863    
   15.5000000      -46.6876106    
   15.5500002      -47.1758957    
   15.6000004      -47.6620903    
   15.6499996      -48.1464691    
   15.6999998      -48.6293983    
   15.7500000      -49.1112709    
   15.8000002      -49.5924149    
   15.8500004      -50.0730438    
   15.8999996      -50.5532265    
   15.9499998      -51.0329514    
   16.0000000      -51.5121841    
   16.0499992      -51.9909439    
   16.1000004      -52.4693451    
   16.1499996      -52.9476166    
   16.2000008      -53.4260406    
   16.2500000      -53.9048805    
   16.2999992      -54.3843269    
   16.3500004      -54.8644524    
   16.3999996      -55.3452301    
   16.4500008      -55.8265991    
   16.5000000      -56.3085251    
   16.5499992      -56.7910767    
   16.6000004      -57.2744255    
   16.6499996      -57.7588158    
   16.7000008      -58.2444992    
   16.7500000      -58.7316513    
   16.7999992      -59.2203102    
   16.8500004      -59.7104034    
   16.8999996      -60.2017593    
   16.9500008      -60.6942329    
   17.0000000      -61.1877632    
   17.0499992      -61.6824341    
   17.1000004      -62.1784515    
   17.1499996      -62.6760788    
   17.2000008      -63.1755676    
   17.2500000      -63.6770248    
   17.2999992      -64.1804123    
   17.3500004      -64.6855392    
   17.3999996      -65.1921692    
   17.4500008      -65.7000809    
   17.5000000      -66.2092209    
   17.5499992      -66.7196960    
   17.6000004      -67.2317352    
   17.6499996      -67.7456436    
   17.7000008      -68.2616501    
   17.7500000      -68.7798691    
   17.7999992      -69.3002167    
   17.8500004      -69.8224487    
   17.8999996      -70.3462982    
   17.9500008      -70.8715210    
   18.0000000      -71.3980484    
   18.0499992      -71.9259567    
   18.1000004      -72.4554520    
   18.1499996      -72.9867401    
   18.2000008      -73.5200043    
   18.2500000      -74.0552292    
   18.2999992      -74.5922699    
   18.3500004      -75.1308365    
   18.3999996      -75.6706390    
   18.4500008      -76.2114410    
   18.5000000      -76.7531509    
   18.5499992      -77.2958069    
   18.6000004      -77.8395462    
   18.6499996      -78.3844681    
   18.7000008      -78.9305878    
   18.7500000      -79.4777527    
   18.7999992      -80.0256348    
   18.8500004      -80.5738297    
   18.8999996      -81.1219177    
   18.9500008      -81.6695480    
   19.0000000      -82.2164536    
   19.0499992      -82.7624893    
   19.1000004      -83.3074570    
   19.1499996      -83.8511200    
   19.2000008      -84.3930740    
   19.2500000      -84.9327393    
   19.2999992      -85.4693527    
   19.3500004      -86.0020828    
   19.3999996      -86.5300369    
   19.4500008      -87.0523453    
   19.5000000      -87.5681610    
   19.5499992      -88.0765915    
   19.6000004      -88.5766296    
   19.6499996      -89.0671234    
   19.7000008      -89.5466614    
   19.7500000      -90.0136185    
   19.7999992      -90.4661407    
   19.8500004      -90.9022141    
   19.8999996      -91.3197098    
   19.9500008      -91.7163544    
   20.0000000      -92.0897522    
   20.0499992      -92.4372864    
   20.1000004      -92.7561035    
   20.1499996      -93.0430374    
   20.2000008      -93.2946243    
   20.2500000      -93.5070801    
   20.2999992      -93.6763535    
   20.3500004      -93.7981567    
   20.3999996      -93.8679123    
   20.4500008      -93.8807602    
   20.5000000      -93.8315277    
   20.5499992      -93.7146912    
   20.6000004      -93.5243759    
   20.6499996      -93.2543716    
   20.7000008      -92.8981781    
   20.7500000      -92.4490662    
   20.7999992      -91.9000778    
   20.8500004      -91.2440338    
   20.8999996      -90.4735031    
   20.9500008      -89.5808258    
   21.0000000      -88.5579987    
   21.0499992      -87.3967590    
   21.1000004      -86.0886307    
   21.1499996      -84.6250534    
   21.2000008      -82.9974976    
   21.2500000      -81.1975784    
   21.2999992      -79.2170715    
   21.3500004      -77.0479355    
   21.3999996      -74.6822433    
   21.4500008      -72.1121521    
   21.5000000      -69.3299026    
   21.5499992      -66.3279495    
   21.6000004      -63.0991211    
   21.6499996      -59.6367531    
   21.7000008      -55.9349709    
   21.7500000      -51.9887733    
   21.7999992      -47.7940826    
   21.8500004      -43.3477097    
   21.8999996      -38.6472855    
   21.9500008      -33.6911926    
   22.0000000      -28.4786205    
   22.0499992      -23.0096760    
   22.1000004      -17.2855797    
   22.1499996      -11.3089018    
   22.2000008      -5.08374405    
   22.2500000       1.38418543    
   22.2999992       8.08760548    
   22.3500004       15.0177908    
   22.3999996       22.1647320    
   22.4500008       29.5172443    
   22.5000000       37.0629845    
   22.5499992       44.7883530    
   22.6000004       52.6783485    
   22.6499996       60.7163963    
   22.7000008       68.8842773    
   22.7500000       77.1621628    
   22.7999992       85.5288315    
   22.8500004       93.9619141    
   22.8999996       102.438194    
   22.9500008       110.933800    
   23.0000000       119.424286    
   23.0499992       127.884644    
   23.1000004       136.289215    
   23.1499996       144.611618    
   23.2000008       152.824844    
   23.2500000       160.901443    
   23.2999992       168.813828    
   23.3500004       176.534683    
   23.3999996       184.037323    
   23.4500008       191.295898    
   23.5000000       198.285461    
   23.5499992       204.982040    
   23.6000004       211.362473    
   23.6499996       217.404434    
   23.7000008       223.086502    
   23.7500000       228.388443    
   23.7999992       233.291550    
   23.8500004       237.778885    
   23.8999996       241.835693    
   23.9500008       245.449432    
   24.0000000       248.609787    
   24.0499992       251.308472    
   24.1000004       253.539185    
   24.1499996       255.297409    
   24.2000008       256.580475    
   24.2500000       257.387665    
   24.2999992       257.720490    
   24.3500004       257.582703    
   24.3999996       256.980499    
   24.4500008       255.922440    
   24.5000000       254.419098    
   24.5499992       252.482849    
   24.6000004       250.127640    
   24.6499996       247.368790    
   24.7000008       244.222870    
   24.7500000       240.707794    
   24.7999992       236.842834    
   24.8500004       232.648590    
   24.8999996       228.146866    
   24.9500008       223.360519    
   25.0000000       218.312973    
   25.0499992       213.028076    
   25.1000004       207.529694    
   25.1499996       201.841644    
   25.2000008       195.987717    
   25.2500000       189.991501    
   25.2999992       183.876633    
   25.3500004       177.666489    
   25.3999996       171.384186    
   25.4500008       165.052155    
   25.5000000       158.692032    
   25.5499992       152.324310    
   25.6000004       145.968338    
   25.6499996       139.642303    
   25.7000008       133.363373    
   25.7500000       127.147873    
   25.7999992       121.011177    
   25.8500004       114.967758    
   25.8999996       109.030922    
   25.9500008       103.212715    
   26.0000000       97.5236969    
   26.0499992       91.9729309    
   26.1000004       86.5680847    
   26.1499996       81.3156586    
   26.2000008       76.2212296    
   26.2500000       71.2896576    
   26.2999992       66.5250931    
   26.3500004       61.9308929    
   26.3999996       57.5094833    
   26.4500008       53.2621651    
   26.5000000       49.1890602    
   26.5499992       45.2892265    
   26.6000004       41.5608864    
   26.6499996       38.0017776    
   26.7000008       34.6094322    
   26.7500000       31.3813419    
   26.7999992       28.3149109    
   26.8500004       25.4073048    
   26.8999996       22.6551819    
   26.9500008       20.0545216    
   27.0000000       17.6005840    
   27.0499992       15.2880831    
   27.1000004       13.1115122    
   27.1499996       11.0655041    
   27.2000008       9.14510155    
   27.2500000       7.34584093    
   27.2999992       5.66361332    
   27.3500004       4.09438324    
   27.3999996       2.63386345    
   27.4500008       1.27730405    
   27.5000000       1.94797665E-02
   27.5499992      -1.14510107    
   27.6000004      -2.22184873    
   27.6499996      -3.21573210    
   27.7000008      -4.13104916    
   27.7500000      -4.97142172    
   27.7999992      -5.74000931    
   27.8500004      -6.43986130    
   27.8999996      -7.07426786    
   27.9500008      -7.64696360    
   28.0000000      -8.16210747    
   28.0499992      -8.62404823    
   28.1000004      -9.03696346    
   28.1499996      -9.40452480    
   28.2000008      -9.72971916    
   28.2500000      -10.0148964    
   28.2999992      -10.2620258    
   28.3500004      -10.4730577    
   28.3999996      -10.6502542    
   28.4500008      -10.7963409    
   28.5000000      -10.9144382    
   28.5499992      -11.0078058    
   28.6000004      -11.0794840    
   28.6499996      -11.1319942    
   28.7000008      -11.1672163    
   28.7500000      -11.1864729    
   28.7999992      -11.1907978    
   28.8500004      -11.1812773    
   28.8999996      -11.1593227    
   28.9500008      -11.1267767    
   29.0000000      -11.0858040    
   29.0499992      -11.0386372    
   29.1000004      -10.9872513    
   29.1499996      -10.9331226    
   29.2000008      -10.8771420    
   29.2500000      -10.8197317    
   29.2999992      -10.7610788    
   29.3500004      -10.7014370    
   29.3999996      -10.6413231    
   29.4500008      -10.5815859    
   29.5000000      -10.5232830    
   29.5499992      -10.4674530    
   29.6000004      -10.4148703    
   29.6499996      -10.3658562    
   29.7000008      -10.3202600    
   29.7500000      -10.2775612    
   29.7999992      -10.2370920    
   29.8500004      -10.1982565    
   29.8999996      -10.1606865    
   29.9500008      -10.1242819    
   30.0000000      -10.0891180    
   30.0499992      -10.0552807    
   30.1000004      -10.0227022    
   30.1499996      -9.99105740    
   30.2000008      -9.95974827    
   30.2500000      -9.92800140    
   30.2999992      -9.89500523    
   30.3500004      -9.86005402    
   30.3999996      -9.82263947    
   30.4500008      -9.78247833    
   30.5000000      -9.73945999    
   30.5499992      -9.69357777    
   30.6000004      -9.64484119    
   30.6499996      -9.59323311    
   30.7000008      -9.53870392    
   30.7500000      -9.48119450    
   30.7999992      -9.42068768    
   30.8500004      -9.35723972    
   30.8999996      -9.29100895    
   30.9500008      -9.22225475    
   31.0000000      -9.15133858    
   31.0499992      -9.07871532    
   31.1000004      -9.00493717    
   31.1499996      -8.93062782    
   31.2000008      -8.85647011    
   31.2500000      -8.78315353    
   31.2999992      -8.71132088    
   31.3500004      -8.64151192    
   31.3999996      -8.57413673    
   31.4500008      -8.50949383    
   31.5000000      -8.44781303    
   31.5499992      -8.38933945    
   31.6000004      -8.33439922    
   31.6499996      -8.28341675    
   31.7000008      -8.23688030    
   31.7500000      -8.19524002    
   31.7999992      -8.15877819    
   31.8500004      -8.12751007    
   31.8999996      -8.10113811    
   31.9500008      -8.07910347    
   32.0000000      -8.06070518    
   32.0499992      -8.04526424    
   32.0999985      -8.03224850    
   32.1500015      -8.02132702    
   32.2000008      -8.01232433    
   32.2500000      -8.00508595    
   32.2999992      -7.99932003    
   32.3499985      -7.99446535    
   32.4000015      -7.98967218    
   32.4500008      -7.98388386    
   32.5000000      -7.97601080    
   32.5499992      -7.96513557    
   32.5999985      -7.95066023    
   32.6500015      -7.93235159    
   32.7000008      -7.91026115    
   32.7500000      -7.88455486    
   32.7999992      -7.85532856    
   32.8499985      -7.82247162    
   32.9000015      -7.78565693    
   32.9500008      -7.74444866    
   33.0000000      -7.69849825    
   33.0499992      -7.64773607    
   33.0999985      -7.59249496    
   33.1500015      -7.53350306    
   33.2000008      -7.47174692    
   33.2500000      -7.40825558    
   33.2999992      -7.34388494    
   33.3499985      -7.27919531    
   33.4000015      -7.21445131    
   33.4500008      -7.14975977    
   33.5000000      -7.08527088    
   33.5499992      -7.02136946    
   33.5999985      -6.95876789    
   33.6500015      -6.89846039    
   33.7000008      -6.84155226    
   33.7500000      -6.78902912    
   33.7999992      -6.74154806    
   33.8499985      -6.69933176    
   33.9000015      -6.66221142    
   33.9500008      -6.62978411    
   34.0000000      -6.60163212    
   34.0499992      -6.57750988    
   34.0999985      -6.55743027    
   34.1500015      -6.54161167    
   34.2000008      -6.53031206    
   34.2500000      -6.52361774    
   34.2999992      -6.52126884    
   34.3499985      -6.52259827    
   34.4000015      -6.52660561    
   34.4500008      -6.53213882    
   34.5000000      -6.53812361    
   34.5499992      -6.54374886    
   34.5999985      -6.54854727    
   34.6500015      -6.55234146    
   34.7000008      -6.55509043    
   34.7500000      -6.55669022    
   34.7999992      -6.55681849    
   34.8499985      -6.55487394    
   34.9000015      -6.55004501    
   34.9500008      -6.54147291    
   35.0000000      -6.52845383    
   35.0499992      -6.51060534    
   35.0999985      -6.48794079    
   35.1500015      -6.46082592    
   35.2000008      -6.42983770    
   35.2500000      -6.39558220    
   35.2999992      -6.35853148    
   35.3499985      -6.31894302    
   35.4000015      -6.27688313    
   35.4500008      -6.23233747    
   35.5000000      -6.18537092    
   35.5499992      -6.13626766    
   35.5999985      -6.08560658    
   35.6500015      -6.03423738    
   35.7000008      -5.98317003    
   35.7500000      -5.93340826    
   35.7999992      -5.88578463    
   35.8499985      -5.84085035    
   35.9000015      -5.79885387    
   35.9500008      -5.75980997    
   36.0000000      -5.72363710    
   36.0499992      -5.69030905    
   36.0999985      -5.65997314    
   36.1500015      -5.63298750    
   36.2000008      -5.60986471    
   36.2500000      -5.59114361    
   36.2999992      -5.57721710    
   36.3499985      -5.56819344    
   36.4000015      -5.56381559    
   36.4500008      -5.56349516    
   36.5000000      -5.56643057    
   36.5499992      -5.57179165    
   36.5999985      -5.57889509    
   36.6500015      -5.58732510    
   36.7000008      -5.59694338    
   36.7500000      -5.60779762    
   36.7999992      -5.61994219    