  -6.00000000       0.00000000    
  -5.94999981       0.00000000    
  -5.90000010       0.00000000    
  -5.84999990       0.00000000    
  -5.80000019       0.00000000    
  -5.75000000       0.00000000    
  -5.69999981       0.00000000    
  -5.65000010       0.00000000    
  -5.59999990       0.00000000    
  -5.55000019       2.38700790E-26
  -5.50000000       1.70315020E-25
  -5.44999981       3.16706601E-25
  -5.40000010      -4.10591316E-26
  -5.34999990       1.17322952E-23
  -5.30000019       1.50425942E-22
  -5.25000000       9.36161961E-22
  -5.19999981       3.89604573E-21
  -5.15000010       1.19344019E-20
  -5.09999990       2.73176559E-20
  -5.05000019       4.30948045E-20
  -5.00000000       2.47561990E-20
  -4.94999981      -1.10407312E-19
  -4.90000010      -4.83157798E-19
  -4.84999990      -1.14638196E-18
  -4.80000019      -1.81874104E-18
  -4.75000000      -1.49520506E-18
  -4.69999981       1.76696470E-18
  -4.65000010       1.02228721E-17
  -4.59999990       2.41333368E-17
  -4.55000019       3.74963784E-17
  -4.50000000       3.33984297E-17
  -4.44999981      -1.63331543E-17
  -4.40000010      -1.39686943E-16
  -4.34999990      -3.34650568E-16
  -4.30000019      -5.23412469E-16
  -4.25000000      -5.12187112E-16
  -4.19999981      -2.86002743E-18
  -4.15000010       1.28333062E-15
  -4.09999990       3.33210225E-15
  -4.05000019       5.45702162E-15
  -4.00000000       6.00246637E-15
  -3.95000005       2.46937146E-15
  -3.90000010      -7.54378554E-15
  -3.84999990      -2.43903781E-14
  -3.79999995      -4.37752963E-14
  -3.75000000      -5.47193855E-14
  -3.70000005      -4.01285450E-14
  -3.65000010       1.78115054E-14
  -3.59999990       1.26378820E-13
  -3.54999995       2.67133185E-13
  -3.50000000       3.83085951E-13
  -3.45000005       3.78536558E-13
  -3.40000010       1.42782704E-13
  -3.34999990      -3.96462648E-13
  -3.29999995      -1.19738334E-12
  -3.25000000      -2.03274311E-12
  -3.20000005      -2.46772871E-12
  -3.15000010      -1.93738255E-12
  -3.09999990       4.50161318E-14
  -3.04999995       3.56755099E-12
  -3.00000000       7.98084342E-12
  -2.95000005       1.17085161E-11
  -2.90000010       1.24076140E-11
  -2.84999990       7.62742473E-12
  -2.79999995      -4.04755396E-12
  -2.75000000      -2.16401844E-11
  -2.70000005      -4.07500769E-11
  -2.65000010      -5.35497063E-11
  -2.59999990      -5.04089166E-11
  -2.54999995      -2.33005819E-11
  -2.50000000       2.96285843E-11
  -2.45000005       9.98217134E-11
  -2.40000010       1.66541836E-10
  -2.34999990       1.99650782E-10
  -2.29999995       1.67974398E-10
  -2.25000000       5.22559426E-11
  -2.20000005      -1.40848430E-10
  -2.15000010      -3.69404701E-10
  -2.09999990      -5.57675184E-10
  -2.04999995      -6.12636775E-10
  -2.00000000      -4.54999399E-10
  -1.95000005      -5.76399206E-11
  -1.89999998       5.21802823E-10
  -1.85000002       1.13033360E-09
  -1.79999995       1.54422986E-09
  -1.75000000       1.53229740E-09
  -1.70000005       9.46072776E-10
  -1.64999998      -1.90507207E-10
  -1.60000002      -1.62940106E-09
  -1.54999995      -2.91981817E-09
  -1.50000000      -3.51964369E-09
  -1.45000005      -2.98222935E-09
  -1.39999998      -1.16725452E-09
  -1.35000002       1.60325753E-09
  -1.29999995       4.52650983E-09
  -1.25000000       6.49121201E-09
  -1.20000005       6.43197451E-09
  -1.14999998       3.77873599E-09
  -1.10000002      -1.15361642E-09
  -1.04999995      -7.01546909E-09
  -1.00000000      -1.16511218E-08
 -0.949999988      -1.27323476E-08
 -0.899999976      -8.66500827E-09
 -0.850000024       5.16812260E-10
 -0.800000012       1.26389947E-08
 -0.750000000       2.35868907E-08
 -0.699999988       2.83580253E-08
 -0.649999976       2.28085444E-08
 -0.600000024       5.60643931E-09
 -0.550000012      -2.03251762E-08
 -0.500000000      -4.76031659E-08
 -0.449999988      -6.58727615E-08
 -0.400000006      -6.49126193E-08
 -0.349999994      -3.86275758E-08
 -0.300000012       1.13519301E-08
 -0.250000000       7.39539558E-08
 -0.200000003       1.30017071E-07
 -0.150000006       1.57054856E-07
 -0.100000001       1.36585058E-07
  -5.00000007E-02   6.19924094E-08
   0.00000000      -5.58304940E-08
   5.00000007E-02  -1.87702682E-07
  0.100000001      -2.91751178E-07
  0.150000006      -3.24950804E-07
  0.200000003      -2.57919424E-07
  0.250000000      -8.84761988E-08
  0.300000012       1.51124141E-07
  0.349999994       3.97270952E-07
  0.400000006       5.69619999E-07
  0.449999988       5.94695734E-07
  0.500000000       4.32229228E-07
  0.550000012       9.57388693E-08
  0.600000024      -3.40872333E-07
  0.649999976      -7.55746044E-07
  0.699999988      -1.01003013E-06
  0.750000000      -9.90461331E-07
  0.800000012      -6.51433993E-07
  0.850000024      -4.23903153E-08
  0.899999976       6.91198238E-07
  0.949999988       1.33817161E-06
   1.00000000       1.67863743E-06
   1.04999995       1.55322243E-06
   1.10000002       9.23935943E-07
   1.14999998      -9.45030294E-08
   1.20000005      -1.24754877E-06
   1.25000000      -2.20030620E-06
   1.29999995      -2.63115976E-06
   1.35000002      -2.33427591E-06
   1.39999998      -1.29941202E-06
   1.45000005       2.59376236E-07
   1.50000000       1.94173117E-06
   1.54999995       3.26182590E-06
   1.60000002       3.78761365E-06
   1.64999998       3.27898806E-06
   1.70000005       1.78128323E-06
   1.75000000      -3.59960865E-07
   1.79999995      -2.57559486E-06
   1.85000002      -4.22574658E-06
   1.89999998      -4.78829133E-06
   1.95000005      -4.02711703E-06
   2.00000000      -2.08576671E-06
   2.04999995       5.29075180E-07
   2.09999990       3.07788332E-06
   2.15000010       4.80021890E-06
   2.20000005       5.14769954E-06
   2.25000000       3.96612040E-06
   2.29999995       1.56571116E-06
   2.34999990      -1.35023117E-06
   2.40000010      -3.88493982E-06
   2.45000005      -5.22071423E-06
   2.50000000      -4.88205387E-06
   2.54999995      -2.90476783E-06
   2.59999990       1.48658060E-07
   2.65000010       3.34127094E-06
   2.70000005       5.64195943E-06
   2.75000000       6.25061466E-06
   2.79999995       4.86557246E-06
   2.84999990       1.80385746E-06
   2.90000010      -2.07209450E-06
   2.95000005      -5.60666604E-06
   3.00000000      -7.70816132E-06
   3.04999995      -7.69845974E-06
   3.09999990      -5.53992777E-06
   3.15000010      -1.85974284E-06
   3.20000005       2.24401469E-06
   3.25000000       5.55717725E-06
   3.29999995       7.15046053E-06
   3.34999990       6.69054407E-06
   3.40000010       4.54973906E-06
   3.45000005       1.66750283E-06
   3.50000000      -7.97609687E-07
   3.54999995      -1.90963760E-06
   3.59999990      -1.33302581E-06
   3.65000010       4.99245743E-07
   3.70000005       2.50778407E-06
   3.75000000       3.35955042E-06
   3.79999995       2.00922591E-06
   3.84999990      -1.80114193E-06
   3.90000010      -7.28076066E-06
   3.95000005      -1.26989789E-05
   4.00000000      -1.58765924E-05
   4.05000019      -1.49331254E-05
   4.09999990      -9.05348134E-06
   4.15000010       1.00227464E-06
   4.19999981       1.28687398E-05
   4.25000000       2.31086124E-05
   4.30000019       2.82077108E-05
   4.34999990       2.57548509E-05
   4.40000010       1.54281224E-05
   4.44999981      -5.76178934E-07
   4.50000000      -1.78956361E-05
   4.55000019      -3.11253170E-05
   4.59999990      -3.54445147E-05
   4.65000010      -2.82769543E-05
   4.69999981      -1.04443161E-05
   4.75000000       1.36285071E-05
   4.80000019       3.68441652E-05
   4.84999990       5.13433661E-05
   4.90000010       5.09066740E-05
   4.94999981       3.31462979E-05
   5.00000000       7.73694182E-07
   5.05000019      -3.85601816E-05
   5.09999990      -7.39646057E-05
   5.15000010      -9.41969120E-05
   5.19999981      -9.09860246E-05
   5.25000000      -6.18324193E-05
   5.30000019      -1.13932438E-05
   5.34999990       4.90944512E-05
   5.40000010       1.04360530E-04
   5.44999981       1.39042721E-04
   5.50000000       1.41988508E-04
   5.55000019       1.09701912E-04
   5.59999990       4.78822731E-05
   5.65000010      -2.95127702E-05
   5.69999981      -1.03566927E-04
   5.75000000      -1.55267029E-04
   5.80000019      -1.70634899E-04
   5.84999990      -1.44696634E-04
   5.90000010      -8.31245925E-05
   5.94999981      -1.00421926E-06
   6.00000000       8.10230194E-05
   6.05000019       1.42233170E-04
   6.09999990       1.67412858E-04
   6.15000010       1.51002299E-04
   6.19999981       9.85969746E-05
   6.25000000       2.53480266E-05
   6.30000019      -4.83197327E-05
   6.34999990      -1.02480757E-04
   6.40000010      -1.23342616E-04
   6.44999981      -1.07141073E-04
   6.50000000      -6.11929718E-05
   6.55000019      -1.82516385E-06
   6.59999990       5.01949944E-05
   6.65000010       7.53792920E-05
   6.69999981       6.07169241E-05
   6.75000000       2.85615374E-06
   6.80000019      -9.16034405E-05
   6.84999990      -2.08700731E-04
   6.90000010      -3.31709191E-04
   6.94999981      -4.46275517E-04
   7.00000000      -5.44511538E-04
   7.05000019      -6.26827357E-04
   7.09999990      -7.01051729E-04
   7.15000010      -7.79287191E-04
   7.19999981      -8.73693440E-04
   7.25000000      -9.92744695E-04
   7.30000019      -1.13933394E-03
   7.34999990      -1.31145888E-03
   7.40000010      -1.50530913E-03
   7.44999981      -1.71969563E-03
   7.50000000      -1.96021958E-03
   7.55000019      -2.24156561E-03
   7.59999990      -2.58685602E-03
   7.65000010      -3.02397809E-03
   7.69999981      -3.57985054E-03
   7.75000000      -4.27443348E-03
   7.80000019      -5.11655351E-03
   7.84999990      -6.10321900E-03
   7.90000010      -7.22312042E-03
   7.94999981      -8.46371334E-03
   8.00000000      -9.82007198E-03
   8.05000019      -1.13030076E-02
   8.10000038      -1.29439645E-02
   8.14999962      -1.47950323E-02
   8.19999981      -1.69238243E-02
   8.25000000      -1.94044784E-02
   8.30000019      -2.23073475E-02
   8.35000038      -2.56904252E-02
   8.39999962      -2.95951720E-02
   8.44999981      -3.40482779E-02
   8.50000000      -3.90690453E-02
   8.55000019      -4.46806215E-02
   8.60000038      -5.09219356E-02
   8.64999962      -5.78571074E-02
   8.69999981      -6.55797645E-02
   8.75000000      -7.42111281E-02
   8.80000019      -8.38926956E-02
   8.85000038      -9.47757363E-02
   8.89999962     -0.107010938    
   8.94999981     -0.120741136    
   9.00000000     -0.136099339    
   9.05000019     -0.153212339    
   9.10000038     -0.172208682    
   9.14999962     -0.193228349    
   9.19999981     -0.216431201    
   9.25000000     -0.242001787    
   9.30000019     -0.270149171    
   9.35000038     -0.301102459    
   9.39999962     -0.335103840    
   9.44999981     -0.372401804    
   9.50000000     -0.413247138    
   9.55000019     -0.457892805    
   9.60000038     -0.506598175    
   9.64999962     -0.559635580    
   9.69999981     -0.617296636    
   9.75000000     -0.679895878    
   9.80000019     -0.747769594    
   9.85000038     -0.821269333    
   9.89999962     -0.900751650    
   9.94999981     -0.986566544    
   10.0000000      -1.07904816    
   10.0500002      -1.17851043    
   10.1000004      -1.28524899    
   10.1499996      -1.39954901    
   10.1999998      -1.52169597    
   10.2500000      -1.65198767    
   10.3000002      -1.79074037    
   10.3500004      -1.93828869    
   10.3999996      -2.09497738    
   10.4499998      -2.26114559    
   10.5000000      -2.43710756    
   10.5500002      -2.62313390    
   10.6000004      -2.81943631    
   10.6499996      -3.02616429    
   10.6999998      -3.24340677    
   10.7500000      -3.47120619    
   10.8000002      -3.70957398    
   10.8500004      -3.95850611    
   10.8999996      -4.21799183    
   10.9499998      -4.48801756    
   11.0000000      -4.76855326    
   11.0500002      -5.05953646    
   11.1000004      -5.36084986    
   11.1499996      -5.67229891    
   11.1999998      -5.99359894    
   11.2500000      -6.32437229    
   11.3000002      -6.66415262    
   11.3500004      -7.01240683    
   11.3999996      -7.36855412    
   11.4499998      -7.73198557    
   11.5000000      -8.10208035    
   11.5500002      -8.47820568    
   11.6000004      -8.85970783    
   11.6499996      -9.24589539    
   11.6999998      -9.63602161    
   11.7500000      -10.0292654    
   11.8000002      -10.4247274    
   11.8500004      -10.8214350    
   11.8999996      -11.2183619    
   11.9499998      -11.6144533    
   12.0000000      -12.0086546    
   12.0500002      -12.3999319    
   12.1000004      -12.7872877    
   12.1499996      -13.1697540    
   12.1999998      -13.5463867    
   12.2500000      -13.9162483    
   12.3000002      -14.2783937    
   12.3500004      -14.6318626    
   12.3999996      -14.9756851    
   12.4499998      -15.3088970    
   12.5000000      -15.6305628    
   12.5500002      -15.9398031    
   12.6000004      -16.2358208    
   12.6499996      -16.5179100    
   12.6999998      -16.7854557    
   12.7500000      -17.0379314    
   12.8000002      -17.2748852    
   12.8500004      -17.4959126    
   12.8999996      -17.7006569    
   12.9499998      -17.8888073    
   13.0000000      -18.0600929    
   13.0500002      -18.2143078    
   13.1000004      -18.3513260    
   13.1499996      -18.4711132    
   13.1999998      -18.5737381    
   13.2500000      -18.6593742    
   13.3000002      -18.7282867    
   13.3500004      -18.7808266    
   13.3999996      -18.8174152    
   13.4499998      -18.8385277    
   13.5000000      -18.8446846    
   13.5500002      -18.8364544    
   13.6000004      -18.8144360    
   13.6499996      -18.7792797    
   13.6999998      -18.7316761    
   13.7500000      -18.6723652    
   13.8000002      -18.6021252    
   13.8500004      -18.5217781    
   13.8999996      -18.4321690    
   13.9499998      -18.3341618    
   14.0000000      -18.2286243    
   14.0500002      -18.1164265    
   14.1000004      -17.9984341    
   14.1499996      -17.8754978    
   14.1999998      -17.7484570    
   14.2500000      -17.6181431    
   14.3000002      -17.4853821    
   14.3500004      -17.3509827    
   14.3999996      -17.2157574    
   14.4499998      -17.0804844    
   14.5000000      -16.9459209    
   14.5500002      -16.8127766    
   14.6000004      -16.6817093    
   14.6499996      -16.5532990    
   14.6999998      -16.4280643    
   14.7500000      -16.3064594    
   14.8000002      -16.1888828    
   14.8500004      -16.0757103    
   14.8999996      -15.9672937    
   14.9499998      -15.8639860    
   15.0000000      -15.7661362    
   15.0500002      -15.6740875    
   15.1000004      -15.5881510    
   15.1499996      -15.5085907    
   15.1999998      -15.4355974    
   15.2500000      -15.3692904    
   15.3000002      -15.3097048    
   15.3500004      -15.2568188    
   15.3999996      -15.2105675    
   15.4499998      -15.1708670    
   15.5000000      -15.1376362    
   15.5500002      -15.1108027    
   15.6000004      -15.0902977    
   15.6499996      -15.0760527    
   15.6999998      -15.0679779    
   15.7500000      -15.0659513    
   15.8000002      -15.0698175    
   15.8500004      -15.0793867    
   15.8999996      -15.0944529    
   15.9499998      -15.1148033    
   16.0000000      -15.1402388    
   16.0499992      -15.1705770    
   16.1000004      -15.2056503    
   16.1499996      -15.2452984    
   16.2000008      -15.2893581    
   16.2500000      -15.3376465    
   16.2999992      -15.3899622    
   16.3500004      -15.4460821    
   16.3999996      -15.5057774    
   16.4500008      -15.5688229    
   16.5000000      -15.6350107    
   16.5499992      -15.7041550    
   16.6000004      -15.7760925    
   16.6499996      -15.8506813    
   16.7000008      -15.9277830    
   16.7500000      -16.0072613    
   16.7999992      -16.0889721    
   16.8500004      -16.1727638    
   16.8999996      -16.2584896    
   16.9500008      -16.3460064    
   17.0000000      -16.4351902    
   17.0499992      -16.5259361    
   17.1000004      -16.6181641    
   17.1499996      -16.7118092    
   17.2000008      -16.8068161    
   17.2500000      -16.9031315    
   17.2999992      -17.0006962    
   17.3500004      -17.0994453    
   17.3999996      -17.1993084    
   17.4500008      -17.3002052    
   17.5000000      -17.4020596    
   17.5499992      -17.5047970    
   17.6000004      -17.6083508    
   17.6499996      -17.7126675    
   17.7000008      -17.8177109    
   17.7500000      -17.9234581    
   17.7999992      -18.0298977    
   17.8500004      -18.1370316    
   17.8999996      -18.2448807    
   17.9500008      -18.3534565    
   18.0000000      -18.4627781    
   18.0499992      -18.5728531    
   18.1000004      -18.6836777    
   18.1499996      -18.7952404    
   18.2000008      -18.9075203    
   18.2500000      -19.0204926    
   18.2999992      -19.1341381    
   18.3500004      -19.2484398    
   18.3999996      -19.3633938    
   18.4500008      -19.4789906    
   18.5000000      -19.5952301    
   18.5499992      -19.7120953    
   18.6000004      -19.8295708    
   18.6499996      -19.9476357    
   18.7000008      -20.0662651    
   18.7500000      -20.1854534    
   18.7999992      -20.3051949    
   18.8500004      -20.4255180    
   18.8999996      -20.5464649    
   18.9500008      -20.6681042    
   19.0000000      -20.7905140    
   19.0499992      -20.9137688    
   19.1000004      -21.0379486    
   19.1499996      -21.1631184    
   19.2000008      -21.2893238    
   19.2500000      -21.4165916    
   19.2999992      -21.5449314    
   19.3500004      -21.6743469    
   19.3999996      -21.8048363    
   19.4500008      -21.9364052    
   19.5000000      -22.0690823    
   19.5499992      -22.2029247    
   19.6000004      -22.3380299    
   19.6499996      -22.4745426    
   19.7000008      -22.6126328    
   19.7500000      -22.7525043    
   19.7999992      -22.8943787    
   19.8500004      -23.0384750    
   19.8999996      -23.1850071    
   19.9500008      -23.3341808    
   20.0000000      -23.4861946    
   20.0499992      -23.6412449    
   20.1000004      -23.7995281    
   20.1499996      -23.9612579    
   20.2000008      -24.1266632    
   20.2500000      -24.2959881    
   20.2999992      -24.4694958    
   20.3500004      -24.6474533    
   20.3999996      -24.8301506    
   20.4500008      -25.0178890    
   20.5000000      -25.2110119    
   20.5499992      -25.4099064    
   20.6000004      -25.6150131    
   20.6499996      -25.8268261    
   20.7000008      -26.0458717    
   20.7500000      -26.2727070    
   20.7999992      -26.5078831    
   20.8500004      -26.7519436    
   20.8999996      -27.0054092    
   20.9500008      -27.2687969    
   21.0000000      -27.5426178    
   21.0499992      -27.8274193    
   21.1000004      -28.1237736    
   21.1499996      -28.4322872    
   21.2000008      -28.7535877    
   21.2500000      -29.0883102    
   21.2999992      -29.4370804    
   21.3500004      -29.8005009    
   21.3999996      -30.1791553    
   21.4500008      -30.5736179    
   21.5000000      -30.9844742    
   21.5499992      -31.4123306    
   21.6000004      -31.8578033    
   21.6499996      -32.3214951    
   21.7000008      -32.8039703    
   21.7500000      -33.3056908    
   21.7999992      -33.8270035    
   21.8500004      -34.3681068    
   21.8999996      -34.9290657    
   21.9500008      -35.5098267    
   22.0000000      -36.1102638    
   22.0499992      -36.7301865    
   22.1000004      -37.3693619    
   22.1499996      -38.0274963    
   22.2000008      -38.7041893    
   22.2500000      -39.3988953    
   22.2999992      -40.1109123    
   22.3500004      -40.8393364    
   22.3999996      -41.5830956    
   22.4500008      -42.3409615    
   22.5000000      -43.1116066    
   22.5499992      -43.8936005    
   22.6000004      -44.6854286    
   22.6499996      -45.4854622    
   22.7000008      -46.2919273    
   22.7500000      -47.1028862    
   22.7999992      -47.9161987    
   22.8500004      -48.7295380    
   22.8999996      -49.5404434    
   22.9500008      -50.3463783    
   23.0000000      -51.1447792    
   23.0499992      -51.9330864    
   23.1000004      -52.7087975    
   23.1499996      -53.4694176    
   23.2000008      -54.2124290    
   23.2500000      -54.9352951    
   23.2999992      -55.6354065    
   23.3500004      -56.3101273    
   23.3999996      -56.9568291    
   23.4500008      -57.5729637    
   23.5000000      -58.1560898    
   23.5499992      -58.7039185    
   23.6000004      -59.2143326    
   23.6499996      -59.6853447    
   23.7000008      -60.1150742    
   23.7500000      -60.5017319    
   23.7999992      -60.8436356    
   23.8500004      -61.1392365    
   23.8999996      -61.3871689    
   23.9500008      -61.5863457    
   24.0000000      -61.7359428    
   24.0499992      -61.8354683    
   24.1000004      -61.8846931    
   24.1499996      -61.8836136    
   24.2000008      -61.8323898    
   24.2500000      -61.7312851    
   24.2999992      -61.5806923    
   24.3500004      -61.3811226    
   24.3999996      -61.1332779    
   24.4500008      -60.8381042    
   24.5000000      -60.4968071    
   24.5499992      -60.1108665    
   24.6000004      -59.6819725    
   24.6499996      -59.2119751    
   24.7000008      -58.7028236    
   24.7500000      -58.1565094    
   24.7999992      -57.5750732    
   24.8500004      -56.9606247    
   24.8999996      -56.3153877    
   24.9500008      -55.6417084    
   25.0000000      -54.9420967    
   25.0499992      -54.2191772    
   25.1000004      -53.4756165    
   25.1499996      -52.7140541    
   25.2000008      -51.9370575    
   25.2500000      -51.1470566    
   25.2999992      -50.3463669    
   25.3500004      -49.5372314    
   25.3999996      -48.7218704    
   25.4500008      -47.9025192    
   25.5000000      -47.0814552    
   25.5499992      -46.2609482    
   25.6000004      -45.4432220    
   25.6499996      -44.6303711    
   25.7000008      -43.8242950    
   25.7500000      -43.0267029    
   25.7999992      -42.2391090    
   25.8500004      -41.4628525    
   25.8999996      -40.6991997    
   25.9500008      -39.9493599    
   26.0000000      -39.2145004    
   26.0499992      -38.4957466    
   26.1000004      -37.7941360    
   26.1499996      -37.1105690    
   26.2000008      -36.4457779    
   26.2500000      -35.8003273    
   26.2999992      -35.1746063    
   26.3500004      -34.5688934    
   26.3999996      -33.9833679    
   26.4500008      -33.4181671    
   26.5000000      -32.8733711    
   26.5499992      -32.3489838    
   26.6000004      -31.8449516    
   26.6499996      -31.3611259    
   26.7000008      -30.8972626    
   26.7500000      -30.4530430    
   26.7999992      -30.0281029    
   26.8500004      -29.6220531    
   26.8999996      -29.2344990    
   26.9500008      -28.8650303    
   27.0000000      -28.5132103    
   27.0499992      -28.1785603    
   27.1000004      -27.8605347    
   27.1499996      -27.5585403    
   27.2000008      -27.2719440    
   27.2500000      -27.0001240    
   27.2999992      -26.7424717    
   27.3500004      -26.4984341    
   27.3999996      -26.2674675    
   27.4500008      -26.0490437    
   27.5000000      -25.8426037    
   27.5499992      -25.6475353    
   27.6000004      -25.4631824    
   27.6499996      -25.2888641    
   27.7000008      -25.1239357    
   27.7500000      -24.9678288    
   27.7999992      -24.8200722    
   27.8500004      -24.6802959    
   27.8999996      -24.5481796    
   27.9500008      -24.4234047    
   28.0000000      -24.3055973    
   28.0499992      -24.1942883    
   28.1000004      -24.0889359    
   28.1499996      -23.9889584    
   28.2000008      -23.8938274    
   28.2500000      -23.8031082    
   28.2999992      -23.7165070    
   28.3500004      -23.6338463    
   28.3999996      -23.5550270    
   28.4500008      -23.4799423    
   28.5000000      -23.4084129    
   28.5499992      -23.3401642    
   28.6000004      -23.2748280    
   28.6499996      -23.2120113    
   28.7000008      -23.1513519    
   28.7500000      -23.0925999    
   28.7999992      -23.0356312    
   28.8500004      -22.9804268    
   28.8999996      -22.9270153    
   28.9500008      -22.8753891    
   29.0000000      -22.8254566    
   29.0499992      -22.7770119    
   29.1000004      -22.7297783    
   29.1499996      -22.6834755    
   29.2000008      -22.6378860    
   29.2500000      -22.5929298    
   29.2999992      -22.5486507    
   29.3500004      -22.5051956    
   29.3999996      -22.4627323    
   29.4500008      -22.4213562    
   29.5000000      -22.3810520    
   29.5499992      -22.3416729    
   29.6000004      -22.3029900    
   29.6499996      -22.2647705    
   29.7000008      -22.2268448    
   29.7500000      -22.1891708    
   29.7999992      -22.1518288    
   29.8500004      -22.1149769    
   29.8999996      -22.0787792    
   29.9500008      -22.0433350    
   30.0000000      -22.0086269    
   30.0499992      -21.9745369    
   30.1000004      -21.9408894    
   30.1499996      -21.9075108    
   30.2000008      -21.8743153    
   30.2500000      -21.8413239    
   30.2999992      -21.8086452    
   30.3500004      -21.7764435    
   30.3999996      -21.7448559    
   30.4500008      -21.7139359    
   30.5000000      -21.6836300    
   30.5499992      -21.6538010    
   30.6000004      -21.6242771    
   30.6499996      -21.5949078    
   30.7000008      -21.5656319    
   30.7500000      -21.5364704    
   30.7999992      -21.5075188    
   30.8500004      -21.4788895    
   30.8999996      -21.4506493    
   30.9500008      -21.4227962    
   31.0000000      -21.3952408    
   31.0499992      -21.3678532    
   31.1000004      -21.3405056    
   31.1499996      -21.3131218    
   31.2000008      -21.2856998    
   31.2500000      -21.2583084    
   31.2999992      -21.2310429    
   31.3500004      -21.2039776    
   31.3999996      -21.1771278    
   31.4500008      -21.1504364    
   31.5000000      -21.1237965    
   31.5499992      -21.0971031    
   31.6000004      -21.0702839    
   31.6499996      -21.0433559    
   31.7000008      -21.0164108    
   31.7500000      -20.9895840    
   31.7999992      -20.9630032    
   31.8500004      -20.9367390    
   31.8999996      -20.9107704    
   31.9500008      -20.8850021    
   32.0000000      -20.8592854    
   32.0499992      -20.8334980    
   32.0999985      -20.8075809    
   32.1500015      -20.7815628    
   32.2000008      -20.7555542    
   32.2500000      -20.7297058    
   32.2999992      -20.7041454    
   32.3499985      -20.6789455    
   32.4000015      -20.6540947    
   32.4500008      -20.6295280    
   32.5000000      -20.6051464    
   32.5499992      -20.5808811    
   32.5999985      -20.5567150    
   32.6500015      -20.5326958    
   32.7000008      -20.5089035    
   32.7500000      -20.4854069    
   32.7999992      -20.4622345    
   32.8499985      -20.4393368    
   32.9000015      -20.4166069    
   32.9500008      -20.3939075    
   33.0000000      -20.3711319    
   33.0499992      -20.3482380    
   33.0999985      -20.3252659    
   33.1500015      -20.3023186    
   33.2000008      -20.2795181    
   33.2500000      -20.2569542    
   33.2999992      -20.2346478    
   33.3499985      -20.2125378    
   33.4000015      -20.1905098    
   33.4500008      -20.1684322    
   33.5000000      -20.1462212    
   33.5499992      -20.1238708    
   33.5999985      -20.1014519    
   33.6500015      -20.0790825    
   33.7000008      -20.0568771    
   33.7500000      -20.0348949    
   33.7999992      -20.0131035    
   33.8499985      -19.9914036    
   33.9000015      -19.9696522    
   33.9500008      -19.9477348    
   34.0000000      -19.9256134    
   34.0499992      -19.9033508    
   34.0999985      -19.8811131    
   34.1500015      -19.8591003    
   34.2000008      -19.8374996    
   34.2500000      -19.8164215    
   34.2999992      -19.7958660    
   34.3499985      -19.7757263    
   34.4000015      -19.7558479    
   34.4500008      -19.7360706    
   34.5000000      -19.7162895    
   34.5499992      -19.6964798    
   34.5999985      -19.6767044    
   34.6500015      -19.6570606    
   34.7000008      -19.6376362    
   34.7500000      -19.6184750    
   34.7999992      -19.5995407    
   34.8499985      -19.5807476    
   34.9000015      -19.5619831    
   34.9500008      -19.5431671    
   35.0000000      -19.5242863    
   35.0499992      -19.5053997    
   35.0999985      -19.4866314    
   35.1500015      -19.4681206    
   35.2000008      -19.4499683    
   35.2500000      -19.4321957    
   35.2999992      -19.4147320    
   35.3499985      -19.3974209    
   35.4000015      -19.3800716    
   35.4500008      -19.3625011    
   35.5000000      -19.3445816    
   35.5499992      -19.3262806    
   35.5999985      -19.3076344    
   35.6500015      -19.2887497    
   35.7000008      -19.2697487    
   35.7500000      -19.2507362    
   35.7999992      -19.2317753    
   35.8499985      -19.2128849    
   35.9000015      -19.1940422    
   35.9500008      -19.1752014    
   36.0000000      -19.1563358    
   36.0499992      -19.1374321    
   36.0999985      -19.1185188    
   36.1500015      -19.0996456    
   36.2000008      -19.0808697    
   36.2500000      -19.0622463    
   36.2999992      -19.0438061    
   36.3499985      -19.0255527    
   36.4000015      -19.0074482    
   36.4500008      -18.9894466    
   36.5000000      -18.9714832    
   36.5499992      -18.9535046    
   36.5999985      -18.9354897    
   36.6500015      -18.9174423    
   36.7000008      -18.8993950    
   36.7500000      -18.8814068    
   36.7999992      -18.8635502    