  -6.00000000       0.00000000    
  -5.94999981       0.00000000    
  -5.90000010       0.00000000    
  -5.84999990       0.00000000    
  -5.80000019       0.00000000    
  -5.75000000       0.00000000    
  -5.69999981       0.00000000    
  -5.65000010       0.00000000    
  -5.59999990       0.00000000    
  -5.55000019      -1.43149401E-21
  -5.50000000      -1.99841553E-20
  -5.44999981      -1.37511681E-19
  -5.40000010      -6.04588533E-19
  -5.34999990      -1.80386089E-18
  -5.30000019      -3.28107290E-18
  -5.25000000      -1.57732098E-19
  -5.19999981       2.46725957E-17
  -5.15000010       1.10030930E-16
  -5.09999990       3.13346525E-16
  -5.05000019       6.62486809E-16
  -5.00000000       1.02009766E-15
  -4.94999981       8.50454802E-16
  -4.90000010      -1.00339036E-15
  -4.84999990      -6.21069206E-15
  -4.80000019      -1.59725714E-14
  -4.75000000      -2.86587872E-14
  -4.69999981      -3.62013716E-14
  -4.65000010      -2.09379701E-14
  -4.59999990       4.31850465E-14
  -4.55000019       1.79474220E-13
  -4.50000000       3.83027648E-13
  -4.44999981       5.83233819E-13
  -4.40000010       6.09722667E-13
  -4.34999990       1.93805692E-13
  -4.30000019      -9.52127808E-13
  -4.25000000      -2.94528312E-12
  -4.19999981      -5.44681054E-12
  -4.15000010      -7.37654989E-12
  -4.09999990      -6.82341857E-12
  -4.05000019      -1.40735047E-12
  -4.00000000       1.07036194E-11
  -3.95000005       2.91480000E-11
  -3.90000010       4.95371660E-11
  -3.84999990       6.23615465E-11
  -3.79999995       5.38911624E-11
  -3.75000000       1.01696837E-11
  -3.70000005      -7.57025900E-11
  -3.65000010      -1.94476282E-10
  -3.59999990      -3.13374715E-10
  -3.54999995      -3.75490472E-10
  -3.50000000      -3.10880821E-10
  -3.45000005      -6.14895634E-11
  -3.40000010       3.83615029E-10
  -3.34999990       9.53460089E-10
  -3.29999995       1.47776613E-09
  -3.25000000       1.70516501E-09
  -3.20000005       1.36849210E-09
  -3.15000010       2.92718655E-10
  -3.09999990      -1.48092083E-09
  -3.04999995      -3.60177332E-09
  -3.00000000      -5.40381828E-09
  -2.95000005      -6.03087624E-09
  -2.90000010      -4.69919348E-09
  -2.84999990      -1.04640574E-09
  -2.79999995       4.54341320E-09
  -2.75000000       1.07845022E-08
  -2.70000005       1.56364663E-08
  -2.65000010       1.68102545E-08
  -2.59999990       1.25607986E-08
  -2.54999995       2.54828714E-09
  -2.50000000      -1.15554020E-08
  -2.45000005      -2.60446740E-08
  -2.40000010      -3.59422359E-08
  -2.34999990      -3.64893111E-08
  -2.29999995      -2.49949785E-08
  -2.25000000      -2.41869125E-09
  -2.20000005       2.60155346E-08
  -2.15000010       5.16835570E-08
  -2.09999990       6.49601333E-08
  -2.04999995       5.86062683E-08
  -2.00000000       3.10593258E-08
  -1.95000005      -1.16962964E-08
  -1.89999998      -5.67569316E-08
  -1.85000002      -8.77623521E-08
  -1.79999995      -9.04719073E-08
  -1.75000000      -5.87202820E-08
  -1.70000005       1.51977042E-09
  -1.64999998       7.19767925E-08
  -1.60000002       1.26696406E-07
  -1.54999995       1.40581250E-07
  -1.50000000       9.92703733E-08
  -1.45000005       6.74389078E-09
  -1.39999998      -1.12728813E-07
  -1.35000002      -2.20039524E-07
  -1.29999995      -2.73206354E-07
  -1.25000000      -2.42260171E-07
  -1.20000005      -1.21770697E-07
  -1.14999998       6.40717204E-08
  -1.10000002       2.66609618E-07
  -1.04999995       4.27154731E-07
  -1.00000000       4.95936206E-07
 -0.949999988       4.48518620E-07
 -0.899999976       2.93129688E-07
 -0.850000024       6.57281163E-08
 -0.800000012      -1.85158854E-07
 -0.750000000      -4.16941617E-07
 -0.699999988      -6.05744106E-07
 -0.649999976      -7.46374155E-07
 -0.600000024      -8.38400126E-07
 -0.550000012      -8.65049742E-07
 -0.500000000      -7.77738933E-07
 -0.449999988      -4.99880571E-07
 -0.400000006       4.26338858E-08
 -0.349999994       8.69126950E-07
 -0.300000012       1.88877164E-06
 -0.250000000       2.87027137E-06
 -0.200000003       3.46355137E-06
 -0.150000006       3.28614942E-06
 -0.100000001       2.06214168E-06
  -5.00000007E-02  -2.26030650E-07
   0.00000000      -3.23131690E-06
   5.00000007E-02  -6.23957112E-06
  0.100000001      -8.30456156E-06
  0.150000006      -8.50939432E-06
  0.200000003      -6.29117494E-06
  0.250000000      -1.72546606E-06
  0.300000012       4.34283947E-06
  0.349999994       1.04045812E-05
  0.400000006       1.46411785E-05
  0.449999988       1.54555837E-05
  0.500000000       1.20285340E-05
  0.550000012       4.71321255E-06
  0.600000024      -4.89326612E-06
  0.649999976      -1.42758190E-05
  0.699999988      -2.06721033E-05
  0.750000000      -2.19090543E-05
  0.800000012      -1.71466418E-05
  0.850000024      -7.27138831E-06
  0.899999976       5.22637947E-06
  0.949999988       1.68988445E-05
   1.00000000       2.43412687E-05
   1.04999995       2.52442314E-05
   1.10000002       1.91559211E-05
   1.14999998       7.68927111E-06
   1.20000005      -5.91841172E-06
   1.25000000      -1.77716429E-05
   1.29999995      -2.45055708E-05
   1.35000002      -2.43113082E-05
   1.39999998      -1.74608231E-05
   1.45000005      -6.16211446E-06
   1.50000000       6.19553384E-06
   1.54999995       1.61381813E-05
   1.60000002       2.11659535E-05
   1.64999998       2.04203952E-05
   1.70000005       1.47610035E-05
   1.75000000       6.27407553E-06
   1.79999995      -2.55766759E-06
   1.85000002      -9.68740733E-06
   1.89999998      -1.40295933E-05
   1.95000005      -1.55201542E-05
   2.00000000      -1.47614419E-05
   2.04999995      -1.24777762E-05
   2.09999990      -9.07551748E-06
   2.15000010      -4.53175426E-06
   2.20000005       1.34095274E-06
   2.25000000       8.40979737E-06
   2.29999995       1.58066468E-05
   2.34999990       2.18673158E-05
   2.40000010       2.45568372E-05
   2.45000005       2.22716135E-05
   2.50000000       1.46888751E-05
   2.54999995       3.24349799E-06
   2.59999990      -9.08587663E-06
   2.65000010      -1.87260539E-05
   2.70000005      -2.28967838E-05
   2.75000000      -2.08789497E-05
   2.79999995      -1.45598515E-05
   2.84999990      -7.87571480E-06
   2.90000010      -5.20668573E-06
   2.95000005      -9.26442226E-06
   3.00000000      -1.93395463E-05
   3.04999995      -3.07761184E-05
   3.09999990      -3.61608327E-05
   3.15000010      -2.80591175E-05
   3.20000005      -2.43488807E-06
   3.25000000       3.85580643E-05
   3.29999995       8.57022897E-05
   3.34999990       1.24495666E-04
   3.40000010       1.39380732E-04
   3.45000005       1.19224918E-04
   3.50000000       6.21818181E-05
   3.54999995      -2.19734884E-05
   3.59999990      -1.13256698E-04
   3.65000010      -1.86626508E-04
   3.70000005      -2.19504815E-04
   3.75000000      -1.99292670E-04
   3.79999995      -1.28281201E-04
   3.84999990      -2.40493700E-05
   3.90000010       8.51261721E-05
   3.95000005       1.68621729E-04
   4.00000000       2.02977026E-04
   4.05000019       1.79436363E-04
   4.09999990       1.06934946E-04
   4.15000010       9.41386679E-06
   4.19999981      -8.17532928E-05
   4.25000000      -1.37768831E-04
   4.30000019      -1.41555734E-04
   4.34999990      -9.30276437E-05
   4.40000010      -8.79479285E-06
   4.44999981       8.34927778E-05
   4.50000000       1.54175388E-04
   4.55000019       1.80934745E-04
   4.59999990       1.55426751E-04
   4.65000010       8.52030353E-05
   4.69999981      -9.40709742E-06
   4.75000000      -1.02111939E-04
   4.80000019      -1.68736224E-04
   4.84999990      -1.93951171E-04
   4.90000010      -1.74758155E-04
   4.94999981      -1.20091754E-04
   5.00000000      -4.72102693E-05
   5.05000019       2.35818716E-05
   5.09999990       7.41286131E-05
   5.15000010       9.21950996E-05
   5.19999981       7.32272310E-05
   5.25000000       2.02201663E-05
   5.30000019      -5.77806131E-05
   5.34999990      -1.47996965E-04
   5.40000010      -2.36712673E-04
   5.44999981      -3.12384975E-04
   5.50000000      -3.68859910E-04
   5.55000019      -4.08161664E-04
   5.59999990      -4.41940734E-04
   5.65000010      -4.90528706E-04
   5.69999981      -5.78936539E-04
   5.75000000      -7.30099622E-04
   5.80000019      -9.56948788E-04
   5.84999990      -1.25594880E-03
   5.90000010      -1.60501048E-03
   5.94999981      -1.96779217E-03
   6.00000000      -2.30443757E-03
   6.05000019      -2.58632749E-03
   6.09999990      -2.81037204E-03
   6.15000010      -3.00764735E-03
   6.19999981      -3.24233156E-03
   6.25000000      -3.59977060E-03
   6.30000019      -4.16624034E-03
   6.34999990      -5.00628306E-03
   6.40000010      -6.14503818E-03
   6.44999981      -7.56203104E-03
   6.50000000      -9.19949729E-03
   6.55000019      -1.09836077E-02
   6.59999990      -1.28524415E-02
   6.65000010      -1.47820273E-02
   6.69999981      -1.68021172E-02
   6.75000000      -1.89966541E-02
   6.80000019      -2.14889795E-02
   6.84999990      -2.44169645E-02
   6.90000010      -2.79064458E-02
   6.94999981      -3.20516340E-02
   7.00000000      -3.69083062E-02
   7.05000019      -4.25009392E-02
   7.09999990      -4.88398857E-02
   7.15000010      -5.59418462E-02
   7.19999981      -6.38463944E-02
   7.25000000      -7.26240203E-02
   7.30000019      -8.23750198E-02
   7.34999990      -9.32227969E-02
   7.40000010     -0.105306692    
   7.44999981     -0.118779220    
   7.50000000     -0.133809045    
   7.55000019     -0.150587708    
   7.59999990     -0.169334993    
   7.65000010     -0.190297723    
   7.69999981     -0.213739321    
   7.75000000     -0.239921793    
   7.80000019     -0.269086540    
   7.84999990     -0.301442504    
   7.90000010     -0.337168694    
   7.94999981     -0.376433909    
   8.00000000     -0.419429213    
   8.05000019     -0.466403872    
   8.10000038     -0.517691970    
   8.14999962     -0.573719263    
   8.19999981     -0.634986877    
   8.25000000     -0.702035725    
   8.30000019     -0.775403440    
   8.35000038     -0.855589032    
   8.39999962     -0.943037629    
   8.44999981      -1.03815114    
   8.50000000      -1.14132071    
   8.55000019      -1.25296950    
   8.60000038      -1.37358725    
   8.64999962      -1.50374663    
   8.69999981      -1.64409304    
   8.75000000      -1.79531038    
   8.80000019      -1.95808017    
   8.85000038      -2.13304257    
   8.89999962      -2.32078147    
   8.94999981      -2.52183414    
   9.00000000      -2.73672104    
   9.05000019      -2.96598768    
   9.10000038      -3.21023655    
   9.14999962      -3.47014070    
   9.19999981      -3.74643183    
   9.25000000      -4.03986454    
   9.30000019      -4.35117197    
   9.35000038      -4.68102980    
   9.39999962      -5.03003597    
   9.44999981      -5.39870977    
   9.50000000      -5.78751802    
   9.55000019      -6.19690084    
   9.60000038      -6.62729406    
   9.64999962      -7.07914305    
   9.69999981      -7.55289316    
   9.75000000      -8.04897499    
   9.80000019      -8.56778622    
   9.85000038      -9.10967731    
   9.89999962      -9.67494583    
   9.94999981      -10.2638493    
   10.0000000      -10.8766041    
   10.0500002      -11.5133858    
   10.1000004      -12.1743155    
   10.1499996      -12.8594341    
   10.1999998      -13.5686855    
   10.2500000      -14.3018970    
   10.3000002      -15.0587969    
   10.3500004      -15.8390341    
   10.3999996      -16.6422310    
   10.4499998      -17.4680214    
   10.5000000      -18.3160706    
   10.5500002      -19.1860752    
   10.6000004      -20.0777168    
   10.6499996      -20.9906120    
   10.6999998      -21.9242554    
   10.7500000      -22.8779907    
   10.8000002      -23.8510151    
   10.8500004      -24.8424129    
   10.8999996      -25.8512344    
   10.9499998      -26.8765392    
   11.0000000      -27.9174557    
   11.0500002      -28.9731617    
   11.1000004      -30.0428772    
   11.1499996      -31.1257915    
   11.1999998      -32.2210388    
   11.2500000      -33.3276405    
   11.3000002      -34.4445496    
   11.3500004      -35.5706978    
   11.3999996      -36.7050171    
   11.4499998      -37.8465157    
   11.5000000      -38.9942703    
   11.5500002      -40.1474266    
   11.6000004      -41.3051453    
   11.6499996      -42.4665413    
   11.6999998      -43.6306763    
   11.7500000      -44.7965546    
   11.8000002      -45.9631805    
   11.8500004      -47.1296272    
   11.8999996      -48.2950974    
   11.9499998      -49.4589462    
   12.0000000      -50.6206589    
   12.0500002      -51.7797966    
   12.1000004      -52.9358940    
   12.1499996      -54.0884247    
   12.1999998      -55.2367744    
   12.2500000      -56.3802719    
   12.3000002      -57.5182877    
   12.3500004      -58.6503220    
   12.3999996      -59.7760658    
   12.4499998      -60.8954010    
   12.5000000      -62.0083618    
   12.5500002      -63.1150093    
   12.6000004      -64.2153397    
   12.6499996      -65.3092194    
   12.6999998      -66.3963928    
   12.7500000      -67.4765701    
   12.8000002      -68.5495224    
   12.8500004      -69.6152267    
   12.8999996      -70.6738968    
   12.9499998      -71.7259598    
   13.0000000      -72.7719650    
   13.0500002      -73.8124466    
   13.1000004      -74.8477478    
   13.1499996      -75.8779907    
   13.1999998      -76.9030762    
   13.2500000      -77.9228363    
   13.3000002      -78.9371948    
   13.3500004      -79.9463120    
   13.3999996      -80.9506149    
   13.4499998      -81.9508133    
   13.5000000      -82.9476852    
   13.5500002      -83.9419861    
   13.6000004      -84.9342041    
   13.6499996      -85.9245605    
   13.6999998      -86.9129944    
   13.7500000      -87.8993835    
   13.8000002      -88.8836365    
   13.8500004      -89.8659134    
   13.8999996      -90.8466721    
   13.9499998      -91.8265686    
   14.0000000      -92.8063812    
   14.0500002      -93.7867203    
   14.1000004      -94.7679749    
   14.1499996      -95.7502060    
   14.1999998      -96.7332382    
   14.2500000      -97.7167969    
   14.3000002      -98.7007217    
   14.3500004      -99.6850815    
   14.3999996      -100.670219    
   14.4499998      -101.656685    
   14.5000000      -102.645058    
   14.5500002      -103.635773    
   14.6000004      -104.629021    
   14.6499996      -105.624741    
   14.6999998      -106.622650    
   14.7500000      -107.622452    
   14.8000002      -108.623962    
   14.8500004      -109.627205    
   14.8999996      -110.632416    
   14.9499998      -111.639923    
   15.0000000      -112.649986    
   15.0500002      -113.662712    
   15.1000004      -114.677986    
   15.1499996      -115.695488    
   15.1999998      -116.714836    
   15.2500000      -117.735710    
   15.3000002      -118.757950    
   15.3500004      -119.781601    
   15.3999996      -120.806778    
   15.4499998      -121.833557    
   15.5000000      -122.861855    
   15.5500002      -123.891350    
   15.6000004      -124.921471    
   15.6499996      -125.951530    
   15.6999998      -126.980881    
   15.7500000      -128.008972    
   15.8000002      -129.035400    
   15.8500004      -130.059875    
   15.8999996      -131.081970    
   15.9499998      -132.101074    
   16.0000000      -133.116180    
   16.0499992      -134.125961    
   16.1000004      -135.128845    
   16.1499996      -136.123123    
   16.2000008      -137.107254    
   16.2500000      -138.079742    
   16.2999992      -139.039200    
   16.3500004      -139.984070    
   16.3999996      -140.912415    
   16.4500008      -141.821686    
   16.5000000      -142.708664    
   16.5499992      -143.569656    
   16.6000004      -144.400589    
   16.6499996      -145.197250    
   16.7000008      -145.955536    
   16.7500000      -146.671356    
   16.7999992      -147.340469    
   16.8500004      -147.958221    
   16.8999996      -148.519119    
   16.9500008      -149.016769    
   17.0000000      -149.443787    
   17.0499992      -149.792023    
   17.1000004      -150.052948    
   17.1499996      -150.218002    
   17.2000008      -150.278625    
   17.2500000      -150.226425    
   17.2999992      -150.052811    
   17.3500004      -149.748581    
   17.3999996      -149.303619    
   17.4500008      -148.706696    
   17.5000000      -147.945541    
   17.5499992      -147.007233    
   17.6000004      -145.878571    
   17.6499996      -144.546631    
   17.7000008      -142.998978    
   17.7500000      -141.223694    
   17.7999992      -139.209061    
   17.8500004      -136.943268    
   17.8999996      -134.414017    
   17.9500008      -131.608475    
   18.0000000      -128.513367    
   18.0499992      -125.115471    
   18.1000004      -121.402130    
   18.1499996      -117.361771    
   18.2000008      -112.984184    
   18.2500000      -108.260536    
   18.2999992      -103.183121    
   18.3500004      -97.7450714    
   18.3999996      -91.9400635    
   18.4500008      -85.7623215    
   18.5000000      -79.2068329    
   18.5499992      -72.2698288    
   18.6000004      -64.9493103    
   18.6499996      -57.2454834    
   18.7000008      -49.1609688    
   18.7500000      -40.7007027    
   18.7999992      -31.8716812    
   18.8500004      -22.6826248    
   18.8999996      -13.1437311    
   18.9500008      -3.26666999    
   19.0000000       6.93521786    
   19.0499992       17.4465599    
   19.1000004       28.2496147    
   19.1499996       39.3240623    
   19.2000008       50.6470413    
   19.2500000       62.1934166    
   19.2999992       73.9361725    
   19.3500004       85.8467789    
   19.3999996       97.8954544    
   19.4500008       110.051193    
   19.5000000       122.281631    
   19.5499992       134.552856    
   19.6000004       146.829361    
   19.6499996       159.074219    
   19.7000008       171.249268    
   19.7500000       183.315811    
   19.7999992       195.234909    
   19.8500004       206.967987    
   19.8999996       218.476913    
   19.9500008       229.723999    
   20.0000000       240.671951    
   20.0499992       251.283768    
   20.1000004       261.522888    
   20.1499996       271.353424    
   20.2000008       280.740875    
   20.2500000       289.652496    
   20.2999992       298.057983    
   20.3500004       305.929504    
   20.3999996       313.241882    
   20.4500008       319.972290    
   20.5000000       326.099976    
   20.5499992       331.606262    
   20.6000004       336.474579    
   20.6499996       340.691010    
   20.7000008       344.244507    
   20.7500000       347.127716    
   20.7999992       349.336945    
   20.8500004       350.872223    
   20.8999996       351.737000    
   20.9500008       351.937531    
   21.0000000       351.482361    
   21.0499992       350.382141    
   21.1000004       348.649567    
   21.1499996       346.299744    
   21.2000008       343.350555    
   21.2500000       339.823090    
   21.2999992       335.741425    
   21.3500004       331.132477    
   21.3999996       326.025146    
   21.4500008       320.449615    
   21.5000000       314.436798    
   21.5499992       308.017731    
   21.6000004       301.223907    
   21.6499996       294.087341    
   21.7000008       286.640900    
   21.7500000       278.918762    
   21.7999992       270.956116    
   21.8500004       262.788666    
   21.8999996       254.451981    
   21.9500008       245.980545    
   22.0000000       237.407257    
   22.0499992       228.763168    
   22.1000004       220.077637    
   22.1499996       211.378784    
   22.2000008       202.693848    
   22.2500000       194.049576    
   22.2999992       185.472031    
   22.3500004       176.986176    
   22.3999996       168.615326    
   22.4500008       160.380463    
   22.5000000       152.299911    
   22.5499992       144.389374    
   22.6000004       136.662308    
   22.6499996       129.130432    
   22.7000008       121.804306    
   22.7500000       114.693611    
   22.7999992       107.807037    
   22.8500004       101.152039    
   22.8999996       94.7342987    
   22.9500008       88.5574646    
   23.0000000       82.6229553    
   23.0499992       76.9302979    
   23.1000004       71.4775467    
   23.1499996       66.2619476    
   23.2000008       61.2803688    
   23.2500000       56.5295601    
   23.2999992       52.0060043    
   23.3500004       47.7056313    
   23.3999996       43.6234741    
   23.4500008       39.7534904    
   23.5000000       36.0885963    
   23.5499992       32.6210480    
   23.6000004       29.3428802    
   23.6499996       26.2463989    
   23.7000008       23.3243999    
   23.7500000       20.5701733    
   23.7999992       17.9772396    
   23.8500004       15.5390024    
   23.8999996       13.2484808    
   23.9500008       11.0982714    
   24.0000000       9.08076382    
   24.0499992       7.18853855    
   24.1000004       5.41479445    
   24.1499996       3.75360489    
   24.2000008       2.19991446    
   24.2500000      0.749260902    
   24.2999992     -0.602656066    
   24.3500004      -1.86037576    
   24.3999996      -3.02887106    
   24.4500008      -4.11345243    
   24.5000000      -5.11941051    
   24.5499992      -6.05155230    
   24.6000004      -6.91382933    
   24.6499996      -7.70922279    
   24.7000008      -8.43995380    
   24.7500000      -9.10794067    
   24.7999992      -9.71533585    
   24.8500004      -10.2649021    
   24.8999996      -10.7601013    
   24.9500008      -11.2048283    
   25.0000000      -11.6029110    
   25.0499992      -11.9575729    
   25.1000004      -12.2710848    
   25.1499996      -12.5447693    
   25.2000008      -12.7793465    
   25.2500000      -12.9755220    
   25.2999992      -13.1345644    
   25.3500004      -13.2586536    
   25.3999996      -13.3508568    
   25.4500008      -13.4147320    
   25.5000000      -13.4537258    
   25.5499992      -13.4705830    
   25.6000004      -13.4670172    
   25.6499996      -13.4437733    
   25.7000008      -13.4010592    
   25.7500000      -13.3391695    
   25.7999992      -13.2590666    
   25.8500004      -13.1626959    
   25.8999996      -13.0528898    
   25.9500008      -12.9329290    
   26.0000000      -12.8059196    
   26.0499992      -12.6742239    
   26.1000004      -12.5391817    
   26.1499996      -12.4012136    
   26.2000008      -12.2602453    
   26.2500000      -12.1162996    
   26.2999992      -11.9700165    
   26.3500004      -11.8228865    
   26.3999996      -11.6771212    
   26.4500008      -11.5352354    
   26.5000000      -11.3994770    
   26.5499992      -11.2713623    
   26.6000004      -11.1514597    
   26.6499996      -11.0395193    
   26.7000008      -10.9348536    
   26.7500000      -10.8368340    
   26.7999992      -10.7452831    
   26.8500004      -10.6606359    
   26.8999996      -10.5838013    
   26.9500008      -10.5158205    
   27.0000000      -10.4574480    
   27.0499992      -10.4088364    
   27.1000004      -10.3694420    
   27.1499996      -10.3381643    
   27.2000008      -10.3136549    
   27.2500000      -10.2946491    
   27.2999992      -10.2802067    
   27.3500004      -10.2697630    
   27.3999996      -10.2629900    
   27.4500008      -10.2595606    
   27.5000000      -10.2589197    
   27.5499992      -10.2601519    
   27.6000004      -10.2620192    
   27.6499996      -10.2631235    
   27.7000008      -10.2621126    
   27.7500000      -10.2578621    
   27.7999992      -10.2495346    
   27.8500004      -10.2365246    
   27.8999996      -10.2183352    
   27.9500008      -10.1944485    
   28.0000000      -10.1642656    
   28.0499992      -10.1271658    
   28.1000004      -10.0826283    
   28.1499996      -10.0303793    
   28.2000008      -9.97048569    
   28.2500000      -9.90331936    
   28.2999992      -9.82943726    
   28.3500004      -9.74940300    
   28.3999996      -9.66365051    
   28.4500008      -9.57244301    
   28.5000000      -9.47597599    
   28.5499992      -9.37456131    
   28.6000004      -9.26883316    
   28.6499996      -9.15986824    
   28.7000008      -9.04914856    
   28.7500000      -8.93836498    
   28.7999992      -8.82914352    
   28.8500004      -8.72276878    
   28.8999996      -8.62005615    
   28.9500008      -8.52139282    
   29.0000000      -8.42696476    
   29.0499992      -8.33705139    
   29.1000004      -8.25228119    
   29.1499996      -8.17372322    
   29.2000008      -8.10275555    
   29.2500000      -8.04076099    
   29.2999992      -7.98874950    
   29.3500004      -7.94706678    
   29.3999996      -7.91529417    
   29.4500008      -7.89240217    
   29.5000000      -7.87708998    
   29.5499992      -7.86819267    
   29.6000004      -7.86499500    
   29.6499996      -7.86732149    
   29.7000008      -7.87537527    
   29.7500000      -7.88938379    
   29.7999992      -7.90918732    
   29.8500004      -7.93394804    
   29.8999996      -7.96208048    
   29.9500008      -7.99145460    
   30.0000000      -8.01979065    
   30.0499992      -8.04509926    
   30.1000004      -8.06601048    
   30.1499996      -8.08186436    
   30.2000008      -8.09255791    
   30.2500000      -8.09820080    
   30.2999992      -8.09873295    
   30.3500004      -8.09366226    
   30.3999996      -8.08201218    
   30.4500008      -8.06251335    
   30.5000000      -8.03394222    
   30.5499992      -7.99549389    
   30.6000004      -7.94702673    
   30.6499996      -7.88910103    
   30.7000008      -7.82280445    
   30.7500000      -7.74943352    
   30.7999992      -7.67016840    
   30.8500004      -7.58585453    
   30.8999996      -7.49696875    
   30.9500008      -7.40376997    
   31.0000000      -7.30655384    
   31.0499992      -7.20590925    
   31.1000004      -7.10286570    
   31.1499996      -6.99887848    
   31.2000008      -6.89566612    
   31.2500000      -6.79496765    
   31.2999992      -6.69830942    
   31.3500004      -6.60686302    
   31.3999996      -6.52143669    
   31.4500008      -6.44256878    
   31.5000000      -6.37068033    
   31.5499992      -6.30620193    
   31.6000004      -6.24962282    
   31.6499996      -6.20146275    
   31.7000008      -6.16217375    
   31.7500000      -6.13202858    
   31.7999992      -6.11105680    
   31.8500004      -6.09903955    
   31.8999996      -6.09556246    
   31.9500008      -6.10009527    
   32.0000000      -6.11204386    
   32.0499992      -6.13076067    
   32.0999985      -6.15550900    
   32.1500015      -6.18540287    
   32.2000008      -6.21938133    
   32.2500000      -6.25623178    
   32.2999992      -6.29467773    
   32.3499985      -6.33350134    
   32.4000015      -6.37165070    
   32.4500008      -6.40828466    
   32.5000000      -6.44272757    
   32.5499992      -6.47435713    
   32.5999985      -6.50245905    
   32.6500015      -6.52613735    
   32.7000008      -6.54431438    
   32.7500000      -6.55584764    
   32.7999992      -6.55972624    
   32.8499985      -6.55528021    
   32.9000015      -6.54231596    
   32.9500008      -6.52111912    
   33.0000000      -6.49231768    
   33.0499992      -6.45665407    
   33.0999985      -6.41474867    
   33.1500015      -6.36694431    
   33.2000008      -6.31331062    
   33.2500000      -6.25378847    
   33.2999992      -6.18843412    
   33.3499985      -6.11765480    
   33.4000015      -6.04234266    
   33.4500008      -5.96384525    
   33.5000000      -5.88376999    
   33.5499992      -5.80370474    
   33.5999985      -5.72494507    
   33.6500015      -5.64833641    
   33.7000008      -5.57428932    
   33.7500000      -5.50295448    
   33.7999992      -5.43448591    
   33.8499985      -5.36927986    
   33.9000015      -5.30809450    
   33.9500008      -5.25199604    
   34.0000000      -5.20215321    
   34.0499992      -5.15955353    
   34.0999985      -5.12475443    
   34.1500015      -5.09776783    
   34.2000008      -5.07811499    
   34.2500000      -5.06503153    
   34.2999992      -5.05774927    
   34.3499985      -5.05572748    
   34.4000015      -5.05876541    
   34.4500008      -5.06694412    
   34.5000000      -5.08043337    
   34.5499992      -5.09923935    
   34.5999985      -5.12299824    
   34.6500015      -5.15089750    
   34.7000008      -5.18174601    
   34.7500000      -5.21417570    
   34.7999992      -5.24688816    
   34.8499985      -5.27885389    
   34.9000015      -5.30940247    
   34.9500008      -5.33817673    
   35.0000000      -5.36498117    
   35.0499992      -5.38960123    
   35.0999985      -5.41166353    
   35.1500015      -5.43059731    
   35.2000008      -5.44569826    
   35.2500000      -5.45626545    
   35.2999992      -5.46174955    
   35.3499985      -5.46184731    
   35.4000015      -5.45651674    
   35.4500008      -5.44590855    
   35.5000000      -5.43025970    
   35.5499992      -5.40979719    
   35.5999985      -5.38470030    
   35.6500015      -5.35513449    
   35.7000008      -5.32132578    
   35.7500000      -5.28364801    
   35.7999992      -5.24266243    
   35.8499985      -5.19908810    
   35.9000015      -5.15370941    
   35.9500008      -5.10726023    
   36.0000000      -5.06033278    
   36.0499992      -5.01335573    
   36.0999985      -4.96665621    
   36.1500015      -4.92057705    
   36.2000008      -4.87559748    
   36.2500000      -4.83240128    
   36.2999992      -4.79184723    
   36.3499985      -4.75485468    
   36.4000015      -4.72222853    
   36.4500008      -4.69450283    
   36.5000000      -4.67186737    
   36.5499992      -4.65420485    
   36.5999985      -4.64123392    
   36.6500015      -4.63270187    
   36.7000008      -4.62855244    
   36.7500000      -4.62898493    
   36.7999992      -4.63438368    