  -1.00000000       3.07124982E-17
 -0.992999971       7.18726938E-16
 -0.986000001       3.54052106E-15
 -0.978999972       9.96869349E-15
 -0.972000003       2.05570136E-14
 -0.964999974       3.48358732E-14
 -0.958000004       5.23706444E-14
 -0.950999975       7.40898296E-14
 -0.944000006       1.01855468E-13
 -0.936999977       1.34576690E-13
 -0.930000007       1.61502823E-13
 -0.922999978       1.56448354E-13
 -0.916000009       7.81342290E-14
 -0.908999979      -1.20207108E-13
 -0.902000010      -4.73759920E-13
 -0.894999981      -9.88400117E-13
 -0.888000011      -1.63104653E-12
 -0.880999982      -2.33426234E-12
 -0.874000013      -3.01542775E-12
 -0.866999984      -3.60430761E-12
 -0.860000014      -4.06835720E-12
 -0.852999985      -4.42440485E-12
 -0.846000016      -4.72926776E-12
 -0.838999987      -5.04996002E-12
 -0.832000017      -5.42433719E-12
 -0.824999988      -5.83067448E-12
 -0.818000019      -6.18482956E-12
 -0.810999990      -6.37372533E-12
 -0.804000020      -6.31687974E-12
 -0.796999991      -6.03149648E-12
 -0.790000021      -5.67034700E-12
 -0.782999992      -5.50974891E-12
 -0.776000023      -5.88470895E-12
 -0.768999994      -7.09092941E-12
 -0.762000024      -9.28905217E-12
 -0.754999995      -1.24487720E-11
 -0.748000026      -1.63580868E-11
 -0.740999997      -2.07000164E-11
 -0.734000027      -2.51728690E-11
 -0.726999998      -2.96101164E-11
 -0.720000029      -3.40511612E-11
 -0.713000000      -3.87295751E-11
 -0.705999970      -4.39775785E-11
 -0.699000001      -5.00824417E-11
 -0.691999972      -5.71549197E-11
 -0.685000002      -6.50694776E-11
 -0.677999973      -7.35084493E-11
 -0.671000004      -8.20995841E-11
 -0.663999975      -9.05961209E-11
 -0.657000005      -9.90289170E-11
 -0.649999976      -1.07767469E-10
 -0.643000007      -1.17459015E-10
 -0.635999978      -1.28860367E-10
 -0.629000008      -1.42618944E-10
 -0.621999979      -1.59084648E-10
 -0.615000010      -1.78227613E-10
 -0.607999980      -1.99702158E-10
 -0.601000011      -2.23040517E-10
 -0.593999982      -2.47905946E-10
 -0.587000012      -2.74306716E-10
 -0.579999983      -3.02683323E-10
 -0.573000014      -3.33828187E-10
 -0.565999985      -3.68665931E-10
 -0.559000015      -4.07974959E-10
 -0.551999986      -4.52158311E-10
 -0.545000017      -5.01153341E-10
 -0.537999988      -5.54521096E-10
 -0.531000018      -6.11690865E-10
 -0.523999989      -6.72275069E-10
 -0.517000020      -7.36341543E-10
 -0.509999990      -8.04536771E-10
 -0.503000021      -8.78008000E-10
 -0.495999992      -9.58144453E-10
 -0.488999993      -1.04623088E-09
 -0.481999993      -1.14314125E-09
 -0.474999994      -1.24919464E-09
 -0.467999995      -1.36422329E-09
 -0.460999995      -1.48783452E-09
 -0.453999996      -1.61976155E-09
 -0.446999997      -1.76017523E-09
 -0.439999998      -1.90983629E-09
 -0.432999998      -2.07002748E-09
 -0.425999999      -2.24228347E-09
 -0.419000000      -2.42801379E-09
 -0.412000000      -2.62815014E-09
 -0.405000001      -2.84295676E-09
 -0.398000002      -3.07207371E-09
 -0.391000003      -3.31478955E-09
 -0.384000003      -3.57044994E-09
 -0.377000004      -3.83884524E-09
 -0.370000005      -4.12044399E-09
 -0.363000005      -4.41638415E-09
 -0.356000006      -4.72822004E-09
 -0.349000007      -5.05753173E-09
 -0.342000008      -5.40551870E-09
 -0.335000008      -5.77273696E-09
 -0.328000009      -6.15905282E-09
 -0.321000010      -6.56383881E-09
 -0.314000010      -6.98632574E-09
 -0.307000011      -7.42600248E-09
 -0.300000012      -7.88289523E-09
 -0.293000013      -8.35764524E-09
 -0.286000013      -8.85133744E-09
 -0.279000014      -9.36516376E-09
 -0.272000015      -9.90002569E-09
 -0.264999986      -1.04562332E-08
 -0.257999986      -1.10334151E-08
 -0.250999987      -1.16306440E-08
 -0.244000003      -1.22467601E-08
 -0.237000003      -1.28807640E-08
 -0.230000004      -1.35321603E-08
 -0.223000005      -1.42011416E-08
 -0.216000006      -1.48885508E-08
 -0.209000006      -1.55956421E-08
 -0.202000007      -1.63236908E-08
 -0.194999993      -1.70736261E-08
 -0.187999994      -1.78457853E-08
 -0.180999994      -1.86398701E-08
 -0.173999995      -1.94551788E-08
 -0.166999996      -2.02909796E-08
 -0.159999996      -2.11469722E-08
 -0.152999997      -2.20237037E-08
 -0.145999998      -2.29227606E-08
 -0.138999999      -2.38468161E-08
 -0.131999999      -2.47993679E-08
 -0.125000000      -2.57844039E-08
 -0.118000001      -2.68059921E-08
 -0.111000001      -2.78680403E-08
 -0.104000002      -2.89742434E-08
  -9.70000029E-02  -3.01283336E-08
  -9.00000036E-02  -3.13345083E-08
  -8.29999968E-02  -3.25980309E-08
  -7.59999976E-02  -3.39256836E-08
  -6.89999983E-02  -3.53261100E-08
  -6.19999990E-02  -3.68098156E-08
  -5.49999997E-02  -3.83889045E-08
  -4.80000004E-02  -4.00766638E-08
  -4.10000011E-02  -4.18871302E-08
  -3.40000018E-02  -4.38348415E-08
  -2.70000007E-02  -4.59349216E-08
  -1.99999996E-02  -4.82034004E-08
  -1.30000003E-02  -5.06579170E-08
  -6.00000005E-03  -5.33183417E-08
   1.00000005E-03  -5.62073730E-08
   8.00000038E-03  -5.93507643E-08
   1.49999997E-02  -6.27772039E-08
   2.19999999E-02  -6.65177851E-08
   2.89999992E-02  -7.06055090E-08
   3.59999985E-02  -7.50747162E-08
   4.30000015E-02  -7.99608202E-08
   5.00000007E-02  -8.53004920E-08
   5.70000000E-02  -9.11320726E-08
   6.40000030E-02  -9.74962688E-08
   7.10000023E-02  -1.04436822E-07
   7.80000016E-02  -1.12000947E-07
   8.50000009E-02  -1.20239179E-07
   9.20000002E-02  -1.29205034E-07
   9.89999995E-02  -1.38954334E-07
  0.105999999      -1.49544320E-07
  0.112999998      -1.61033128E-07
  0.119999997      -1.73479364E-07
  0.127000004      -1.86942330E-07
  0.134000003      -2.01482266E-07
  0.141000003      -2.17160903E-07
  0.148000002      -2.34041906E-07
  0.155000001      -2.52190830E-07
  0.162000000      -2.71674793E-07
  0.169000000      -2.92561339E-07
  0.175999999      -3.14917486E-07
  0.182999998      -3.38808348E-07
  0.189999998      -3.64296511E-07
  0.196999997      -3.91441148E-07
  0.203999996      -4.20298278E-07
  0.210999995      -4.50920851E-07
  0.217999995      -4.83359258E-07
  0.224999994      -5.17661363E-07
  0.231999993      -5.53872383E-07
  0.238999993      -5.92033814E-07
  0.246000007      -6.32182719E-07
  0.252999991      -6.74349337E-07
  0.259999990      -7.18556237E-07
  0.266999990      -7.64816889E-07
  0.273999989      -8.13135273E-07
  0.280999988      -8.63505761E-07
  0.287999988      -9.15913347E-07
  0.294999987      -9.70333986E-07
  0.301999986      -1.02673505E-06
  0.308999985      -1.08507436E-06
  0.316000015      -1.14529905E-06
  0.323000014      -1.20734512E-06
  0.330000013      -1.27113447E-06
  0.337000012      -1.33657420E-06
  0.344000012      -1.40355553E-06
  0.351000011      -1.47195510E-06
  0.358000010      -1.54163388E-06
  0.365000010      -1.61243918E-06
  0.372000009      -1.68420490E-06
  0.379000008      -1.75675211E-06
  0.386000007      -1.82988924E-06
  0.393000007      -1.90341029E-06
  0.400000006      -1.97709437E-06
  0.407000005      -2.05070432E-06
  0.414000005      -2.12398868E-06
  0.421000004      -2.19667982E-06
  0.428000003      -2.26849556E-06
  0.435000002      -2.33914079E-06
  0.442000002      -2.40830991E-06
  0.449000001      -2.47568573E-06
  0.456000000      -2.54094175E-06
  0.463000000      -2.60374168E-06
  0.469999999      -2.66373968E-06
  0.476999998      -2.72058082E-06
  0.483999997      -2.77389995E-06
  0.490999997      -2.82332644E-06
  0.497999996      -2.86848467E-06
  0.504999995      -2.90899538E-06
  0.512000024      -2.94448046E-06
  0.518999994      -2.97456063E-06
  0.526000023      -2.99885983E-06
  0.532999992      -3.01700356E-06
  0.540000021      -3.02862168E-06
  0.546999991      -3.03334900E-06
  0.554000020      -3.03082606E-06
  0.560999990      -3.02070248E-06
  0.568000019      -3.00263810E-06
  0.574999988      -2.97630390E-06
  0.582000017      -2.94138590E-06
  0.588999987      -2.89758441E-06
  0.596000016      -2.84461612E-06
  0.602999985      -2.78221478E-06
  0.610000014      -2.71013505E-06
  0.616999984      -2.62815206E-06
  0.624000013      -2.53606322E-06
  0.630999982      -2.43369186E-06
  0.638000011      -2.32088814E-06
  0.644999981      -2.19752724E-06
  0.652000010      -2.06351183E-06
  0.658999979      -1.91877234E-06
  0.666000009      -1.76326716E-06
  0.672999978      -1.59698379E-06
  0.680000007      -1.41994019E-06
  0.686999977      -1.23218626E-06
  0.694000006      -1.03380398E-06
  0.700999975      -8.24908966E-07
  0.708000004      -6.05648779E-07
  0.714999974      -3.76202507E-07
  0.722000003      -1.36779633E-07
  0.728999972       1.12380334E-07
  0.736000001       3.71008383E-07
  0.742999971       6.38804750E-07
  0.750000000       9.15438591E-07
  0.757000029       1.20054688E-06
  0.763999999       1.49373523E-06
  0.771000028       1.79457959E-06
  0.777999997       2.10262806E-06
  0.785000026       2.41740281E-06
  0.791999996       2.73840283E-06
  0.799000025       3.06510788E-06
  0.805999994       3.39697635E-06
  0.813000023       3.73344574E-06
  0.819999993       4.07393372E-06
  0.827000022       4.41784005E-06
  0.833999991       4.76454670E-06
  0.841000021       5.11341796E-06
  0.847999990       5.46380625E-06
  0.855000019       5.81505492E-06
  0.861999989       6.16650368E-06
  0.869000018       6.51748542E-06
  0.875999987       6.86733074E-06
  0.883000016       7.21536890E-06
  0.889999986       7.56092732E-06
  0.897000015       7.90332979E-06
  0.903999984       8.24190556E-06
  0.911000013       8.57598479E-06
  0.917999983       8.90490628E-06
  0.925000012       9.22802155E-06
  0.931999981       9.54469942E-06
  0.939000010       9.85432416E-06
  0.945999980       1.01562946E-05
  0.953000009       1.04500268E-05
  0.959999979       1.07349560E-05
  0.967000008       1.10105366E-05
  0.973999977       1.12762391E-05
  0.981000006       1.15315588E-05
  0.987999976       1.17760146E-05
  0.995000005       1.20091563E-05
   1.00199997       1.22305655E-05
   1.00899994       1.24398593E-05
   1.01600003       1.26366831E-05
   1.02300000       1.28207175E-05
   1.02999997       1.29916780E-05
   1.03699994       1.31493016E-05
   1.04400003       1.32933610E-05
   1.05100000       1.34236625E-05
   1.05799997       1.35400505E-05
   1.06500006       1.36424023E-05
   1.07200003       1.37306379E-05
   1.07900000       1.38047153E-05
   1.08599997       1.38646328E-05
   1.09300005       1.39104231E-05
   1.10000002       1.39421500E-05
   1.10699999       1.39599078E-05
   1.11399996       1.39638259E-05
   1.12100005       1.39540625E-05
   1.12800002       1.39308131E-05
   1.13499999       1.38943087E-05
   1.14199996       1.38448177E-05
   1.14900005       1.37826437E-05
   1.15600002       1.37081215E-05
   1.16299999       1.36216095E-05
   1.16999996       1.35234950E-05
   1.17700005       1.34141819E-05
   1.18400002       1.32940995E-05
   1.19099998       1.31636953E-05
   1.19799995       1.30234384E-05
   1.20500004       1.28738184E-05
   1.21200001       1.27153462E-05
   1.21899998       1.25485531E-05
   1.22599995       1.23739828E-05
   1.23300004       1.21921958E-05
   1.24000001       1.20037548E-05
   1.24699998       1.18092321E-05
   1.25399995       1.16091969E-05
   1.26100004       1.14042277E-05
   1.26800001       1.11949021E-05
   1.27499998       1.09817975E-05
   1.28199995       1.07654960E-05
   1.28900003       1.05465788E-05
   1.29600000       1.03256225E-05
   1.30299997       1.01032019E-05
   1.30999994       9.87988278E-06
   1.31700003       9.65621621E-06
   1.32400000       9.43273881E-06
   1.33099997       9.20997263E-06
   1.33800006       8.98842427E-06
   1.34500003       8.76857848E-06
   1.35200000       8.55090912E-06
   1.35899997       8.33587274E-06
   1.36600006       8.12391227E-06
   1.37300003       7.91545244E-06
   1.38000000       7.71089890E-06
   1.38699996       7.51063271E-06
   1.39400005       7.31500995E-06
   1.40100002       7.12436031E-06
   1.40799999       6.93898301E-06
   1.41499996       6.75915226E-06
   1.42200005       6.58511863E-06
   1.42900002       6.41711040E-06
   1.43599999       6.25533357E-06
   1.44299996       6.09997687E-06
   1.45000005       5.95120582E-06
   1.45700002       5.80916003E-06
   1.46399999       5.67395591E-06
   1.47099996       5.54568123E-06
   1.47800004       5.42439420E-06
   1.48500001       5.31012984E-06
   1.49199998       5.20289768E-06
   1.49899995       5.10269138E-06
   1.50600004       5.00948454E-06
   1.51300001       4.92323716E-06
   1.51999998       4.84389557E-06
   1.52699995       4.77138701E-06
   1.53400004       4.70562054E-06
   1.54100001       4.64648701E-06
   1.54799998       4.59385774E-06
   1.55499995       4.54758992E-06
   1.56200004       4.50752805E-06
   1.56900001       4.47350612E-06
   1.57599998       4.44535181E-06
   1.58299994       4.42289047E-06
   1.59000003       4.40594522E-06
   1.59700000       4.39433370E-06
   1.60399997       4.38787038E-06
   1.61099994       4.38636562E-06
   1.61800003       4.38962161E-06
   1.62500000       4.39743917E-06
   1.63199997       4.40961503E-06
   1.63900006       4.42594774E-06
   1.64600003       4.44623583E-06
   1.65300000       4.47028242E-06
   1.65999997       4.49790195E-06
   1.66700006       4.52891118E-06
   1.67400002       4.56313865E-06
   1.68099999       4.60041565E-06
   1.68799996       4.64058166E-06
   1.69500005       4.68347980E-06
   1.70200002       4.72895954E-06
   1.70899999       4.77687627E-06
   1.71599996       4.82709174E-06
   1.72300005       4.87947818E-06
   1.73000002       4.93391690E-06
   1.73699999       4.99029875E-06
   1.74399996       5.04852551E-06
   1.75100005       5.10850759E-06
   1.75800002       5.17015997E-06
   1.76499999       5.23340577E-06
   1.77199996       5.29816907E-06
   1.77900004       5.36437574E-06
   1.78600001       5.43195438E-06
   1.79299998       5.50084087E-06
   1.79999995       5.57097474E-06
   1.80700004       5.64230368E-06
   1.81400001       5.71477858E-06
   1.82099998       5.78835488E-06
   1.82799995       5.86298938E-06
   1.83500004       5.93863615E-06
   1.84200001       6.01524607E-06
   1.84899998       6.09276458E-06
   1.85599995       6.17113210E-06
   1.86300004       6.25028952E-06
   1.87000000       6.33017589E-06
   1.87699997       6.41073166E-06
   1.88399994       6.49189406E-06
   1.89100003       6.57359487E-06
   1.89800000       6.65575999E-06
   1.90499997       6.73830391E-06
   1.91199994       6.82113341E-06
   1.91900003       6.90414618E-06
   1.92600000       6.98723306E-06
   1.93299997       7.07028175E-06
   1.94000006       7.15317856E-06
   1.94700003       7.23580524E-06
   1.95400000       7.31803948E-06
   1.96099997       7.39975030E-06
   1.96800005       7.48079901E-06
   1.97500002       7.56103736E-06
   1.98199999       7.64030847E-06
   1.98899996       7.71845407E-06
   1.99600005       7.79531092E-06
   2.00300002       7.87072258E-06
   2.00999999       7.94453445E-06
   2.01699996       8.01659280E-06
   2.02399993       8.08674213E-06
   2.03099990       8.15482235E-06
   2.03800011       8.22066977E-06
   2.04500008       8.28411430E-06
   2.05200005       8.34498678E-06
   2.05900002       8.40312350E-06
   2.06599998       8.45836894E-06
   2.07299995       8.51058212E-06
   2.07999992       8.55962844E-06
   2.08699989       8.60538603E-06
   2.09400010       8.64773665E-06
   2.10100007       8.68656571E-06
   2.10800004       8.72176042E-06
   2.11500001       8.75321166E-06
   2.12199998       8.78082210E-06
   2.12899995       8.80451080E-06
   2.13599992       8.82421045E-06
   2.14299989       8.83987650E-06
   2.15000010       8.85147983E-06
   2.15700006       8.85900590E-06
   2.16400003       8.86244470E-06
   2.17100000       8.86178987E-06
   2.17799997       8.85703867E-06
   2.18499994       8.84819383E-06
   2.19199991       8.83526900E-06
   2.19899988       8.81829874E-06
   2.20600009       8.79733034E-06
   2.21300006       8.77244020E-06
   2.22000003       8.74372017E-06
   2.22700000       8.71127395E-06
   2.23399997       8.67521430E-06
   2.24099994       8.63565128E-06
   2.24799991       8.59269858E-06
   2.25500011       8.54647078E-06
   2.26200008       8.49708795E-06
   2.26900005       8.44468286E-06
   2.27600002       8.38940559E-06
   2.28299999       8.33141985E-06
   2.28999996       8.27090389E-06
   2.29699993       8.20804144E-06
   2.30399990       8.14301620E-06
   2.31100011       8.07600736E-06
   2.31800008       8.00719317E-06
   2.32500005       7.93673917E-06
   2.33200002       7.86481814E-06
   2.33899999       7.79160382E-06
   2.34599996       7.71727719E-06
   2.35299993       7.64203014E-06
   2.35999990       7.56605596E-06
   2.36700010       7.48954835E-06
   2.37400007       7.41269378E-06
   2.38100004       7.33566867E-06
   2.38800001       7.25863492E-06
   2.39499998       7.18174579E-06
   2.40199995       7.10514450E-06
   2.40899992       7.02897478E-06
   2.41599989       6.95338213E-06
   2.42300010       6.87851207E-06
   2.43000007       6.80451194E-06
   2.43700004       6.73152408E-06
   2.44400001       6.65967673E-06
   2.45099998       6.58907902E-06
   2.45799994       6.51982191E-06
   2.46499991       6.45197997E-06
   2.47199988       6.38561869E-06
   2.47900009       6.32080037E-06
   2.48600006       6.25758730E-06
   2.49300003       6.19604134E-06
   2.50000000       6.13621751E-06
   2.50699997       6.07815991E-06
   2.51399994       6.02189812E-06
   2.52099991       5.96743712E-06
   2.52800012       5.91476191E-06
   2.53500009       5.86384431E-06
   2.54200006       5.81464565E-06
   2.54900002       5.76712864E-06
   2.55599999       5.72126055E-06
   2.56299996       5.67701454E-06
   2.56999993       5.63435560E-06
   2.57699990       5.59323871E-06
   2.58400011       5.55359975E-06
   2.59100008       5.51535322E-06
   2.59800005       5.47839727E-06
   2.60500002       5.44261957E-06
   2.61199999       5.40790415E-06
   2.61899996       5.37413962E-06
   2.62599993       5.34122637E-06
   2.63299990       5.30907118E-06
   2.64000010       5.27758448E-06
   2.64700007       5.24666893E-06
   2.65400004       5.21621041E-06
   2.66100001       5.18607931E-06
   2.66799998       5.15613101E-06
   2.67499995       5.12622137E-06
   2.68199992       5.09621486E-06
   2.68899989       5.06599235E-06
   2.69600010       5.03545152E-06
   2.70300007       5.00450324E-06
   2.71000004       4.97306473E-06
   2.71700001       4.94105279E-06
   2.72399998       4.90837738E-06
   2.73099995       4.87493617E-06
   2.73799992       4.84062139E-06
   2.74499989       4.80532890E-06
   2.75200009       4.76896776E-06
   2.75900006       4.73146520E-06
   2.76600003       4.69277666E-06
   2.77300000       4.65287303E-06
   2.77999997       4.61173431E-06
   2.78699994       4.56934231E-06
   2.79399991       4.52567519E-06
   2.80100012       4.48070705E-06
   2.80800009       4.43441195E-06
   2.81500006       4.38676943E-06
   2.82200003       4.33777404E-06
   2.82900000       4.28744579E-06
   2.83599997       4.23582469E-06
   2.84299994       4.18297350E-06
   2.84999990       4.12896998E-06
   2.85700011       4.07389234E-06
   2.86400008       4.01781608E-06
   2.87100005       3.96081168E-06
   2.87800002       3.90294690E-06
   2.88499999       3.84429313E-06
   2.89199996       3.78493928E-06
   2.89899993       3.72498744E-06
   2.90599990       3.66455834E-06
   2.91300011       3.60378704E-06
   2.92000008       3.54281974E-06
   2.92700005       3.48180538E-06
   2.93400002       3.42088993E-06
   2.94099998       3.36021185E-06
   2.94799995       3.29990439E-06
   2.95499992       3.24010011E-06
   2.96199989       3.18093907E-06
   2.96900010       3.12257430E-06
   2.97600007       3.06517177E-06
   2.98300004       3.00890497E-06
   2.99000001       2.95395034E-06
   2.99699998       2.90048069E-06
   3.00399995       2.84866201E-06
   3.01099992       2.79864935E-06
   3.01799989       2.75058778E-06
   3.02500010       2.70461396E-06
   3.03200006       2.66086136E-06
   3.03900003       2.61946661E-06
   3.04600000       2.58056957E-06
   3.05299997       2.54431507E-06
   3.05999994       2.51084316E-06
   3.06699991       2.48028300E-06
   3.07399988       2.45274896E-06
   3.08100009       2.42834039E-06
   3.08800006       2.40714394E-06
   3.09500003       2.38923826E-06
   3.10200000       2.37469567E-06
   3.10899997       2.36358255E-06
   3.11599994       2.35596008E-06
   3.12299991       2.35188395E-06
   3.13000011       2.35140124E-06
   3.13700008       2.35454377E-06
   3.14400005       2.36132269E-06
   3.15100002       2.37173117E-06
   3.15799999       2.38574376E-06
   3.16499996       2.40332338E-06
   3.17199993       2.42442638E-06
   3.17899990       2.44900298E-06
   3.18600011       2.47699450E-06
   3.19300008       2.50832818E-06
   3.20000005       2.54291695E-06
   3.20700002       2.58065643E-06
   3.21399999       2.62142908E-06
   3.22099996       2.66510233E-06
   3.22799993       2.71153363E-06
   3.23499990       2.76057062E-06
   3.24200010       2.81205757E-06
   3.24900007       2.86583509E-06
   3.25600004       2.92174036E-06
   3.26300001       2.97960150E-06
   3.26999998       3.03923071E-06
   3.27699995       3.10042515E-06
   3.28399992       3.16297337E-06
   3.29099989       3.22665869E-06
   3.29800010       3.29126647E-06
   3.30500007       3.35658638E-06
   3.31200004       3.42240969E-06
   3.31900001       3.48853064E-06
   3.32599998       3.55474435E-06
   3.33299994       3.62084506E-06
   3.33999991       3.68662518E-06
   3.34699988       3.75187460E-06
   3.35400009       3.81638301E-06
   3.36100006       3.87994442E-06
   3.36800003       3.94236577E-06
   3.37500000       4.00347244E-06
   3.38199997       4.06310301E-06
   3.38899994       4.12110694E-06
   3.39599991       4.17733781E-06
   3.40300012       4.23165466E-06
   3.41000009       4.28392104E-06
   3.41700006       4.33401783E-06
   3.42400002       4.38183542E-06
   3.43099999       4.42728378E-06
   3.43799996       4.47029015E-06
   3.44499993       4.51080314E-06
   3.45199990       4.54878864E-06
   3.45900011       4.58423210E-06
   3.46600008       4.61712671E-06
   3.47300005       4.64747200E-06
   3.48000002       4.67526979E-06
   3.48699999       4.70053374E-06
   3.49399996       4.72329475E-06
   3.50099993       4.74360741E-06
   3.50799990       4.76154855E-06
   3.51500010       4.77721233E-06
   3.52200007       4.79070695E-06
   3.52900004       4.80214794E-06
   3.53600001       4.81165898E-06
   3.54299998       4.81936513E-06
   3.54999995       4.82539235E-06
   3.55699992       4.82986979E-06
   3.56399989       4.83293388E-06
   3.57100010       4.83473741E-06
   3.57800007       4.83545091E-06
   3.58500004       4.83526173E-06
   3.59200001       4.83435997E-06
   3.59899998       4.83293388E-06
   3.60599995       4.83115991E-06
   3.61299992       4.82920359E-06
   3.61999989       4.82721953E-06
   3.62700009       4.82535506E-06
   3.63400006       4.82375390E-06
   3.64100003       4.82255655E-06
   3.64800000       4.82190671E-06
   3.65499997       4.82195401E-06
   3.66199994       4.82285031E-06
   3.66899991       4.82473706E-06
   3.67600012       4.82773703E-06
   3.68300009       4.83195117E-06
   3.69000006       4.83745771E-06
   3.69700003       4.84431712E-06
   3.70400000       4.85257942E-06
   3.71099997       4.86228828E-06
   3.71799994       4.87348552E-06
   3.72499990       4.88620435E-06
   3.73200011       4.90047341E-06
   3.73900008       4.91630817E-06
   3.74600005       4.93370499E-06
   3.75300002       4.95263203E-06
   3.75999999       4.97302381E-06
   3.76699996       4.99478892E-06
   3.77399993       5.01781960E-06
   3.78099990       5.04200443E-06
   3.78800011       5.06723381E-06
   3.79500008       5.09339725E-06
   3.80200005       5.12038150E-06
   3.80900002       5.14806470E-06
   3.81599998       5.17631042E-06
   3.82299995       5.20495951E-06
   3.82999992       5.23383324E-06
   3.83699989       5.26272925E-06
   3.84400010       5.29142835E-06
   3.85100007       5.31971136E-06
   3.85800004       5.34736819E-06
   3.86500001       5.37420237E-06
   3.87199998       5.40002475E-06
   3.87899995       5.42464841E-06
   3.88599992       5.44787417E-06
   3.89299989       5.46949195E-06
   3.90000010       5.48927892E-06
   3.90700006       5.50700406E-06
   3.91400003       5.52243000E-06
   3.92100000       5.53532618E-06
   3.92799997       5.54547069E-06
   3.93499994       5.55266115E-06
   3.94199991       5.55671841E-06
   3.94899988       5.55747465E-06
   3.95600009       5.55476936E-06
   3.96300006       5.54844246E-06
   3.97000003       5.53833388E-06
   3.97700000       5.52428492E-06
   3.98399997       5.50614595E-06
   3.99099994       5.48378193E-06
   3.99799991       5.45707371E-06
   4.00500011       5.42592124E-06
   4.01200008       5.39024313E-06
   4.01900005       5.34998208E-06
   4.02600002       5.30509760E-06
   4.03299999       5.25556152E-06
   4.03999996       5.20135563E-06
   4.04699993       5.14246494E-06
   4.05399990       5.07889172E-06
   4.06099987       5.01065006E-06
   4.06799984       4.93777543E-06
   4.07499981       4.86032241E-06
   4.08199978       4.77835920E-06
   4.08900023       4.69197175E-06
   4.09600019       4.60126648E-06
   4.10300016       4.50636389E-06
   4.11000013       4.40740587E-06
   4.11700010       4.30454702E-06
   4.12400007       4.19795106E-06
   4.13100004       4.08779579E-06
   4.13800001       3.97426902E-06
   4.14499998       3.85757539E-06
   4.15199995       3.73793159E-06
   4.15899992       3.61556476E-06
   4.16599989       3.49070979E-06
   4.17299986       3.36361313E-06
   4.17999983       3.23453469E-06
   4.18699980       3.10375003E-06
   4.19399977       2.97154543E-06
   4.20100021       2.83821282E-06
   4.20800018       2.70404644E-06
   4.21500015       2.56934231E-06
   4.22200012       2.43439899E-06
   4.22900009       2.29951706E-06
   4.23600006       2.16499598E-06
   4.24300003       2.03113404E-06
   4.25000000       1.89823106E-06
   4.25699997       1.76659273E-06
   4.26399994       1.63653249E-06
   4.27099991       1.50836797E-06
   4.27799988       1.38241353E-06
   4.28499985       1.25897145E-06
   4.29199982       1.13832789E-06
   4.29899979       1.02075319E-06
   4.30600023       9.06504454E-07
   4.31300020       7.95829067E-07
   4.32000017       6.88964974E-07
   4.32700014       5.86144438E-07
   4.33400011       4.87597958E-07
   4.34100008       3.93555666E-07
   4.34800005       3.04242747E-07
   4.35500002       2.19868809E-07
   4.36199999       1.40616365E-07
   4.36899996       6.66335964E-08
   4.37599993      -1.96272687E-09
   4.38299990      -6.50798810E-08
   4.38999987      -1.22639278E-07
   4.39699984      -1.74569820E-07
   4.40399981      -2.20804495E-07
   4.41099977      -2.61280746E-07
   4.41800022      -2.95943323E-07
   4.42500019      -3.24751142E-07
   4.43200016      -3.47689138E-07
   4.43900013      -3.64778941E-07
   4.44600010      -3.76083136E-07
   4.45300007      -3.81699493E-07
   4.46000004      -3.81747043E-07
   4.46700001      -3.76350499E-07
   4.47399998      -3.65631166E-07
   4.48099995      -3.49707562E-07
   4.48799992      -3.28701589E-07
   4.49499989      -3.02747793E-07
   4.50199986      -2.72003092E-07
   4.50899982      -2.36652568E-07
   4.51599979      -1.96912779E-07
   4.52299976      -1.53029589E-07
   4.53000021      -1.05267361E-07
   4.53700018      -5.38929967E-08
   4.54400015       8.37792558E-10
   4.55100012       5.86867444E-08
   4.55800009       1.19426787E-07
   4.56500006       1.82828103E-07
   4.57200003       2.48644284E-07
   4.57900000       3.16605650E-07
   4.58599997       3.86420851E-07
   4.59299994       4.57783244E-07
   4.59999990       5.30380589E-07
   4.60699987       6.03906756E-07
   4.61399984       6.78072354E-07
   4.62099981       7.52611470E-07
   4.62799978       8.27281667E-07
   4.63500023       9.01854321E-07
   4.64200020       9.76099841E-07
   4.64900017       1.04977676E-06
   4.65600014       1.12262899E-06
   4.66300011       1.19439585E-06
   4.67000008       1.26482360E-06
   4.67700005       1.33367814E-06
   4.68400002       1.40074974E-06
   4.69099998       1.46585342E-06
   4.69799995       1.52882535E-06
   4.70499992       1.58951673E-06
   4.71199989       1.64778612E-06
   4.71899986       1.70349006E-06
   4.72599983       1.75647904E-06
   4.73299980       1.80660152E-06
   4.73999977       1.85371471E-06
   4.74700022       1.89769878E-06
   4.75400019       1.93846495E-06
   4.76100016       1.97595477E-06
   4.76800013       2.01013222E-06
   4.77500010       2.04097296E-06
   4.78200006       2.06845630E-06
   4.78900003       2.09256177E-06
   4.79600000       2.11327119E-06
   4.80299997       2.13057046E-06
   4.80999994       2.14445458E-06
   4.81699991       2.15493583E-06
   4.82399988       2.16204990E-06
   4.83099985       2.16585795E-06
   4.83799982       2.16644230E-06
   4.84499979       2.16389276E-06
   4.85200024       2.15829664E-06
   4.85900021       2.14973397E-06
   4.86600018       2.13828412E-06
   4.87300014       2.12403165E-06
   4.88000011       2.10707549E-06
   4.88700008       2.08753295E-06
   4.89400005       2.06553796E-06
   4.90100002       2.04124103E-06
   4.90799999       2.01480248E-06
   4.91499996       1.98638486E-06
   4.92199993       1.95614734E-06
   4.92899990       1.92423590E-06
   4.93599987       1.89078764E-06
   4.94299984       1.85593774E-06
   4.94999981       1.81983091E-06
   4.95699978       1.78262917E-06
   4.96400023       1.74450940E-06
   4.97100019       1.70565681E-06
   4.97800016       1.66625409E-06
   4.98500013       1.62647450E-06
   4.99200010       1.58648027E-06