  -1.00000000       1.00000002E-24
 -0.992999971       1.00000002E-24
 -0.986000001       1.00000022E-24
 -0.978999972       1.00000051E-24
 -0.972000003       1.00000317E-24
 -0.964999974       1.00002092E-24
 -0.958000004       1.00006224E-24
 -0.950999975       9.99803593E-25
 -0.944000006       9.96889935E-25
 -0.936999977       9.81600726E-25
 -0.930000007       9.25549102E-25
 -0.922999978       7.66340603E-25
 -0.916000009       4.01522854E-25
 -0.908999979      -2.78649214E-25
 -0.902000010      -1.28075483E-24
 -0.894999981      -2.29884540E-24
 -0.888000011      -2.44889956E-24
 -0.880999982      -9.88833755E-26
 -0.874000013       6.94616876E-24
 -0.866999984       2.06455312E-23
 -0.860000014       4.13003867E-23
 -0.852999985       6.60590923E-23
 -0.846000016       8.86080817E-23
 -0.838999987       1.01650262E-22
 -0.832000017       1.03040456E-22
 -0.824999988       1.04205124E-22
 -0.818000019       1.36224830E-22
 -0.810999990       2.46522643E-22
 -0.804000020       4.80114883E-22
 -0.796999991       8.45763298E-22
 -0.790000021       1.27830394E-21
 -0.782999992       1.61916132E-21
 -0.776000023       1.63985345E-21
 -0.768999994       1.12102623E-21
 -0.762000024      -2.90534947E-23
 -0.754999995      -1.66884628E-21
 -0.748000026      -3.40813559E-21
 -0.740999997      -4.75187797E-21
 -0.734000027      -5.41640531E-21
 -0.726999998      -5.73503867E-21
 -0.720000029      -6.96971156E-21
 -0.713000000      -1.12965213E-20
 -0.705999970      -2.12898809E-20
 -0.699000001      -3.89094483E-20
 -0.691999972      -6.42507242E-20
 -0.685000002      -9.45445145E-20
 -0.677999973      -1.23945699E-19
 -0.671000004      -1.44442395E-19
 -0.663999975      -1.47757683E-19
 -0.657000005      -1.27574502E-19
 -0.649999976      -8.10586465E-20
 -0.643000007      -8.76369263E-21
 -0.635999978       8.73150917E-20
 -0.629000008       2.06678068E-19
 -0.621999979       3.52353453E-19
 -0.615000010       5.29774337E-19
 -0.607999980       7.41074058E-19
 -0.601000011       9.75433816E-19
 -0.593999982       1.19882531E-18
 -0.587000012       1.34867839E-18
 -0.579999983       1.33931605E-18
 -0.573000014       1.08152707E-18
 -0.565999985       5.14506031E-19
 -0.559000015      -3.57974999E-19
 -0.551999986      -1.44037053E-18
 -0.545000017      -2.54146342E-18
 -0.537999988      -3.40354961E-18
 -0.531000018      -3.76462718E-18
 -0.523999989      -3.44104219E-18
 -0.517000020      -2.40740247E-18
 -0.509999990      -8.46316919E-19
 -0.503000021       8.54433370E-19
 -0.495999992       2.16599353E-18
 -0.488999993       2.53410730E-18
 -0.481999993       1.52016399E-18
 -0.474999994      -1.06697334E-18
 -0.467999995      -5.07979638E-18
 -0.460999995      -9.99988238E-18
 -0.453999996      -1.49654526E-17
 -0.446999997      -1.88463937E-17
 -0.439999998      -2.03514571E-17
 -0.432999998      -1.81608827E-17
 -0.425999999      -1.10920470E-17
 -0.419000000       1.68514217E-18
 -0.412000000       2.03729870E-17
 -0.405000001       4.42286327E-17
 -0.398000002       7.12666854E-17
 -0.391000003       9.80876197E-17
 -0.384000003       1.19959890E-16
 -0.377000004       1.31262314E-16
 -0.370000005       1.26322259E-16
 -0.363000005       1.00572900E-16
 -0.356000006       5.18316897E-17
 -0.349000007      -1.85901828E-17
 -0.342000008      -1.05260751E-16
 -0.335000008      -1.98731942E-16
 -0.328000009      -2.86479036E-16
 -0.321000010      -3.54586574E-16
 -0.314000010      -3.89908986E-16
 -0.307000011      -3.82311338E-16
 -0.300000012      -3.26571303E-16
 -0.293000013      -2.23599546E-16
 -0.286000013      -8.07861975E-17
 -0.279000014       8.85472824E-17
 -0.272000015       2.66470821E-16
 -0.264999986       4.32343722E-16
 -0.257999986       5.65080084E-16
 -0.250999987       6.45601736E-16
 -0.244000003       6.59323882E-16
 -0.237000003       5.98498287E-16
 -0.230000004       4.64167649E-16
 -0.223000005       2.67381170E-16
 -0.216000006       2.92586422E-17
 -0.209000006      -2.20482266E-16
 -0.202000007      -4.46729147E-16
 -0.194999993      -6.13769338E-16
 -0.187999994      -6.91109852E-16
 -0.180999994      -6.59354110E-16
 -0.173999995      -5.14930228E-16
 -0.166999996      -2.72498493E-16
 -0.159999996       3.57789000E-17
 -0.152999997       3.64300771E-16
 -0.145999998       6.60861035E-16
 -0.138999999       8.75014363E-16
 -0.131999999       9.66326421E-16
 -0.125000000       9.10861962E-16
 -0.118000001       7.04702666E-16
 -0.111000001       3.64027656E-16
 -0.104000002      -7.78714248E-17
  -9.70000029E-02  -5.75602298E-16
  -9.00000036E-02  -1.07738218E-15
  -8.29999968E-02  -1.53029747E-15
  -7.59999976E-02  -1.88451490E-15
  -6.89999983E-02  -2.09653508E-15
  -6.19999990E-02  -2.13211279E-15
  -5.49999997E-02  -1.96955510E-15
  -4.80000004E-02  -1.60369383E-15
  -4.10000011E-02  -1.04999993E-15
  -3.40000018E-02  -3.47453577E-16
  -2.70000007E-02   4.41734246E-16
  -1.99999996E-02   1.23720512E-15
  -1.30000003E-02   1.95093499E-15
  -6.00000005E-03   2.50200086E-15
   1.00000005E-03   2.83273165E-15
   8.00000038E-03   2.92213174E-15
   1.49999997E-02   2.79244147E-15
   2.19999999E-02   2.50602067E-15
   2.89999992E-02   2.15225439E-15
   3.59999985E-02   1.82705303E-15
   4.30000015E-02   1.60987294E-15
   5.00000007E-02   1.54411978E-15
   5.70000000E-02   1.62589859E-15
   6.40000030E-02   1.80361521E-15
   7.10000023E-02   1.98769664E-15
   7.80000016E-02   2.06694674E-15
   8.50000009E-02   1.92672213E-15
   9.20000002E-02   1.46475512E-15
   9.89999995E-02   6.02696817E-16
  0.105999999      -7.05699783E-16
  0.112999998      -2.46680473E-15
  0.119999997      -4.63672485E-15
  0.127000004      -7.10751021E-15
  0.134000003      -9.69294445E-15
  0.141000003      -1.21208009E-14
  0.148000002      -1.40403927E-14
  0.155000001      -1.50527733E-14
  0.162000000      -1.47658578E-14
  0.169000000      -1.28689479E-14
  0.175999999      -9.21318584E-15
  0.182999998      -3.87903355E-15
  0.189999998       2.78850997E-15
  0.196999997       1.01909380E-14
  0.203999996       1.75373445E-14
  0.210999995       2.39473985E-14
  0.217999995       2.85773195E-14
  0.224999994       3.07443314E-14
  0.231999993       3.00259458E-14
  0.238999993       2.63173916E-14
  0.246000007       1.98413572E-14
  0.252999991       1.11153576E-14
  0.259999990       8.89672162E-16
  0.266999990      -9.92888887E-15
  0.273999989      -2.03552673E-14
  0.280999988      -2.94008931E-14
  0.287999988      -3.61457012E-14
  0.294999987      -3.98118191E-14
  0.301999986      -3.98416855E-14
  0.308999985      -3.59771485E-14
  0.316000015      -2.83277870E-14
  0.323000014      -1.74099304E-14
  0.330000013      -4.13675518E-15
  0.337000012       1.02539657E-14
  0.344000012       2.43346044E-14
  0.351000011       3.66684696E-14
  0.358000010       4.60048022E-14
  0.365000010       5.14482865E-14
  0.372000009       5.25658178E-14
  0.379000008       4.94066661E-14
  0.386000007       4.24341721E-14
  0.393000007       3.23903603E-14
  0.400000006       2.01329821E-14
  0.407000005       6.49123106E-15
  0.414000005      -7.82134384E-15
  0.421000004      -2.22182248E-14
  0.428000003      -3.61836009E-14
  0.435000002      -4.91804405E-14
  0.442000002      -6.05683242E-14
  0.449000001      -6.95739920E-14
  0.456000000      -7.53391354E-14
  0.463000000      -7.70415226E-14
  0.469999999      -7.40565378E-14
  0.476999998      -6.61088073E-14
  0.483999997      -5.33619949E-14
  0.490999997      -3.64150950E-14
  0.497999996      -1.62049634E-14
  0.504999995       6.15031978E-15
  0.512000024       2.95094319E-14
  0.518999994       5.28077846E-14
  0.526000023       7.50629281E-14
  0.532999992       9.52891398E-14
  0.540000021       1.12368807E-13
  0.546999991       1.24957702E-13
  0.554000020       1.31502936E-13
  0.560999990       1.30420753E-13
  0.568000019       1.20425466E-13
  0.574999988       1.00937359E-13
  0.582000017       7.24501974E-14
  0.588999987       3.67278162E-14
  0.596000016      -3.26672910E-15
  0.602999985      -4.37342016E-14
  0.610000014      -8.06312550E-14
  0.616999984      -1.10352564E-13
  0.624000013      -1.30328853E-13
  0.630999982      -1.39386359E-13
  0.638000011      -1.37783773E-13
  0.644999981      -1.26942253E-13
  0.652000010      -1.08977836E-13
  0.658999979      -8.62007541E-14
  0.666000009      -6.07426571E-14
  0.672999978      -3.44105034E-14
  0.680000007      -8.76758213E-15
  0.686999977       1.46559959E-14
  0.694000006       3.41788501E-14
  0.700999975       4.79595069E-14
  0.708000004       5.42412964E-14
  0.714999974       5.18155871E-14
  0.722000003       4.05567303E-14
  0.728999972       2.18170496E-14
  0.736000001      -1.51740775E-15
  0.742999971      -2.54157132E-14
  0.750000000      -4.54928419E-14
  0.757000029      -5.80086245E-14
  0.763999999      -6.07826574E-14
  0.771000028      -5.37292887E-14
  0.777999997      -3.88181613E-14
  0.785000026      -1.94455522E-14
  0.791999996       6.00081550E-16
  0.799000025       1.82456148E-14
  0.805999994       3.19413482E-14
  0.813000023       4.18855319E-14
  0.819999993       4.95777193E-14
  0.827000022       5.68516317E-14
  0.833999991       6.47368105E-14
  0.841000021       7.25826869E-14
  0.847999990       7.78095782E-14
  0.855000019       7.64448522E-14
  0.861999989       6.43249424E-14
  0.869000018       3.85906720E-14
  0.875999987      -1.02966564E-15
  0.883000016      -5.16144338E-14
  0.889999986      -1.07372668E-13
  0.897000015      -1.60835985E-13
  0.903999984      -2.04547818E-13
  0.911000013      -2.32692338E-13
  0.917999983      -2.42114922E-13
  0.925000012      -2.32401175E-13
  0.931999981      -2.05031372E-13
  0.939000010      -1.61988072E-13
  0.945999980      -1.04427860E-13
  0.953000009      -3.20373509E-14
  0.959999979       5.65465914E-14
  0.967000008       1.62284967E-13
  0.973999977       2.83727252E-13
  0.981000006       4.15220918E-13
  0.987999976       5.46149009E-13
  0.995000005       6.61731737E-13
   1.00199997       7.45421845E-13
   1.00899994       7.82355951E-13
   1.01600003       7.62895010E-13
   1.02300000       6.85171754E-13
   1.02999997       5.55812015E-13
   1.03699994       3.88569304E-13
   1.04400003       2.01284939E-13
   1.05100000       1.21477239E-14
   1.05799997      -1.63546829E-13
   1.06500006      -3.15137402E-13
   1.07200003      -4.36411459E-13
   1.07900000      -5.23802735E-13
   1.08599997      -5.73916728E-13
   1.09300005      -5.81610443E-13
   1.10000002      -5.39657566E-13
   1.10699999      -4.40410268E-13
   1.11399996      -2.79041005E-13
   1.12100005      -5.72208635E-14
   1.12800002       2.14234446E-13
   1.13499999       5.15000315E-13
   1.14199996       8.17684895E-13
   1.14900005       1.09261385E-12
   1.15600002       1.31360005E-12
   1.16299999       1.46289372E-12
   1.16999996       1.53367792E-12
   1.17700005       1.52926857E-12
   1.18400002       1.45930826E-12
   1.19099998       1.33431796E-12
   1.19799995       1.16060080E-12
   1.20500004       9.37397404E-13
   1.21200001       6.57408481E-13
   1.21899998       3.10553205E-13
   1.22599995      -1.10406103E-13
   1.23300004      -6.04522834E-13
   1.24000001      -1.15976239E-12
   1.24699998      -1.75390746E-12
   1.25399995      -2.35929310E-12
   1.26100004      -2.95000634E-12
   1.26800001      -3.50920898E-12
   1.27499998      -4.03413631E-12
   1.28199995      -4.53704609E-12
   1.28900003      -5.04181679E-12
   1.29600000      -5.57744953E-12
   1.30299997      -6.17079218E-12
   1.30999994      -6.84116609E-12
   1.31700003      -7.59871940E-12
   1.32400000      -8.44703214E-12
   1.33099997      -9.38871984E-12
   1.33800006      -1.04315454E-11
   1.34500003      -1.15922038E-11
   1.35200000      -1.28956689E-11
   1.35899997      -1.43696626E-11
   1.36600006      -1.60355600E-11
   1.37300003      -1.78986045E-11
   1.38000000      -1.99408476E-11
   1.38699996      -2.21194989E-11
   1.39400005      -2.43717008E-11
   1.40100002      -2.66244648E-11
   1.40799999      -2.88068579E-11
   1.41499996      -3.08605572E-11
   1.42200005      -3.27454071E-11
   1.42900002      -3.44382543E-11
   1.43599999      -3.59257450E-11
   1.44299996      -3.71938695E-11
   1.45000005      -3.82182341E-11
   1.45700002      -3.89582568E-11
   1.46399999      -3.93575832E-11
   1.47099996      -3.93498706E-11
   1.47800004      -3.88675932E-11
   1.48500001      -3.78495672E-11
   1.49199998      -3.62436227E-11
   1.49899995      -3.40023738E-11
   1.50600004      -3.10723704E-11
   1.51300001      -2.73796680E-11
   1.51999998      -2.28165854E-11
   1.52699995      -1.72337491E-11
   1.53400004      -1.04403639E-11
   1.54100001      -2.21233231E-12
   1.54799998       7.69460971E-12
   1.55499995       1.95319611E-11
   1.56200004       3.35506865E-11
   1.56900001       5.00017423E-11
   1.57599998       6.91460708E-11
   1.58299994       9.12693046E-11
   1.59000003       1.16698332E-10
   1.59700000       1.45813167E-10
   1.60399997       1.79049497E-10
   1.61099994       2.16892920E-10
   1.61800003       2.59866101E-10
   1.62500000       3.08517101E-10
   1.63199997       3.63411440E-10
   1.63900006       4.25134844E-10
   1.64600003       4.94305152E-10
   1.65300000       5.71593550E-10
   1.65999997       6.57747079E-10
   1.66700006       7.53609231E-10
   1.67400002       8.60126304E-10
   1.68099999       9.78347292E-10
   1.68799996       1.10941278E-09
   1.69500005       1.25454558E-09
   1.70200002       1.41503642E-09
   1.70899999       1.59224745E-09
   1.71599996       1.78762183E-09
   1.72300005       2.00270600E-09
   1.73000002       2.23917196E-09
   1.73699999       2.49883580E-09
   1.74399996       2.78366397E-09
   1.75100005       3.09577053E-09
   1.75800002       3.43739970E-09
   1.76499999       3.81090715E-09
   1.77199996       4.21874446E-09
   1.77900004       4.66345940E-09
   1.78600001       5.14770448E-09
   1.79299998       5.67425973E-09
   1.79999995       6.24605878E-09
   1.80700004       6.86620893E-09
   1.81400001       7.53800578E-09
   1.82099998       8.26492652E-09
   1.82799995       9.05061182E-09
   1.83500004       9.89886129E-09
   1.84200001       1.08135900E-08
   1.84899998       1.17988224E-08
   1.85599995       1.28586883E-08
   1.86300004       1.39974379E-08
   1.87000000       1.52194737E-08
   1.87699997       1.65293486E-08
   1.88399994       1.79317627E-08
   1.89100003       1.94315390E-08
   1.89800000       2.10336157E-08
   1.90499997       2.27430057E-08
   1.91199994       2.45647556E-08
   1.91900003       2.65039297E-08
   1.92600000       2.85655979E-08
   1.93299997       3.07548511E-08
   1.94000006       3.30767485E-08
   1.94700003       3.55363774E-08
   1.95400000       3.81388716E-08
   1.96099997       4.08893328E-08
   1.96800005       4.37928165E-08
   1.97500002       4.68542218E-08
   1.98199999       5.00782917E-08
   1.98899996       5.34695523E-08
   1.99600005       5.70323202E-08
   2.00300002       6.07706951E-08
   2.00999999       6.46884573E-08
   2.01699996       6.87891557E-08
   2.02399993       7.30761016E-08
   2.03099990       7.75523077E-08
   2.03800011       8.22205095E-08
   2.04500008       8.70830021E-08
   2.05200005       9.21416046E-08
   2.05900002       9.73975887E-08
   2.06599998       1.02851772E-07
   2.07299995       1.08504345E-07
   2.07999992       1.14355061E-07
   2.08699989       1.20403044E-07
   2.09400010       1.26646796E-07
   2.10100007       1.33084228E-07
   2.10800004       1.39712611E-07
   2.11500001       1.46528606E-07
   2.12199998       1.53528191E-07
   2.12899995       1.60706577E-07
   2.13599992       1.68057952E-07
   2.14299989       1.75575749E-07
   2.15000010       1.83252695E-07
   2.15700006       1.91080815E-07
   2.16400003       1.99051613E-07
   2.17100000       2.07155765E-07
   2.17799997       2.15383153E-07
   2.18499994       2.23722751E-07
   2.19199991       2.32162932E-07
   2.19899988       2.40691406E-07
   2.20600009       2.49295027E-07
   2.21300006       2.57959812E-07
   2.22000003       2.66671037E-07
   2.22700000       2.75413470E-07
   2.23399997       2.84171165E-07
   2.24099994       2.92927780E-07
   2.24799991       3.01666546E-07
   2.25500011       3.10370183E-07
   2.26200008       3.19020955E-07
   2.26900005       3.27600418E-07
   2.27600002       3.36089869E-07
   2.28299999       3.44470465E-07
   2.28999996       3.52723106E-07
   2.29699993       3.60828352E-07
   2.30399990       3.68766848E-07
   2.31100011       3.76519353E-07
   2.31800008       3.84066823E-07
   2.32500005       3.91390017E-07
   2.33200002       3.98470235E-07
   2.33899999       4.05288830E-07
   2.34599996       4.11827045E-07
   2.35299993       4.18066548E-07
   2.35999990       4.23989576E-07
   2.36700010       4.29579188E-07
   2.37400007       4.34818759E-07
   2.38100004       4.39692258E-07
   2.38800001       4.44184195E-07
   2.39499998       4.48280019E-07
   2.40199995       4.51966486E-07
   2.40899992       4.55231316E-07
   2.41599989       4.58062374E-07
   2.42300010       4.60447950E-07
   2.43000007       4.62377614E-07
   2.43700004       4.63842383E-07
   2.44400001       4.64834642E-07
   2.45099998       4.65347711E-07
   2.45799994       4.65375791E-07
   2.46499991       4.64913654E-07
   2.47199988       4.63957349E-07
   2.47900009       4.62504659E-07
   2.48600006       4.60554446E-07
   2.49300003       4.58106371E-07
   2.50000000       4.55160347E-07
   2.50699997       4.51716971E-07
   2.51399994       4.47779144E-07
   2.52099991       4.43350672E-07
   2.52800012       4.38436984E-07
   2.53500009       4.33043454E-07
   2.54200006       4.27176047E-07
   2.54900002       4.20841729E-07
   2.55599999       4.14048628E-07
   2.56299996       4.06805725E-07
   2.56999993       3.99122399E-07
   2.57699990       3.91008314E-07
   2.58400011       3.82473644E-07
   2.59100008       3.73529076E-07
   2.59800005       3.64186263E-07
   2.60500002       3.54458024E-07
   2.61199999       3.44356920E-07
   2.61899996       3.33895088E-07
   2.62599993       3.23084805E-07
   2.63299990       3.11938607E-07
   2.64000010       3.00469708E-07
   2.64700007       2.88691581E-07
   2.65400004       2.76617243E-07
   2.66100001       2.64259285E-07
   2.66799998       2.51630212E-07
   2.67499995       2.38742956E-07
   2.68199992       2.25611075E-07
   2.68899989       2.12248040E-07
   2.69600010       1.98666484E-07
   2.70300007       1.84877919E-07
   2.71000004       1.70893756E-07
   2.71700001       1.56725548E-07
   2.72399998       1.42385176E-07
   2.73099995       1.27884718E-07
   2.73799992       1.13235401E-07
   2.74499989       9.84476856E-08
   2.75200009       8.35319511E-08
   2.75900006       6.84986574E-08
   2.76600003       5.33587503E-08
   2.77300000       3.81226357E-08
   2.77999997       2.27998260E-08
   2.78699994       7.39902140E-09
   2.79399991      -8.07104517E-09
   2.80100012      -2.36011299E-08
   2.80800009      -3.91816286E-08
   2.81500006      -5.48029178E-08
   2.82200003      -7.04561316E-08
   2.82900000      -8.61327933E-08
   2.83599997      -1.01824440E-07
   2.84299994      -1.17522042E-07
   2.84999990      -1.33216119E-07
   2.85700011      -1.48897513E-07
   2.86400008      -1.64557520E-07
   2.87100005      -1.80187513E-07
   2.87800002      -1.95778611E-07
   2.88499999      -2.11320966E-07
   2.89199996      -2.26804076E-07
   2.89899993      -2.42217709E-07
   2.90599990      -2.57552159E-07
   2.91300011      -2.72797962E-07
   2.92000008      -2.87945170E-07
   2.92700005      -3.02983125E-07
   2.93400002      -3.17900827E-07
   2.94099998      -3.32687478E-07
   2.94799995      -3.47332787E-07
   2.95499992      -3.61825926E-07
   2.96199989      -3.76155782E-07
   2.96900010      -3.90310646E-07
   2.97600007      -4.04278467E-07
   2.98300004      -4.18047307E-07
   2.99000001      -4.31606367E-07
   2.99699998      -4.44944675E-07
   3.00399995      -4.58050806E-07
   3.01099992      -4.70912710E-07
   3.01799989      -4.83518193E-07
   3.02500010      -4.95855772E-07
   3.03200006      -5.07914422E-07
   3.03900003      -5.19683738E-07
   3.04600000      -5.31152523E-07
   3.05299997      -5.42309408E-07
   3.05999994      -5.53143252E-07
   3.06699991      -5.63643880E-07
   3.07399988      -5.73802254E-07
   3.08100009      -5.83609221E-07
   3.08800006      -5.93055802E-07
   3.09500003      -6.02131706E-07
   3.10200000      -6.10828067E-07
   3.10899997      -6.19136983E-07
   3.11599994      -6.27051577E-07
   3.12299991      -6.34564913E-07
   3.13000011      -6.41670567E-07
   3.13700008      -6.48362231E-07
   3.14400005      -6.54635130E-07
   3.15100002      -6.60485284E-07
   3.15799999      -6.65909738E-07
   3.16499996      -6.70905706E-07
   3.17199993      -6.75470801E-07
   3.17899990      -6.79603545E-07
   3.18600011      -6.83303426E-07
   3.19300008      -6.86571127E-07
   3.20000005      -6.89408296E-07
   3.20700002      -6.91817490E-07
   3.21399999      -6.93801894E-07
   3.22099996      -6.95366282E-07
   3.22799993      -6.96515770E-07
   3.23499990      -6.97256780E-07
   3.24200010      -6.97596704E-07
   3.24900007      -6.97543896E-07
   3.25600004      -6.97107964E-07
   3.26300001      -6.96299310E-07
   3.26999998      -6.95129756E-07
   3.27699995      -6.93612208E-07
   3.28399992      -6.91760590E-07
   3.29099989      -6.89590308E-07
   3.29800010      -6.87117563E-07
   3.30500007      -6.84359463E-07
   3.31200004      -6.81333972E-07
   3.31900001      -6.78060871E-07
   3.32599998      -6.74560852E-07
   3.33299994      -6.70855343E-07
   3.33999991      -6.66966969E-07
   3.34699988      -6.62919547E-07
   3.35400009      -6.58737065E-07
   3.36100006      -6.54445103E-07
   3.36800003      -6.50069524E-07
   3.37500000      -6.45636931E-07
   3.38199997      -6.41175575E-07
   3.38899994      -6.36713764E-07
   3.39599991      -6.32280432E-07
   3.40300012      -6.27904967E-07
   3.41000009      -6.23616813E-07
   3.41700006      -6.19445927E-07
   3.42400002      -6.15422948E-07
   3.43099999      -6.11578798E-07
   3.43799996      -6.07944287E-07
   3.44499993      -6.04549598E-07
   3.45199990      -6.01423494E-07
   3.45900011      -5.98596273E-07
   3.46600008      -5.96098232E-07
   3.47300005      -5.93959271E-07
   3.48000002      -5.92208380E-07
   3.48699999      -5.90872332E-07
   3.49399996      -5.89976651E-07
   3.50099993      -5.89547369E-07
   3.50799990      -5.89610408E-07
   3.51500010      -5.90189813E-07
   3.52200007      -5.91307753E-07
   3.52900004      -5.92983952E-07
   3.53600001      -5.95237168E-07
   3.54299998      -5.98084966E-07
   3.54999995      -6.01544173E-07
   3.55699992      -6.05629452E-07
   3.56399989      -6.10352288E-07
   3.57100010      -6.15721888E-07
   3.57800007      -6.21745812E-07
   3.58500004      -6.28430655E-07
   3.59200001      -6.35782214E-07
   3.59899998      -6.43802935E-07
   3.60599995      -6.52492815E-07
   3.61299992      -6.61848730E-07
   3.61999989      -6.71865678E-07
   3.62700009      -6.82537689E-07
   3.63400006      -6.93857203E-07
   3.64100003      -7.05814045E-07
   3.64800000      -7.18395142E-07
   3.65499997      -7.31585544E-07
   3.66199994      -7.45369164E-07
   3.66899991      -7.59729346E-07
   3.67600012      -7.74647617E-07
   3.68300009      -7.90103968E-07
   3.69000006      -8.06074638E-07
   3.69700003      -8.22534048E-07
   3.70400000      -8.39456902E-07
   3.71099997      -8.56818019E-07
   3.71799994      -8.74591478E-07
   3.72499990      -8.92749767E-07
   3.73200011      -9.11263783E-07
   3.73900008      -9.30104136E-07
   3.74600005      -9.49243258E-07
   3.75300002      -9.68653580E-07
   3.75999999      -9.88307193E-07
   3.76699996      -1.00817454E-06
   3.77399993      -1.02822594E-06
   3.78099990      -1.04843298E-06
   3.78800011      -1.06877008E-06
   3.79500008      -1.08921381E-06
   3.80200005      -1.10974088E-06
   3.80900002      -1.13032763E-06
   3.81599998      -1.15095133E-06
   3.82299995      -1.17159129E-06
   3.82999992      -1.19223125E-06
   3.83699989      -1.21285643E-06
   3.84400010      -1.23345319E-06
   3.85100007      -1.25400834E-06
   3.85800004      -1.27451085E-06
   3.86500001      -1.29495402E-06
   3.87199998      -1.31533488E-06
   3.87899995      -1.33565288E-06
   3.88599992      -1.35590869E-06
   3.89299989      -1.37610459E-06
   3.90000010      -1.39624512E-06
   3.90700006      -1.41633870E-06
   3.91400003      -1.43639681E-06
   3.92100000      -1.45643401E-06
   3.92799997      -1.47646699E-06
   3.93499994      -1.49651407E-06
   3.94199991      -1.51659583E-06
   3.94899988      -1.53673591E-06
   3.95600009      -1.55696193E-06
   3.96300006      -1.57730381E-06
   3.97000003      -1.59779256E-06
   3.97700000      -1.61845924E-06
   3.98399997      -1.63933748E-06
   3.99099994      -1.66046243E-06
   3.99799991      -1.68187296E-06
   4.00500011      -1.70361022E-06
   4.01200008      -1.72571561E-06
   4.01900005      -1.74823003E-06
   4.02600002      -1.77119466E-06
   4.03299999      -1.79465258E-06
   4.03999996      -1.81864857E-06
   4.04699993      -1.84322698E-06
   4.05399990      -1.86843147E-06
   4.06099987      -1.89430250E-06
   4.06799984      -1.92087964E-06
   4.07499981      -1.94820404E-06
   4.08199978      -1.97631880E-06
   4.08900023      -2.00526529E-06
   4.09600019      -2.03508171E-06
   4.10300016      -2.06580216E-06
   4.11000013      -2.09745963E-06
   4.11700010      -2.13008616E-06
   4.12400007      -2.16371359E-06
   4.13100004      -2.19836897E-06
   4.13800001      -2.23407483E-06
   4.14499998      -2.27085025E-06
   4.15199995      -2.30871069E-06
   4.15899992      -2.34767299E-06
   4.16599989      -2.38775078E-06
   4.17299986      -2.42895430E-06
   4.17999983      -2.47128423E-06
   4.18699980      -2.51473875E-06
   4.19399977      -2.55931241E-06
   4.20100021      -2.60499701E-06
   4.20800018      -2.65178278E-06
   4.21500015      -2.69965221E-06
   4.22200012      -2.74858485E-06
   4.22900009      -2.79855385E-06
   4.23600006      -2.84952989E-06
   4.24300003      -2.90148068E-06
   4.25000000      -2.95436939E-06
   4.25699997      -3.00815236E-06
   4.26399994      -3.06278298E-06
   4.27099991      -3.11820918E-06
   4.27799988      -3.17437480E-06
   4.28499985      -3.23122345E-06
   4.29199982      -3.28869191E-06
   4.29899979      -3.34671540E-06
   4.30600023      -3.40522388E-06
   4.31300020      -3.46414390E-06
   4.32000017      -3.52340203E-06
   4.32700014      -3.58291845E-06
   4.33400011      -3.64261109E-06
   4.34100008      -3.70239354E-06
   4.34800005      -3.76217622E-06
   4.35500002      -3.82187318E-06
   4.36199999      -3.88139324E-06
   4.36899996      -3.94064409E-06
   4.37599993      -3.99952705E-06
   4.38299990      -4.05794572E-06
   4.38999987      -4.11580322E-06
   4.39699984      -4.17300316E-06
   4.40399981      -4.22944549E-06
   4.41099977      -4.28502653E-06
   4.41800022      -4.33964533E-06
   4.42500019      -4.39320002E-06
   4.43200016      -4.44558873E-06
   4.43900013      -4.49671325E-06
   4.44600010      -4.54647216E-06
   4.45300007      -4.59477042E-06
   4.46000004      -4.64150571E-06
   4.46700001      -4.68658254E-06
   4.47399998      -4.72990405E-06
   4.48099995      -4.77137883E-06
   4.48799992      -4.81091456E-06
   4.49499989      -4.84841803E-06
   4.50199986      -4.88380010E-06
   4.50899982      -4.91697347E-06
   4.51599979      -4.94785991E-06
   4.52299976      -4.97637848E-06
   4.53000021      -5.00245415E-06
   4.53700018      -5.02600778E-06
   4.54400015      -5.04696845E-06
   4.55100012      -5.06526885E-06
   4.55800009      -5.08084713E-06
   4.56500006      -5.09364418E-06
   4.57200003      -5.10359860E-06
   4.57900000      -5.11065991E-06
   4.58599997      -5.11477765E-06
   4.59299994      -5.11591179E-06
   4.59999990      -5.11402959E-06
   4.60699987      -5.10909149E-06
   4.61399984      -5.10106656E-06
   4.62099981      -5.08992753E-06
   4.62799978      -5.07565437E-06
   4.63500023      -5.05823527E-06
   4.64200020      -5.03765978E-06
   4.64900017      -5.01392378E-06
   4.65600014      -4.98702502E-06
   4.66300011      -4.95697032E-06
   4.67000008      -4.92377421E-06
   4.67700005      -4.88745400E-06
   4.68400002      -4.84803286E-06
   4.69099998      -4.80553626E-06
   4.69799995      -4.75999514E-06
   4.70499992      -4.71144631E-06
   4.71199989      -4.65993980E-06
   4.71899986      -4.60552656E-06
   4.72599983      -4.54826477E-06
   4.73299980      -4.48821129E-06
   4.73999977      -4.42543205E-06
   4.74700022      -4.36000028E-06
   4.75400019      -4.29199554E-06
   4.76100016      -4.22150106E-06
   4.76800013      -4.14860187E-06
   4.77500010      -4.07338666E-06
   4.78200006      -3.99595365E-06
   4.78900003      -3.91640560E-06
   4.79600000      -3.83485303E-06
   4.80299997      -3.75140826E-06
   4.80999994      -3.66618315E-06
   4.81699991      -3.57929753E-06
   4.82399988      -3.49087418E-06
   4.83099985      -3.40103975E-06
   4.83799982      -3.30992521E-06
   4.84499979      -3.21766356E-06
   4.85200024      -3.12438738E-06
   4.85900021      -3.03023376E-06
   4.86600018      -2.93534231E-06
   4.87300014      -2.83985742E-06
   4.88000011      -2.74392482E-06
   4.88700008      -2.64768937E-06
   4.89400005      -2.55129476E-06
   4.90100002      -2.45488263E-06
   4.90799999      -2.35860011E-06
   4.91499996      -2.26259567E-06
   4.92199993      -2.16701847E-06
   4.92899990      -2.07201447E-06
   4.93599987      -1.97772374E-06
   4.94299984      -1.88428783E-06
   4.94999981      -1.79184906E-06
   4.95699978      -1.70054773E-06
   4.96400023      -1.61052162E-06
   4.97100019      -1.52190250E-06
   4.97800016      -1.43481600E-06
   4.98500013      -1.34938421E-06
   4.99200010      -1.26572706E-06