  -1.00000000       0.00000000    
 -0.992999971       1.03391061E-32
 -0.986000001       7.15734398E-30
 -0.978999972       2.46905591E-28
 -0.972000003       3.11749529E-27
 -0.964999974       2.17554988E-26
 -0.958000004       9.92773869E-26
 -0.950999975       3.17862874E-25
 -0.944000006       7.05253137E-25
 -0.936999977       8.35529128E-25
 -0.930000007      -1.16356786E-24
 -0.922999978      -1.04268195E-23
 -0.916000009      -3.78946186E-23
 -0.908999979      -1.02818508E-22
 -0.902000010      -2.33543142E-22
 -0.894999981      -4.64089319E-22
 -0.888000011      -8.24129930E-22
 -0.880999982      -1.32161470E-21
 -0.874000013      -1.92056717E-21
 -0.866999984      -2.52000069E-21
 -0.860000014      -2.94082236E-21
 -0.852999985      -2.92396957E-21
 -0.846000016      -2.13615294E-21
 -0.838999987      -1.75367301E-22
 -0.832000017       3.42499706E-21
 -0.824999988       9.17300648E-21
 -0.818000019       1.75263335E-20
 -0.810999990       2.86662382E-20
 -0.804000020       4.20975543E-20
 -0.796999991       5.61204241E-20
 -0.790000021       6.73549068E-20
 -0.782999992       7.06341933E-20
 -0.776000023       5.96321677E-20
 -0.768999994       2.84728976E-20
 -0.762000024      -2.57543669E-20
 -0.754999995      -1.00118555E-19
 -0.748000026      -1.83593487E-19
 -0.740999997      -2.56585765E-19
 -0.734000027      -2.93104186E-19
 -0.726999998      -2.65628193E-19
 -0.720000029      -1.51650434E-19
 -0.713000000       6.00299511E-20
 -0.705999970       3.65375810E-19
 -0.699000001       7.44813638E-19
 -0.691999972       1.16612304E-18
 -0.685000002       1.58817592E-18
 -0.677999973       1.96216071E-18
 -0.671000004       2.22770637E-18
 -0.663999975       2.30412338E-18
 -0.657000005       2.08097177E-18
 -0.649999976       1.41546867E-18
 -0.643000007       1.44702233E-19
 -0.635999978      -1.88330311E-18
 -0.629000008      -4.76344860E-18
 -0.621999979      -8.48525016E-18
 -0.615000010      -1.29012200E-17
 -0.607999980      -1.77292714E-17
 -0.601000011      -2.25955005E-17
 -0.593999982      -2.71054762E-17
 -0.587000012      -3.09136056E-17
 -0.579999983      -3.37507259E-17
 -0.573000014      -3.53775453E-17
 -0.565999985      -3.54590888E-17
 -0.559000015      -3.33953824E-17
 -0.551999986      -2.81828177E-17
 -0.545000017      -1.83995160E-17
 -0.537999988      -2.39236784E-18
 -0.531000018       2.13105879E-17
 -0.523999989       5.34182652E-17
 -0.517000020       9.32603524E-17
 -0.509999990       1.38318852E-16
 -0.503000021       1.84080072E-16
 -0.495999992       2.24308142E-16
 -0.488999993       2.51728636E-16
 -0.481999993       2.58994379E-16
 -0.474999994       2.39732797E-16
 -0.467999995       1.89471874E-16
 -0.460999995       1.06313607E-16
 -0.453999996      -8.66575999E-18
 -0.446999997      -1.51215498E-16
 -0.439999998      -3.13811228E-16
 -0.432999998      -4.85625323E-16
 -0.425999999      -6.52669379E-16
 -0.419000000      -7.98341788E-16
 -0.412000000      -9.04656599E-16
 -0.405000001      -9.54311788E-16
 -0.398000002      -9.33479965E-16
 -0.391000003      -8.34843243E-16
 -0.384000003      -6.60089017E-16
 -0.377000004      -4.20989642E-16
 -0.370000005      -1.38410385E-16
 -0.363000005       1.60889435E-16
 -0.356000006       4.49105815E-16
 -0.349000007       7.02719709E-16
 -0.342000008       9.06833791E-16
 -0.335000008       1.05722386E-15
 -0.328000009       1.15945777E-15
 -0.321000010       1.22534963E-15
 -0.314000010       1.26788677E-15
 -0.307000011       1.29624395E-15
 -0.300000012       1.31238925E-15
 -0.293000013       1.31012238E-15
 -0.286000013       1.27641438E-15
 -0.279000014       1.19406552E-15
 -0.272000015       1.04434101E-15
 -0.264999986       8.08567381E-16
 -0.257999986       4.68558880E-16
 -0.250999987       6.78889421E-18
 -0.244000003      -5.92112876E-16
 -0.237000003      -1.33710758E-15
 -0.230000004      -2.22338102E-15
 -0.223000005      -3.22320007E-15
 -0.216000006      -4.27796658E-15
 -0.209000006      -5.29525654E-15
 -0.202000007      -6.15404165E-15
 -0.194999993      -6.71925572E-15
 -0.187999994      -6.86389676E-15
 -0.180999994      -6.49397164E-15
 -0.173999995      -5.56992391E-15
 -0.166999996      -4.11850628E-15
 -0.159999996      -2.23150533E-15
 -0.152999997      -5.15738542E-17
 -0.145999998       2.25063854E-15
 -0.138999999       4.50127284E-15
 -0.131999999       6.54301442E-15
 -0.125000000       8.24518219E-15
 -0.118000001       9.50364191E-15
 -0.111000001       1.02342138E-14
 -0.104000002       1.03659452E-14
  -9.70000029E-02   9.84053063E-15
  -9.00000036E-02   8.62127837E-15
  -8.29999968E-02   6.71036060E-15
  -7.59999976E-02   4.16848419E-15
  -6.89999983E-02   1.12863350E-15
  -6.19999990E-02  -2.20366548E-15
  -5.49999997E-02  -5.56699996E-15
  -4.80000004E-02  -8.67512679E-15
  -4.10000011E-02  -1.12543955E-14
  -3.40000018E-02  -1.30767750E-14
  -2.70000007E-02  -1.39791336E-14
  -1.99999996E-02  -1.38647952E-14
  -1.30000003E-02  -1.26907702E-14
  -6.00000005E-03  -1.04506095E-14
   1.00000005E-03  -7.16555314E-15
   8.00000038E-03  -2.89407145E-15
   1.49999997E-02   2.23773653E-15
   2.19999999E-02   7.99251395E-15
   2.89999992E-02   1.39813257E-14
   3.59999985E-02   1.96470834E-14
   4.30000015E-02   2.42888409E-14
   5.00000007E-02   2.71337958E-14
   5.70000000E-02   2.74494901E-14
   6.40000030E-02   2.46749219E-14
   7.10000023E-02   1.85408702E-14
   7.80000016E-02   9.15026230E-15
   8.50000009E-02  -3.00127067E-15
   9.20000002E-02  -1.70685948E-14
   9.89999995E-02  -3.19511060E-14
  0.105999999      -4.64124656E-14
  0.112999998      -5.91975267E-14
  0.119999997      -6.91246173E-14
  0.127000004      -7.51454359E-14
  0.134000003      -7.63807623E-14
  0.141000003      -7.21514726E-14
  0.148000002      -6.20260408E-14
  0.155000001      -4.58965717E-14
  0.162000000      -2.40777247E-14
  0.169000000       2.59608907E-15
  0.175999999       3.27126631E-14
  0.182999998       6.43012255E-14
  0.189999998       9.49527254E-14
  0.196999997       1.22039409E-13
  0.203999996       1.43003366E-13
  0.210999995       1.55660329E-13
  0.217999995       1.58457950E-13
  0.224999994       1.50638779E-13
  0.231999993       1.32284212E-13
  0.238999993       1.04250084E-13
  0.246000007       6.80336457E-14
  0.252999991       2.56240528E-14
  0.259999990      -2.06180339E-14
  0.266999990      -6.80332594E-14
  0.273999989      -1.13704835E-13
  0.280999988      -1.54513758E-13
  0.287999988      -1.87264050E-13
  0.294999987      -2.08918888E-13
  0.301999986      -2.16949709E-13
  0.308999985      -2.09750796E-13
  0.316000015      -1.87028276E-13
  0.323000014      -1.50054678E-13
  0.330000013      -1.01694599E-13
  0.337000012      -4.61592265E-14
  0.344000012       1.14857532E-14
  0.351000011       6.59644052E-14
  0.358000010       1.12451572E-13
  0.365000010       1.47112764E-13
  0.372000009       1.67425725E-13
  0.379000008       1.72256374E-13
  0.386000007       1.61736144E-13
  0.393000007       1.37041013E-13
  0.400000006       1.00182368E-13
  0.407000005       5.38865149E-14
  0.414000005       1.57119890E-15
  0.421000004      -5.26440159E-14
  0.428000003      -1.04003876E-13
  0.435000002      -1.47368730E-13
  0.442000002      -1.77704300E-13
  0.449000001      -1.90770766E-13
  0.456000000      -1.83874251E-13
  0.463000000      -1.56480718E-13
  0.469999999      -1.10491836E-13
  0.476999998      -5.00555543E-14
  0.483999997       1.90900660E-14
  0.490999997       9.05984882E-14
  0.497999996       1.58573146E-13
  0.504999995       2.18420713E-13
  0.512000024       2.67275595E-13
  0.518999994       3.03907019E-13
  0.526000023       3.28188838E-13
  0.532999992       3.40356107E-13
  0.540000021       3.40341172E-13
  0.546999991       3.27446214E-13
  0.554000020       3.00480154E-13
  0.560999990       2.58310083E-13
  0.568000019       2.00613831E-13
  0.574999988       1.28533604E-13
  0.582000017       4.49565854E-14
  0.588999987      -4.57185593E-14
  0.596000016      -1.38277058E-13
  0.602999985      -2.27610330E-13
  0.610000014      -3.09531914E-13
  0.616999984      -3.81182119E-13
  0.624000013      -4.40870539E-13
  0.630999982      -4.87431384E-13
  0.638000011      -5.19382551E-13
  0.644999981      -5.34295969E-13
  0.652000010      -5.28748974E-13
  0.658999979      -4.99032239E-13
  0.666000009      -4.42502887E-13
  0.672999978      -3.59183115E-13
  0.680000007      -2.53037418E-13
  0.686999977      -1.32381370E-13
  0.694000006      -9.10118013E-15
  0.700999975       1.03274147E-13
  0.708000004       1.92218854E-13
  0.714999974       2.48874733E-13
  0.722000003       2.69981710E-13
  0.728999972       2.58520446E-13
  0.736000001       2.22902697E-13
  0.742999971       1.74996953E-13
  0.750000000       1.27634082E-13
  0.757000029       9.23651888E-14
  0.763999999       7.80978811E-14
  0.771000028       9.08627083E-14
  0.777999997       1.34499047E-13
  0.785000026       2.11677464E-13
  0.791999996       3.24542286E-13
  0.799000025       4.74428548E-13
  0.805999994       6.60532067E-13
  0.813000023       8.77931517E-13
  0.819999993       1.11577663E-12
  0.827000022       1.35658086E-12
  0.833999991       1.57731944E-12
  0.841000021       1.75248238E-12
  0.847999990       1.85854370E-12
  0.855000019       1.87874109E-12
  0.861999989       1.80681576E-12
  0.869000018       1.64857819E-12
  0.875999987       1.42077387E-12
  0.883000016       1.14754809E-12
  0.889999986       8.55558137E-13
  0.897000015       5.69187167E-13
  0.903999984       3.07225762E-13
  0.911000013       8.18243314E-14
  0.917999983      -1.00326906E-13
  0.925000012      -2.35448380E-13
  0.931999981      -3.20095323E-13
  0.939000010      -3.49851848E-13
  0.945999980      -3.20033686E-13
  0.953000009      -2.28259957E-13
  0.959999979      -7.78855875E-14
  0.967000008       1.19219223E-13
  0.973999977       3.42000625E-13
  0.981000006       5.62467661E-13
  0.987999976       7.50618155E-13
  0.995000005       8.80798039E-13
   1.00199997       9.37576948E-13
   1.00899994       9.19235716E-13
   1.01600003       8.37634703E-13
   1.02300000       7.14410356E-13
   1.02999997       5.74638861E-13
   1.03699994       4.40025756E-13
   1.04400003       3.23758652E-13
   1.05100000       2.28613162E-13
   1.05799997       1.48637816E-13
   1.06500006       7.34777229E-14
   1.07200003      -6.62182745E-15
   1.07900000      -9.74166630E-14
   1.08599997      -2.00480732E-13
   1.09300005      -3.16780727E-13
   1.10000002      -4.52924536E-13
   1.10699999      -6.28017115E-13
   1.11399996      -8.78619660E-13
   1.12100005      -1.25981842E-12
   1.12800002      -1.84171753E-12
   1.13499999      -2.70232382E-12
   1.14199996      -3.91906429E-12
   1.14900005      -5.56173120E-12
   1.15600002      -7.68927630E-12
   1.16299999      -1.03514575E-11
   1.16999996      -1.35947278E-11
   1.17700005      -1.74701417E-11
   1.18400002      -2.20405152E-11
   1.19099998      -2.73839441E-11
   1.19799995      -3.35924275E-11
   1.20500004      -4.07662896E-11
   1.21200001      -4.90062192E-11
   1.21899998      -5.84064255E-11
   1.22599995      -6.90518129E-11
   1.23300004      -8.10208983E-11
   1.24000001      -9.43943812E-11
   1.24699998      -1.09267088E-10
   1.25399995      -1.25760041E-10
   1.26100004      -1.44029191E-10
   1.26800001      -1.64268460E-10
   1.27499998      -1.86706692E-10
   1.28199995      -2.11600501E-10
   1.28900003      -2.39225806E-10
   1.29600000      -2.69872069E-10
   1.30299997      -3.03841591E-10
   1.30999994      -3.41454615E-10
   1.31700003      -3.83058474E-10
   1.32400000      -4.29037555E-10
   1.33099997      -4.79820572E-10
   1.33800006      -5.35882227E-10
   1.34500003      -5.97738581E-10
   1.35200000      -6.65937749E-10
   1.35899997      -7.41050166E-10
   1.36600006      -8.23662083E-10
   1.37300003      -9.14376297E-10
   1.38000000      -1.01382147E-09
   1.38699996      -1.12266918E-09
   1.39400005      -1.24165478E-09
   1.40100002      -1.37159561E-09
   1.40799999      -1.51340473E-09
   1.41499996      -1.66809611E-09
   1.42200005      -1.83678184E-09
   1.42900002      -2.02066208E-09
   1.43599999      -2.22101737E-09
   1.44299996      -2.43920106E-09
   1.45000005      -2.67663958E-09
   1.45700002      -2.93484215E-09
   1.46399999      -3.21540550E-09
   1.47099996      -3.52002472E-09
   1.47800004      -3.85049503E-09
   1.48500001      -4.20870538E-09
   1.49199998      -4.59662841E-09
   1.49899995      -5.01630071E-09
   1.50600004      -5.46980639E-09
   1.51300001      -5.95926952E-09
   1.51999998      -6.48684573E-09
   1.52699995      -7.05473013E-09
   1.53400004      -7.66516894E-09
   1.54100001      -8.32047053E-09
   1.54799998      -9.02301700E-09
   1.55499995      -9.77525261E-09
   1.56200004      -1.05796758E-08
   1.56900001      -1.14388099E-08
   1.57599998      -1.23551764E-08
   1.58299994      -1.33312703E-08
   1.59000003      -1.43695429E-08
   1.59700000      -1.54723789E-08
   1.60399997      -1.66421117E-08
   1.61099994      -1.78809980E-08
   1.61800003      -1.91912335E-08
   1.62500000      -2.05749267E-08
   1.63199997      -2.20340954E-08
   1.63900006      -2.35706210E-08
   1.64600003      -2.51862335E-08
   1.65300000      -2.68824731E-08
   1.65999997      -2.86606809E-08
   1.66700006      -3.05219778E-08
   1.67400002      -3.24672449E-08
   1.68099999      -3.44971376E-08
   1.68799996      -3.66120823E-08
   1.69500005      -3.88122565E-08
   1.70200002      -4.10975574E-08
   1.70899999      -4.34675975E-08
   1.71599996      -4.59216416E-08
   1.72300005      -4.84586167E-08
   1.73000002      -5.10770484E-08
   1.73699999      -5.37750999E-08
   1.74399996      -5.65505154E-08
   1.75100005      -5.94006693E-08
   1.75800002      -6.23225276E-08
   1.76499999      -6.53126833E-08
   1.77199996      -6.83673562E-08
   1.77900004      -7.14824111E-08
   1.78600001      -7.46532791E-08
   1.79299998      -7.78749651E-08
   1.79999995      -8.11420904E-08
   1.80700004      -8.44488497E-08
   1.81400001      -8.77890329E-08
   1.82099998      -9.11560036E-08
   1.82799995      -9.45427701E-08
   1.83500004      -9.79419710E-08
   1.84200001      -1.01345869E-07
   1.84899998      -1.04746427E-07
   1.85599995      -1.08135204E-07
   1.86300004      -1.11503475E-07
   1.87000000      -1.14842152E-07
   1.87699997      -1.18141813E-07
   1.88399994      -1.21392716E-07
   1.89100003      -1.24584872E-07
   1.89800000      -1.27708063E-07
   1.90499997      -1.30751872E-07
   1.91199994      -1.33705626E-07
   1.91900003      -1.36558512E-07
   1.92600000      -1.39299516E-07
   1.93299997      -1.41917525E-07
   1.94000006      -1.44401284E-07
   1.94700003      -1.46739509E-07
   1.95400000      -1.48920876E-07
   1.96099997      -1.50934028E-07
   1.96800005      -1.52767583E-07
   1.97500002      -1.54410259E-07
   1.98199999      -1.55850913E-07
   1.98899996      -1.57078489E-07
   1.99600005      -1.58082088E-07
   2.00300002      -1.58851023E-07
   2.00999999      -1.59374792E-07
   2.01699996      -1.59643264E-07
   2.02399993      -1.59646518E-07
   2.03099990      -1.59375062E-07
   2.03800011      -1.58819745E-07
   2.04500008      -1.57971940E-07
   2.05200005      -1.56823404E-07
   2.05900002      -1.55366450E-07
   2.06599998      -1.53593930E-07
   2.07299995      -1.51499236E-07
   2.07999992      -1.49076413E-07
   2.08699989      -1.46320161E-07
   2.09400010      -1.43225819E-07
   2.10100007      -1.39789464E-07
   2.10800004      -1.36007955E-07
   2.11500001      -1.31878849E-07
   2.12199998      -1.27400568E-07
   2.12899995      -1.22572260E-07
   2.13599992      -1.17393974E-07
   2.14299989      -1.11866633E-07
   2.15000010      -1.05992058E-07
   2.15700006      -9.97729543E-08
   2.16400003      -9.32129467E-08
   2.17100000      -8.63166605E-08
   2.17799997      -7.90896095E-08
   2.18499994      -7.15383450E-08
   2.19199991      -6.36702850E-08
   2.19899988      -5.54938637E-08
   2.20600009      -4.70183537E-08
   2.21300006      -3.82539653E-08
   2.22000003      -2.92118063E-08
   2.22700000      -1.99038634E-08
   2.23399997      -1.03430020E-08
   2.24099994      -5.42879242E-10
   2.24799991       9.48210488E-09
   2.25500011       1.97168628E-08
   2.26200008       3.01456069E-08
   2.26900005       4.07519671E-08
   2.27600002       5.15190273E-08
   2.28299999       6.24294927E-08
   2.28999996       7.34657206E-08
   2.29699993       8.46097805E-08
   2.30399990       9.58434114E-08
   2.31100011       1.07148139E-07
   2.31800008       1.18505284E-07
   2.32500005       1.29896151E-07
   2.33200002       1.41302095E-07
   2.33899999       1.52704573E-07
   2.34599996       1.64085151E-07
   2.35299993       1.75425697E-07
   2.35999990       1.86708334E-07
   2.36700010       1.97915625E-07
   2.37400007       2.09030688E-07
   2.38100004       2.20037137E-07
   2.38800001       2.30919085E-07
   2.39499998       2.41661297E-07
   2.40199995       2.52249293E-07
   2.40899992       2.62669431E-07
   2.41599989       2.72908949E-07
   2.42300010       2.82956108E-07
   2.43000007       2.92800024E-07
   2.43700004       3.02430749E-07
   2.44400001       3.11839358E-07
   2.45099998       3.21017978E-07
   2.45799994       3.29959732E-07
   2.46499991       3.38658708E-07
   2.47199988       3.47110074E-07
   2.47900009       3.55309879E-07
   2.48600006       3.63255253E-07
   2.49300003       3.70944463E-07
   2.50000000       3.78376882E-07
   2.50699997       3.85552767E-07
   2.51399994       3.92473282E-07
   2.52099991       3.99140390E-07
   2.52800012       4.05556904E-07
   2.53500009       4.11726433E-07
   2.54200006       4.17653240E-07
   2.54900002       4.23342271E-07
   2.55599999       4.28798927E-07
   2.56299996       4.34029090E-07
   2.56999993       4.39039212E-07
   2.57699990       4.43836228E-07
   2.58400011       4.48427500E-07
   2.59100008       4.52820501E-07
   2.59800005       4.57022963E-07
   2.60500002       4.61042561E-07
   2.61199999       4.64887080E-07
   2.61899996       4.68564366E-07
   2.62599993       4.72082377E-07
   2.63299990       4.75448843E-07
   2.64000010       4.78671495E-07
   2.64700007       4.81757866E-07
   2.65400004       4.84715258E-07
   2.66100001       4.87551006E-07
   2.66799998       4.90272214E-07
   2.67499995       4.92885420E-07
   2.68199992       4.95396876E-07
   2.68899989       4.97812323E-07
   2.69600010       5.00137332E-07
   2.70300007       5.02376906E-07
   2.71000004       5.04536104E-07
   2.71700001       5.06619529E-07
   2.72399998       5.08631217E-07
   2.73099995       5.10575205E-07
   2.73799992       5.12455131E-07
   2.74499989       5.14274518E-07
   2.75200009       5.16036607E-07
   2.75900006       5.17744695E-07
   2.76600003       5.19401283E-07
   2.77300000       5.21009497E-07
   2.77999997       5.22571952E-07
   2.78699994       5.24091604E-07
   2.79399991       5.25571522E-07
   2.80100012       5.27014663E-07
   2.80800009       5.28423925E-07
   2.81500006       5.29802207E-07
   2.82200003       5.31152864E-07
   2.82900000       5.32479419E-07
   2.83599997       5.33785567E-07
   2.84299994       5.35075230E-07
   2.84999990       5.36352218E-07
   2.85700011       5.37620906E-07
   2.86400008       5.38885558E-07
   2.87100005       5.40150779E-07
   2.87800002       5.41421286E-07
   2.88499999       5.42701798E-07
   2.89199996       5.43996975E-07
   2.89899993       5.45311707E-07
   2.90599990       5.46651279E-07
   2.91300011       5.48020864E-07
   2.92000008       5.49425977E-07
   2.92700005       5.50871732E-07
   2.93400002       5.52363304E-07
   2.94099998       5.53905352E-07
   2.94799995       5.55502481E-07
   2.95499992       5.57158501E-07
   2.96199989       5.58876877E-07
   2.96900010       5.60660169E-07
   2.97600007       5.62510309E-07
   2.98300004       5.64428433E-07
   2.99000001       5.66414769E-07
   2.99699998       5.68468522E-07
   3.00399995       5.70587815E-07
   3.01099992       5.72769181E-07
   3.01799989       5.75008016E-07
   3.02500010       5.77298351E-07
   3.03200006       5.79632342E-07
   3.03900003       5.82001064E-07
   3.04600000       5.84393774E-07
   3.05299997       5.86798080E-07
   3.05999994       5.89199942E-07
   3.06699991       5.91583444E-07
   3.07399988       5.93930793E-07
   3.08100009       5.96222037E-07
   3.08800006       5.98435179E-07
   3.09500003       6.00545491E-07
   3.10200000       6.02526313E-07
   3.10899997       6.04348656E-07
   3.11599994       6.05981370E-07
   3.12299991       6.07391428E-07
   3.13000011       6.08543473E-07
   3.13700008       6.09400331E-07
   3.14400005       6.09922722E-07
   3.15100002       6.10069264E-07
   3.15799999       6.09796928E-07
   3.16499996       6.09060294E-07
   3.17199993       6.07812126E-07
   3.17899990       6.06003482E-07
   3.18600011       6.03583487E-07
   3.19300008       6.00499959E-07
   3.20000005       5.96699635E-07
   3.20700002       5.92127662E-07
   3.21399999       5.86728049E-07
   3.22099996       5.80443327E-07
   3.22799993       5.73215232E-07
   3.23499990       5.64984418E-07
   3.24200010       5.55690633E-07
   3.24900007       5.45273167E-07
   3.25600004       5.33671027E-07
   3.26300001       5.20823107E-07
   3.26999998       5.06668641E-07
   3.27699995       4.91147262E-07
   3.28399992       4.74199169E-07
   3.29099989       4.55765218E-07
   3.29800010       4.35786916E-07
   3.30500007       4.14206539E-07
   3.31200004       3.90967500E-07
   3.31900001       3.66014262E-07
   3.32599998       3.39293052E-07
   3.33299994       3.10751858E-07
   3.33999991       2.80340771E-07
   3.34699988       2.48012270E-07
   3.35400009       2.13721236E-07
   3.36100006       1.77425264E-07
   3.36800003       1.39084563E-07
   3.37500000       9.86622410E-08
   3.38199997       5.61244917E-08
   3.38899994       1.14407328E-08
   3.39599991      -3.54160541E-08
   3.40300012      -8.44690291E-08
   3.41000009      -1.35737253E-07
   3.41700006      -1.89235493E-07
   3.42400002      -2.44974018E-07
   3.43099999      -3.02958654E-07
   3.43799996      -3.63190566E-07
   3.44499993      -4.25666286E-07
   3.45199990      -4.90377488E-07
   3.45900011      -5.57310898E-07
   3.46600008      -6.26447957E-07
   3.47300005      -6.97764847E-07
   3.48000002      -7.71232010E-07
   3.48699999      -8.46814487E-07
   3.49399996      -9.24471465E-07
   3.50099993      -1.00415616E-06
   3.50799990      -1.08581628E-06
   3.51500010      -1.16939350E-06
   3.52200007      -1.25482393E-06
   3.52900004      -1.34203822E-06
   3.53600001      -1.43096099E-06
   3.54299998      -1.52151131E-06
   3.54999995      -1.61360197E-06
   3.55699992      -1.70713997E-06
   3.56399989      -1.80202710E-06
   3.57100010      -1.89815967E-06
   3.57800007      -1.99542728E-06
   3.58500004      -2.09371569E-06
   3.59200001      -2.19290428E-06
   3.59899998      -2.29286843E-06
   3.60599995      -2.39347878E-06
   3.61299992      -2.49460095E-06
   3.61999989      -2.59609715E-06
   3.62700009      -2.69782436E-06
   3.63400006      -2.79963638E-06
   3.64100003      -2.90138382E-06
   3.64800000      -3.00291413E-06
   3.65499997      -3.10407199E-06
   3.66199994      -3.20469871E-06
   3.66899991      -3.30463513E-06
   3.67600012      -3.40371980E-06
   3.68300009      -3.50179039E-06
   3.69000006      -3.59868386E-06
   3.69700003      -3.69423697E-06
   3.70400000      -3.78828668E-06
   3.71099997      -3.88067019E-06
   3.71799994      -3.97122676E-06
   3.72499990      -4.05979472E-06
   3.73200011      -4.14621718E-06
   3.73900008      -4.23033771E-06
   3.74600005      -4.31200260E-06
   3.75300002      -4.39106361E-06
   3.75999999      -4.46737522E-06
   3.76699996      -4.54079645E-06
   3.77399993      -4.61119043E-06
   3.78099990      -4.67842710E-06
   3.78800011      -4.74238050E-06
   3.79500008      -4.80293193E-06
   3.80200005      -4.85996861E-06
   3.80900002      -4.91338506E-06
   3.81599998      -4.96308348E-06
   3.82299995      -5.00897249E-06
   3.82999992      -5.05097069E-06
   3.83699989      -5.08900484E-06
   3.84400010      -5.12300949E-06
   3.85100007      -5.15292822E-06
   3.85800004      -5.17871422E-06
   3.86500001      -5.20032927E-06
   3.87199998      -5.21774427E-06
   3.87899995      -5.23094059E-06
   3.88599992      -5.23990866E-06
   3.89299989      -5.24464804E-06
   3.90000010      -5.24516918E-06
   3.90700006      -5.24149027E-06
   3.91400003      -5.23364133E-06
   3.92100000      -5.22166101E-06
   3.92799997      -5.20559888E-06
   3.93499994      -5.18551224E-06
   3.94199991      -5.16146793E-06
   3.94899988      -5.13354144E-06
   3.95600009      -5.10181872E-06
   3.96300006      -5.06639390E-06
   3.97000003      -5.02736975E-06
   3.97700000      -4.98485679E-06
   3.98399997      -4.93897232E-06
   3.99099994      -4.88984278E-06
   3.99799991      -4.83760186E-06
   4.00500011      -4.78238826E-06
   4.01200008      -4.72434658E-06
   4.01900005      -4.66362781E-06
   4.02600002      -4.60038973E-06
   4.03299999      -4.53479288E-06
   4.03999996      -4.46700369E-06
   4.04699993      -4.39719133E-06
   4.05399990      -4.32552906E-06
   4.06099987      -4.25219378E-06
   4.06799984      -4.17736237E-06
   4.07499981      -4.10121356E-06
   4.08199978      -4.02392925E-06
   4.08900023      -3.94569179E-06
   4.09600019      -3.86668398E-06
   4.10300016      -3.78708728E-06
   4.11000013      -3.70708426E-06
   4.11700010      -3.62685614E-06
   4.12400007      -3.54658255E-06
   4.13100004      -3.46644129E-06
   4.13800001      -3.38660629E-06
   4.14499998      -3.30724856E-06
   4.15199995      -3.22853566E-06
   4.15899992      -3.15063107E-06
   4.16599989      -3.07369555E-06
   4.17299986      -2.99788371E-06
   4.17999983      -2.92334539E-06
   4.18699980      -2.85022452E-06
   4.19399977      -2.77865843E-06
   4.20100021      -2.70877808E-06
   4.20800018      -2.64070832E-06
   4.21500015      -2.57456645E-06
   4.22200012      -2.51046413E-06
   4.22900009      -2.44850389E-06
   4.23600006      -2.38878374E-06
   4.24300003      -2.33139303E-06
   4.25000000      -2.27641385E-06
   4.25699997      -2.22392032E-06
   4.26399994      -2.17397724E-06
   4.27099991      -2.12664168E-06
   4.27799988      -2.08196093E-06
   4.28499985      -2.03997433E-06
   4.29199982      -2.00071281E-06
   4.29899979      -1.96419887E-06
   4.30600023      -1.93044752E-06
   4.31300020      -1.89946513E-06
   4.32000017      -1.87125022E-06
   4.32700014      -1.84579278E-06
   4.33400011      -1.82307485E-06
   4.34100008      -1.80307018E-06
   4.34800005      -1.78574464E-06
   4.35500002      -1.77105608E-06
   4.36199999      -1.75895570E-06
   4.36899996      -1.74938737E-06
   4.37599993      -1.74228933E-06
   4.38299990      -1.73759315E-06
   4.38999987      -1.73522506E-06
   4.39699984      -1.73510489E-06
   4.40399981      -1.73714648E-06
   4.41099977      -1.74125773E-06
   4.41800022      -1.74734225E-06
   4.42500019      -1.75529840E-06
   4.43200016      -1.76502124E-06
   4.43900013      -1.77640220E-06
   4.44600010      -1.78932919E-06
   4.45300007      -1.80368795E-06
   4.46000004      -1.81936241E-06
   4.46700001      -1.83623501E-06
   4.47399998      -1.85418628E-06
   4.48099995      -1.87309581E-06
   4.48799992      -1.89284196E-06
   4.49499989      -1.91330287E-06
   4.50199986      -1.93435653E-06
   4.50899982      -1.95588336E-06
   4.51599979      -1.97776421E-06
   4.52299976      -1.99988199E-06
   4.53000021      -2.02212118E-06
   4.53700018      -2.04436878E-06
   4.54400015      -2.06651475E-06
   4.55100012      -2.08845245E-06
   4.55800009      -2.11007887E-06
   4.56500006      -2.13129510E-06
   4.57200003      -2.15200475E-06
   4.57900000      -2.17211732E-06
   4.58599997      -2.19154776E-06
   4.59299994      -2.21021673E-06
   4.59999990      -2.22805102E-06
   4.60699987      -2.24498285E-06
   4.61399984      -2.26094949E-06
   4.62099981      -2.27589453E-06
   4.62799978      -2.28976864E-06
   4.63500023      -2.30252840E-06
   4.64200020      -2.31413628E-06
   4.64900017      -2.32456136E-06
   4.65600014      -2.33377841E-06
   4.66300011      -2.34176878E-06
   4.67000008      -2.34852132E-06
   4.67700005      -2.35403263E-06
   4.68400002      -2.35830521E-06
   4.69099998      -2.36134770E-06
   4.69799995      -2.36317510E-06
   4.70499992      -2.36380833E-06
   4.71199989      -2.36327628E-06
   4.71899986      -2.36161372E-06
   4.72599983      -2.35886137E-06
   4.73299980      -2.35506468E-06
   4.73999977      -2.35027460E-06
   4.74700022      -2.34454751E-06
   4.75400019      -2.33794458E-06
   4.76100016      -2.33053265E-06
   4.76800013      -2.32238199E-06
   4.77500010      -2.31356648E-06
   4.78200006      -2.30416344E-06
   4.78900003      -2.29425314E-06
   4.79600000      -2.28392059E-06
   4.80299997      -2.27325336E-06
   4.80999994      -2.26234101E-06
   4.81699991      -2.25127474E-06
   4.82399988      -2.24014684E-06
   4.83099985      -2.22905169E-06
   4.83799982      -2.21808500E-06
   4.84499979      -2.20734501E-06
   4.85200024      -2.19692811E-06
   4.85900021      -2.18693117E-06
   4.86600018      -2.17744991E-06
   4.87300014      -2.16858007E-06
   4.88000011      -2.16041622E-06
   4.88700008      -2.15305295E-06
   4.89400005      -2.14658166E-06
   4.90100002      -2.14109082E-06
   4.90799999      -2.13666726E-06
   4.91499996      -2.13339536E-06
   4.92199993      -2.13135718E-06
   4.92899990      -2.13063231E-06
   4.93599987      -2.13129738E-06
   4.94299984      -2.13342332E-06
   4.94999981      -2.13707813E-06
   4.95699978      -2.14232750E-06
   4.96400023      -2.14923375E-06
   4.97100019      -2.15785440E-06
   4.97800016      -2.16824401E-06
   4.98500013      -2.18045079E-06
   4.99200010      -2.19451886E-06