  -1.00000000      -5.04340265E-23
 -0.992999971      -4.66877459E-21
 -0.986000001      -5.35680420E-20
 -0.978999972      -2.96673419E-19
 -0.972000003      -1.11279408E-18
 -0.964999974      -3.30010964E-18
 -0.958000004      -8.44542885E-18
 -0.950999975      -1.96314345E-17
 -0.944000006      -4.25098804E-17
 -0.936999977      -8.63533480E-17
 -0.930000007      -1.64159339E-16
 -0.922999978      -2.90682676E-16
 -0.916000009      -4.77909118E-16
 -0.908999979      -7.29014470E-16
 -0.902000010      -1.03360699E-15
 -0.894999981      -1.36785625E-15
 -0.888000011      -1.70196469E-15
 -0.880999982      -2.01424054E-15
 -0.874000013      -2.30693552E-15
 -0.866999984      -2.61600197E-15
 -0.860000014      -3.00701842E-15
 -0.852999985      -3.55373393E-15
 -0.846000016      -4.30318868E-15
 -0.838999987      -5.23951415E-15
 -0.832000017      -6.26326231E-15
 -0.824999988      -7.20090915E-15
 -0.818000019      -7.84870978E-15
 -0.810999990      -8.03924984E-15
 -0.804000020      -7.70450412E-15
 -0.796999991      -6.90396735E-15
 -0.790000021      -5.79612067E-15
 -0.782999992      -4.55479601E-15
 -0.776000023      -3.26074100E-15
 -0.768999994      -1.81936769E-15
 -0.762000024       4.36756757E-17
 -0.754999995       2.68196487E-15
 -0.748000026       6.33892564E-15
 -0.740999997       1.09316285E-14
 -0.734000027       1.58973312E-14
 -0.726999998       2.01851170E-14
 -0.720000029       2.24292630E-14
 -0.713000000       2.12704576E-14
 -0.705999970       1.57230423E-14
 -0.699000001       5.45332432E-15
 -0.691999972      -9.14372151E-15
 -0.685000002      -2.71061656E-14
 -0.677999973      -4.72398948E-14
 -0.671000004      -6.84776603E-14
 -0.663999975      -9.00904107E-14
 -0.657000005      -1.11635798E-13
 -0.649999976      -1.32648992E-13
 -0.643000007      -1.52215968E-13
 -0.635999978      -1.68657745E-13
 -0.629000008      -1.79544530E-13
 -0.621999979      -1.82141655E-13
 -0.615000010      -1.74200769E-13
 -0.607999980      -1.54825913E-13
 -0.601000011      -1.25051702E-13
 -0.593999982      -8.78275453E-14
 -0.587000012      -4.73074338E-14
 -0.579999983      -7.63111718E-15
 -0.573000014       2.83671165E-14
 -0.565999985       5.99861347E-14
 -0.559000015       8.86052570E-14
 -0.551999986       1.16648553E-13
 -0.545000017       1.45865294E-13
 -0.537999988       1.75553718E-13
 -0.531000018       2.01465784E-13
 -0.523999989       2.15953178E-13
 -0.517000020       2.09492674E-13
 -0.509999990       1.73211963E-13
 -0.503000021       1.01625759E-13
 -0.495999992      -5.34170613E-15
 -0.488999993      -1.41753308E-13
 -0.481999993      -2.96677017E-13
 -0.474999994      -4.56433068E-13
 -0.467999995      -6.07222660E-13
 -0.460999995      -7.37183101E-13
 -0.453999996      -8.37201727E-13
 -0.446999997      -9.00401932E-13
 -0.439999998      -9.20849660E-13
 -0.432999998      -8.92440039E-13
 -0.425999999      -8.08906002E-13
 -0.419000000      -6.65430601E-13
 -0.412000000      -4.61584221E-13
 -0.405000001      -2.04557440E-13
 -0.398000002       8.87435538E-14
 -0.391000003       3.92044334E-13
 -0.384000003       6.73098892E-13
 -0.377000004       8.99695899E-13
 -0.370000005       1.04682550E-12
 -0.363000005       1.10296592E-12
 -0.356000006       1.07354251E-12
 -0.349000007       9.80375828E-13
 -0.342000008       8.57164925E-13
 -0.335000008       7.42278038E-13
 -0.328000009       6.70912219E-13
 -0.321000010       6.68804530E-13
 -0.314000010       7.48998411E-13
 -0.307000011       9.12079331E-13
 -0.300000012       1.14909362E-12
 -0.293000013       1.44561186E-12
 -0.286000013       1.78527213E-12
 -0.279000014       2.15171587E-12
 -0.272000015       2.52879662E-12
 -0.264999986       2.89990926E-12
 -0.257999986       3.24779938E-12
 -0.250999987       3.55600662E-12
 -0.244000003       3.81232762E-12
 -0.237000003       4.01355164E-12
 -0.230000004       4.16979732E-12
 -0.223000005       4.30644582E-12
 -0.216000006       4.46216718E-12
 -0.209000006       4.68263579E-12
 -0.202000007       5.01100203E-12
 -0.194999993       5.47739111E-12
 -0.187999994       6.09016526E-12
 -0.180999994       6.83140350E-12
 -0.173999995       7.65784831E-12
 -0.166999996       8.50718541E-12
 -0.159999996       9.30814627E-12
 -0.152999997       9.99219544E-12
 -0.145999998       1.05045408E-11
 -0.138999999       1.08128125E-11
 -0.131999999       1.09126102E-11
 -0.125000000       1.08298604E-11
 -0.118000001       1.06202009E-11
 -0.111000001       1.03657040E-11
 -0.104000002       1.01688328E-11
  -9.70000029E-02   1.01436316E-11
  -9.00000036E-02   1.04043493E-11
  -8.29999968E-02   1.10525278E-11
  -7.59999976E-02   1.21644266E-11
  -6.89999983E-02   1.37813051E-11
  -6.19999990E-02   1.59049440E-11
  -5.49999997E-02   1.84998059E-11
  -4.80000004E-02   2.15017188E-11
  -4.10000011E-02   2.48311233E-11
  -3.40000018E-02   2.84077518E-11
  -2.70000007E-02   3.21634941E-11
  -1.99999996E-02   3.60511933E-11
  -1.30000003E-02   4.00488739E-11
  -6.00000005E-03   4.41609353E-11
   1.00000005E-03   4.84188523E-11
   8.00000038E-03   5.28836350E-11
   1.49999997E-02   5.76508563E-11
   2.19999999E-02   6.28565880E-11
   2.89999992E-02   6.86809776E-11
   3.59999985E-02   7.53457019E-11
   4.30000015E-02   8.31030522E-11
   5.00000007E-02   9.22175808E-11
   5.70000000E-02   1.02944292E-10
   6.40000030E-02   1.15510962E-10
   7.10000023E-02   1.30111408E-10
   7.80000016E-02   1.46914828E-10
   8.50000009E-02   1.66091418E-10
   9.20000002E-02   1.87848848E-10
   9.89999995E-02   2.12469917E-10
  0.105999999       2.40340775E-10
  0.112999998       2.71961537E-10
  0.119999997       3.07937342E-10
  0.127000004       3.48953949E-10
  0.134000003       3.95749350E-10
  0.141000003       4.49094456E-10
  0.148000002       5.09791875E-10
  0.155000001       5.78699755E-10
  0.162000000       6.56774024E-10
  0.169000000       7.45121076E-10
  0.175999999       8.45043924E-10
  0.182999998       9.58071067E-10
  0.189999998       1.08596021E-09
  0.196999997       1.23068067E-09
  0.203999996       1.39438672E-09
  0.210999995       1.57939639E-09
  0.217999995       1.78819348E-09
  0.224999994       2.02345918E-09
  0.231999993       2.28813235E-09
  0.238999993       2.58548649E-09
  0.246000007       2.91920643E-09
  0.252999991       3.29344219E-09
  0.259999990       3.71283404E-09
  0.266999990       4.18250190E-09
  0.273999989       4.70801886E-09
  0.280999988       5.29538191E-09
  0.287999988       5.95101479E-09
  0.294999987       6.68181332E-09
  0.301999986       7.49524354E-09
  0.308999985       8.39947401E-09
  0.316000015       9.40351530E-09
  0.323000014       1.05173452E-08
  0.330000013       1.17519852E-08
  0.337000012       1.31195215E-08
  0.344000012       1.46330743E-08
  0.351000011       1.63067462E-08
  0.358000010       1.81555784E-08
  0.365000010       2.01955483E-08
  0.372000009       2.24436487E-08
  0.379000008       2.49180143E-08
  0.386000007       2.76381051E-08
  0.393000007       3.06248573E-08
  0.400000006       3.39008253E-08
  0.407000005       3.74902669E-08
  0.414000005       4.14190993E-08
  0.421000004       4.57148772E-08
  0.428000003       5.04067437E-08
  0.435000002       5.55253870E-08
  0.442000002       6.11031439E-08
  0.449000001       6.71741205E-08
  0.456000000       7.37744017E-08
  0.463000000       8.09422147E-08
  0.469999999       8.87180960E-08
  0.476999998       9.71448912E-08
  0.483999997       1.06267692E-07
  0.490999997       1.16133648E-07
  0.497999996       1.26791818E-07
  0.504999995       1.38293004E-07
  0.512000024       1.50689687E-07
  0.518999994       1.64036095E-07
  0.526000023       1.78388305E-07
  0.532999992       1.93804581E-07
  0.540000021       2.10345320E-07
  0.546999991       2.28073134E-07
  0.554000020       2.47052697E-07
  0.560999990       2.67350487E-07
  0.568000019       2.89034375E-07
  0.574999988       3.12173569E-07
  0.582000017       3.36837928E-07
  0.588999987       3.63098309E-07
  0.596000016       3.91026077E-07
  0.602999985       4.20693453E-07
  0.610000014       4.52173396E-07
  0.616999984       4.85539431E-07
  0.624000013       5.20865512E-07
  0.630999982       5.58225736E-07
  0.638000011       5.97693202E-07
  0.644999981       6.39340385E-07
  0.652000010       6.83238284E-07
  0.658999979       7.29456076E-07
  0.666000009       7.78060951E-07
  0.672999978       8.29117994E-07
  0.680000007       8.82690188E-07
  0.686999977       9.38837957E-07
  0.694000006       9.97619168E-07
  0.700999975       1.05908782E-06
  0.708000004       1.12329474E-06
  0.714999974       1.19028641E-06
  0.722000003       1.26010457E-06
  0.728999972       1.33278513E-06
  0.736000001       1.40835857E-06
  0.742999971       1.48684944E-06
  0.750000000       1.56827559E-06
  0.757000029       1.65264873E-06
  0.763999999       1.73997432E-06
  0.771000028       1.83025134E-06
  0.777999997       1.92347193E-06
  0.785000026       2.01962052E-06
  0.791999996       2.11867336E-06
  0.799000025       2.22059953E-06
  0.805999994       2.32535808E-06
  0.813000023       2.43290083E-06
  0.819999993       2.54316888E-06
  0.827000022       2.65609560E-06
  0.833999991       2.77160530E-06
  0.841000021       2.88961382E-06
  0.847999990       3.01002933E-06
  0.855000019       3.13275109E-06
  0.861999989       3.25766996E-06
  0.869000018       3.38466975E-06
  0.875999987       3.51362382E-06
  0.883000016       3.64439711E-06
  0.889999986       3.77684614E-06
  0.897000015       3.91081949E-06
  0.903999984       4.04615730E-06
  0.911000013       4.18269565E-06
  0.917999983       4.32026354E-06
  0.925000012       4.45868409E-06
  0.931999981       4.59777766E-06
  0.939000010       4.73735918E-06
  0.945999980       4.87723764E-06
  0.953000009       5.01721934E-06
  0.959999979       5.15710508E-06
  0.967000008       5.29669205E-06
  0.973999977       5.43577607E-06
  0.981000006       5.57415160E-06
  0.987999976       5.71161354E-06
  0.995000005       5.84795725E-06
   1.00199997       5.98298175E-06
   1.00899994       6.11648602E-06
   1.01600003       6.24827317E-06
   1.02300000       6.37814719E-06
   1.02999997       6.50591710E-06
   1.03699994       6.63139235E-06
   1.04400003       6.75438832E-06
   1.05100000       6.87472448E-06
   1.05799997       6.99222937E-06
   1.06500006       7.10674021E-06
   1.07200003       7.21810420E-06
   1.07900000       7.32617627E-06
   1.08599997       7.43082046E-06
   1.09300005       7.53191034E-06
   1.10000002       7.62932677E-06
   1.10699999       7.72295789E-06
   1.11399996       7.81270501E-06
   1.12100005       7.89847763E-06
   1.12800002       7.98019664E-06
   1.13499999       8.05779655E-06
   1.14199996       8.13122278E-06
   1.14900005       8.20043806E-06
   1.15600002       8.26541054E-06
   1.16299999       8.32612477E-06
   1.16999996       8.38257074E-06
   1.17700005       8.43475027E-06
   1.18400002       8.48267246E-06
   1.19099998       8.52635912E-06
   1.19799995       8.56584211E-06
   1.20500004       8.60116506E-06
   1.21200001       8.63238165E-06
   1.21899998       8.65955917E-06
   1.22599995       8.68276857E-06
   1.23300004       8.70209442E-06
   1.24000001       8.71762040E-06
   1.24699998       8.72944020E-06
   1.25399995       8.73765475E-06
   1.26100004       8.74236866E-06
   1.26800001       8.74369016E-06
   1.27499998       8.74173566E-06
   1.28199995       8.73662430E-06
   1.28900003       8.72848068E-06
   1.29600000       8.71742759E-06
   1.30299997       8.70359236E-06
   1.30999994       8.68710504E-06
   1.31700003       8.66809114E-06
   1.32400000       8.64667709E-06
   1.33099997       8.62298657E-06
   1.33800006       8.59714328E-06
   1.34500003       8.56926636E-06
   1.35200000       8.53947313E-06
   1.35899997       8.50787455E-06
   1.36600006       8.47458159E-06
   1.37300003       8.43969974E-06
   1.38000000       8.40333178E-06
   1.38699996       8.36557319E-06
   1.39400005       8.32651585E-06
   1.40100002       8.28624798E-06
   1.40799999       8.24484232E-06
   1.41499996       8.20237528E-06
   1.42200005       8.15890689E-06
   1.42900002       8.11449718E-06
   1.43599999       8.06919797E-06
   1.44299996       8.02305658E-06
   1.45000005       7.97611483E-06
   1.45700002       7.92840638E-06
   1.46399999       7.87996396E-06
   1.47099996       7.83081032E-06
   1.47800004       7.78096546E-06
   1.48500001       7.73044030E-06
   1.49199998       7.67924303E-06
   1.49899995       7.62737318E-06
   1.50600004       7.57483303E-06
   1.51300001       7.52161486E-06
   1.51999998       7.46771320E-06
   1.52699995       7.41311942E-06
   1.53400004       7.35782442E-06
   1.54100001       7.30182001E-06
   1.54799998       7.24509937E-06
   1.55499995       7.18765614E-06
   1.56200004       7.12948258E-06
   1.56900001       7.07057234E-06
   1.57599998       7.01091858E-06
   1.58299994       6.95051585E-06
   1.59000003       6.88936234E-06
   1.59700000       6.82745986E-06
   1.60399997       6.76481795E-06
   1.61099994       6.70145073E-06
   1.61800003       6.63737865E-06
   1.62500000       6.57262763E-06
   1.63199997       6.50723041E-06
   1.63900006       6.44122247E-06
   1.64600003       6.37464655E-06
   1.65300000       6.30754766E-06
   1.65999997       6.23997903E-06
   1.66700006       6.17200430E-06
   1.67400002       6.10369443E-06
   1.68099999       6.03513172E-06
   1.68799996       5.96640712E-06
   1.69500005       5.89762067E-06
   1.70200002       5.82887742E-06
   1.70899999       5.76028879E-06
   1.71599996       5.69196891E-06
   1.72300005       5.62403466E-06
   1.73000002       5.55660927E-06
   1.73699999       5.48982052E-06
   1.74399996       5.42380621E-06
   1.75100005       5.35870959E-06
   1.75800002       5.29468343E-06
   1.76499999       5.23188328E-06
   1.77199996       5.17046692E-06
   1.77900004       5.11059125E-06
   1.78600001       5.05241042E-06
   1.79299998       4.99607495E-06
   1.79999995       4.94173537E-06
   1.80700004       4.88954083E-06
   1.81400001       4.83964232E-06
   1.82099998       4.79219079E-06
   1.82799995       4.74733906E-06
   1.83500004       4.70523628E-06
   1.84200001       4.66602569E-06
   1.84899998       4.62983826E-06
   1.85599995       4.59679632E-06
   1.86300004       4.56700673E-06
   1.87000000       4.54056726E-06
   1.87699997       4.51756750E-06
   1.88399994       4.49808749E-06
   1.89100003       4.48220453E-06
   1.89800000       4.46998774E-06
   1.90499997       4.46149534E-06
   1.91199994       4.45677324E-06
   1.91900003       4.45585101E-06
   1.92600000       4.45874275E-06
   1.93299997       4.46544300E-06
   1.94000006       4.47593175E-06
   1.94700003       4.49017534E-06
   1.95400000       4.50812831E-06
   1.96099997       4.52973427E-06
   1.96800005       4.55492727E-06
   1.97500002       4.58363002E-06
   1.98199999       4.61574746E-06
   1.98899996       4.65117319E-06
   1.99600005       4.68978033E-06
   2.00300002       4.73143155E-06
   2.00999999       4.77597359E-06
   2.01699996       4.82324504E-06
   2.02399993       4.87307580E-06
   2.03099990       4.92528625E-06
   2.03800011       4.97969131E-06
   2.04500008       5.03609908E-06
   2.05200005       5.09430902E-06
   2.05900002       5.15411239E-06
   2.06599998       5.21529000E-06
   2.07299995       5.27761995E-06
   2.07999992       5.34087485E-06
   2.08699989       5.40482552E-06
   2.09400010       5.46924593E-06
   2.10100007       5.53391055E-06
   2.10800004       5.59859427E-06
   2.11500001       5.66307381E-06
   2.12199998       5.72712725E-06
   2.12899995       5.79053494E-06
   2.13599992       5.85307862E-06
   2.14299989       5.91454636E-06
   2.15000010       5.97473263E-06
   2.15700006       6.03344324E-06
   2.16400003       6.09049357E-06
   2.17100000       6.14570899E-06
   2.17799997       6.19892398E-06
   2.18499994       6.24998120E-06
   2.19199991       6.29873148E-06
   2.19899988       6.34503431E-06
   2.20600009       6.38876054E-06
   2.21300006       6.42979785E-06
   2.22000003       6.46804347E-06
   2.22700000       6.50341281E-06
   2.23399997       6.53583356E-06
   2.24099994       6.56524935E-06
   2.24799991       6.59161287E-06
   2.25500011       6.61488866E-06
   2.26200008       6.63505125E-06
   2.26900005       6.65208427E-06
   2.27600002       6.66598316E-06
   2.28299999       6.67675795E-06
   2.28999996       6.68443181E-06
   2.29699993       6.68904067E-06
   2.30399990       6.69063411E-06
   2.31100011       6.68926941E-06
   2.31800008       6.68501161E-06
   2.32500005       6.67793529E-06
   2.33200002       6.66811911E-06
   2.33899999       6.65565176E-06
   2.34599996       6.64062600E-06
   2.35299993       6.62314324E-06
   2.35999990       6.60331125E-06
   2.36700010       6.58124327E-06
   2.37400007       6.55705799E-06
   2.38100004       6.53087727E-06
   2.38800001       6.50282345E-06
   2.39499998       6.47302386E-06
   2.40199995       6.44160355E-06
   2.40899992       6.40869030E-06
   2.41599989       6.37441144E-06
   2.42300010       6.33889294E-06
   2.43000007       6.30226123E-06
   2.43700004       6.26464134E-06
   2.44400001       6.22615789E-06
   2.45099998       6.18693048E-06
   2.45799994       6.14707824E-06
   2.46499991       6.10671668E-06
   2.47199988       6.06595950E-06
   2.47900009       6.02491627E-06
   2.48600006       5.98369206E-06
   2.49300003       5.94238691E-06
   2.50000000       5.90109539E-06
   2.50699997       5.85990665E-06
   2.51399994       5.81890345E-06
   2.52099991       5.77816536E-06
   2.52800012       5.73776788E-06
   2.53500009       5.69778467E-06
   2.54200006       5.65828577E-06
   2.54900002       5.61933803E-06
   2.55599999       5.58100373E-06
   2.56299996       5.54333974E-06
   2.56999993       5.50639788E-06
   2.57699990       5.47022228E-06
   2.58400011       5.43485430E-06
   2.59100008       5.40032897E-06
   2.59800005       5.36668040E-06
   2.60500002       5.33393995E-06
   2.61199999       5.30213811E-06
   2.61899996       5.27130442E-06
   2.62599993       5.24146981E-06
   2.63299990       5.21266156E-06
   2.64000010       5.18490288E-06
   2.64700007       5.15821375E-06
   2.65400004       5.13261011E-06
   2.66100001       5.10810287E-06
   2.66799998       5.08470202E-06
   2.67499995       5.06241577E-06
   2.68199992       5.04125455E-06
   2.68899989       5.02122930E-06
   2.69600010       5.00235319E-06
   2.70300007       4.98463942E-06
   2.71000004       4.96810344E-06
   2.71700001       4.95275663E-06
   2.72399998       4.93860944E-06
   2.73099995       4.92566778E-06
   2.73799992       4.91393712E-06
   2.74499989       4.90341972E-06
   2.75200009       4.89411832E-06
   2.75900006       4.88603564E-06
   2.76600003       4.87917805E-06
   2.77300000       4.87355010E-06
   2.77999997       4.86915906E-06
   2.78699994       4.86601084E-06
   2.79399991       4.86410681E-06
   2.80100012       4.86344197E-06
   2.80800009       4.86400631E-06
   2.81500006       4.86578483E-06
   2.82200003       4.86876024E-06
   2.82900000       4.87291391E-06
   2.83599997       4.87822990E-06
   2.84299994       4.88469050E-06
   2.84999990       4.89228114E-06
   2.85700011       4.90098364E-06
   2.86400008       4.91077435E-06
   2.87100005       4.92162326E-06
   2.87800002       4.93348989E-06
   2.88499999       4.94632695E-06
   2.89199996       4.96007851E-06
   2.89899993       4.97468591E-06
   2.90599990       4.99009002E-06
   2.91300011       5.00623401E-06
   2.92000008       5.02306011E-06
   2.92700005       5.04050786E-06
   2.93400002       5.05850767E-06
   2.94099998       5.07698405E-06
   2.94799995       5.09585016E-06
   2.95499992       5.11500866E-06
   2.96199989       5.13435862E-06
   2.96900010       5.15379452E-06
   2.97600007       5.17321359E-06
   2.98300004       5.19251535E-06
   2.99000001       5.21160200E-06
   2.99699998       5.23037761E-06
   3.00399995       5.24874395E-06
   3.01099992       5.26659460E-06
   3.01799989       5.28381497E-06
   3.02500010       5.30028319E-06
   3.03200006       5.31587011E-06
   3.03900003       5.33045250E-06
   3.04600000       5.34390938E-06
   3.05299997       5.35612890E-06
   3.05999994       5.36700782E-06
   3.06699991       5.37645064E-06
   3.07399988       5.38436461E-06
   3.08100009       5.39065695E-06
   3.08800006       5.39523262E-06
   3.09500003       5.39799566E-06
   3.10200000       5.39884923E-06
   3.10899997       5.39770235E-06
   3.11599994       5.39447001E-06
   3.12299991       5.38908398E-06
   3.13000011       5.38148788E-06
   3.13700008       5.37164078E-06
   3.14400005       5.35950903E-06
   3.15100002       5.34506762E-06
   3.15799999       5.32829381E-06
   3.16499996       5.30916986E-06
   3.17199993       5.28768123E-06
   3.17899990       5.26381928E-06
   3.18600011       5.23758763E-06
   3.19300008       5.20900312E-06
   3.20000005       5.17809985E-06
   3.20700002       5.14492604E-06
   3.21399999       5.10954533E-06
   3.22099996       5.07203049E-06
   3.22799993       5.03246019E-06
   3.23499990       4.99091493E-06
   3.24200010       4.94747792E-06
   3.24900007       4.90223601E-06
   3.25600004       4.85528471E-06
   3.26300001       4.80672998E-06
   3.26999998       4.75669049E-06
   3.27699995       4.70529767E-06
   3.28399992       4.65269613E-06
   3.29099989       4.59903958E-06
   3.29800010       4.54448764E-06
   3.30500007       4.48919900E-06
   3.31200004       4.43333010E-06
   3.31900001       4.37703193E-06
   3.32599998       4.32045545E-06
   3.33299994       4.26375391E-06
   3.33999991       4.20708511E-06
   3.34699988       4.15061595E-06
   3.35400009       4.09451923E-06
   3.36100006       4.03897138E-06
   3.36800003       3.98414750E-06
   3.37500000       3.93021719E-06
   3.38199997       3.87734235E-06
   3.38899994       3.82566850E-06
   3.39599991       3.77533320E-06
   3.40300012       3.72646377E-06
   3.41000009       3.67918551E-06
   3.41700006       3.63362346E-06
   3.42400002       3.58990474E-06
   3.43099999       3.54815529E-06
   3.43799996       3.50849677E-06
   3.44499993       3.47103924E-06
   3.45199990       3.43587976E-06
   3.45900011       3.40309794E-06
   3.46600008       3.37275787E-06
   3.47300005       3.34490869E-06
   3.48000002       3.31958972E-06
   3.48699999       3.29683439E-06
   3.49399996       3.27667453E-06
   3.50099993       3.25913584E-06
   3.50799990       3.24423922E-06
   3.51500010       3.23199424E-06
   3.52200007       3.22239453E-06
   3.52900004       3.21541711E-06
   3.53600001       3.21102107E-06
   3.54299998       3.20915183E-06
   3.54999995       3.20974527E-06
   3.55699992       3.21273069E-06
   3.56399989       3.21803486E-06
   3.57100010       3.22558321E-06
   3.57800007       3.23529775E-06
   3.58500004       3.24709731E-06
   3.59200001       3.26089071E-06
   3.59899998       3.27657403E-06
   3.60599995       3.29403201E-06
   3.61299992       3.31313777E-06
   3.61999989       3.33375874E-06
   3.62700009       3.35576055E-06
   3.63400006       3.37900951E-06
   3.64100003       3.40337510E-06
   3.64800000       3.42872931E-06
   3.65499997       3.45494595E-06
   3.66199994       3.48189610E-06
   3.66899991       3.50944788E-06
   3.67600012       3.53746464E-06
   3.68300009       3.56580631E-06
   3.69000006       3.59433056E-06
   3.69700003       3.62290098E-06
   3.70400000       3.65138681E-06
   3.71099997       3.67966845E-06
   3.71799994       3.70763519E-06
   3.72499990       3.73518537E-06
   3.73200011       3.76222101E-06
   3.73900008       3.78864706E-06
   3.74600005       3.81436962E-06
   3.75300002       3.83929773E-06
   3.75999999       3.86334432E-06
   3.76699996       3.88643048E-06
   3.77399993       3.90848527E-06
   3.78099990       3.92945230E-06
   3.78800011       3.94928520E-06
   3.79500008       3.96795076E-06
   3.80200005       3.98542215E-06
   3.80900002       4.00167528E-06
   3.81599998       4.01668876E-06
   3.82299995       4.03044714E-06
   3.82999992       4.04293723E-06
   3.83699989       4.05415585E-06
   3.84400010       4.06410936E-06
   3.85100007       4.07281641E-06
   3.85800004       4.08030701E-06
   3.86500001       4.08661936E-06
   3.87199998       4.09179802E-06
   3.87899995       4.09588984E-06
   3.88599992       4.09894164E-06
   3.89299989       4.10099801E-06
   3.90000010       4.10210441E-06
   3.90700006       4.10230859E-06
   3.91400003       4.10166558E-06
   3.92100000       4.10023677E-06
   3.92799997       4.09809309E-06
   3.93499994       4.09530821E-06
   3.94199991       4.09195809E-06
   3.94899988       4.08811775E-06
   3.95600009       4.08385495E-06
   3.96300006       4.07923153E-06
   3.97000003       4.07430343E-06
   3.97700000       4.06912568E-06
   3.98399997       4.06375011E-06
   3.99099994       4.05823221E-06
   3.99799991       4.05262972E-06
   4.00500011       4.04700131E-06
   4.01200008       4.04140383E-06
   4.01900005       4.03588729E-06
   4.02600002       4.03049125E-06
   4.03299999       4.02524847E-06
   4.03999996       4.02017986E-06
   4.04699993       4.01529996E-06
   4.05399990       4.01061970E-06
   4.06099987       4.00614681E-06
   4.06799984       4.00189083E-06
   4.07499981       3.99785995E-06
   4.08199978       3.99405963E-06
   4.08900023       3.99048849E-06
   4.09600019       3.98713837E-06
   4.10300016       3.98398970E-06
   4.11000013       3.98101611E-06
   4.11700010       3.97818440E-06
   4.12400007       3.97545591E-06
   4.13100004       3.97279246E-06
   4.13800001       3.97015629E-06
   4.14499998       3.96750875E-06
   4.15199995       3.96481391E-06
   4.15899992       3.96203041E-06
   4.16599989       3.95911638E-06
   4.17299986       3.95602365E-06
   4.17999983       3.95269853E-06
   4.18699980       3.94908102E-06
   4.19399977       3.94511017E-06
   4.20100021       3.94072822E-06
   4.20800018       3.93588061E-06
   4.21500015       3.93051778E-06
   4.22200012       3.92459788E-06
   4.22900009       3.91808317E-06
   4.23600006       3.91093818E-06
   4.24300003       3.90313016E-06
   4.25000000       3.89462366E-06
   4.25699997       3.88538228E-06
   4.26399994       3.87537102E-06
   4.27099991       3.86455622E-06
   4.27799988       3.85291196E-06
   4.28499985       3.84041914E-06
   4.29199982       3.82706912E-06
   4.29899979       3.81286236E-06
   4.30600023       3.79780454E-06
   4.31300020       3.78190612E-06
   4.32000017       3.76518096E-06
   4.32700014       3.74764431E-06
   4.33400011       3.72931413E-06
   4.34100008       3.71021065E-06
   4.34800005       3.69036093E-06
   4.35500002       3.66979862E-06
   4.36199999       3.64856805E-06
   4.36899996       3.62672131E-06
   4.37599993       3.60431636E-06
   4.38299990       3.58141324E-06
   4.38999987       3.55807492E-06
   4.39699984       3.53436280E-06
   4.40399981       3.51034032E-06
   4.41099977       3.48607000E-06
   4.41800022       3.46161914E-06
   4.42500019       3.43705642E-06
   4.43200016       3.41245618E-06
   4.43900013       3.38789937E-06
   4.44600010       3.36346943E-06
   4.45300007       3.33925323E-06
   4.46000004       3.31533420E-06
   4.46700001       3.29179420E-06
   4.47399998       3.26871123E-06
   4.48099995       3.24616008E-06
   4.48799992       3.22421283E-06
   4.49499989       3.20294066E-06
   4.50199986       3.18241382E-06
   4.50899982       3.16270189E-06
   4.51599979       3.14387353E-06
   4.52299976       3.12599605E-06
   4.53000021       3.10913379E-06
   4.53700018       3.09334496E-06
   4.54400015       3.07867981E-06
   4.55100012       3.06517813E-06
   4.55800009       3.05287358E-06
   4.56500006       3.04179298E-06
   4.57200003       3.03195975E-06
   4.57900000       3.02339413E-06
   4.58599997       3.01611431E-06
   4.59299994       3.01013642E-06
   4.59999990       3.00547299E-06
   4.60699987       3.00213173E-06
   4.61399984       3.00011220E-06
   4.62099981       2.99940280E-06
   4.62799978       2.99997896E-06
   4.63500023       3.00180523E-06
   4.64200020       3.00483771E-06
   4.64900017       3.00902843E-06
   4.65600014       3.01433010E-06
   4.66300011       3.02069475E-06
   4.67000008       3.02807257E-06
   4.67700005       3.03641104E-06
   4.68400002       3.04565060E-06
   4.69099998       3.05572462E-06
   4.69799995       3.06655534E-06
   4.70499992       3.07805635E-06
   4.71199989       3.09013376E-06
   4.71899986       3.10269115E-06
   4.72599983       3.11563417E-06
   4.73299980       3.12887300E-06
   4.73999977       3.14232261E-06
   4.74700022       3.15589841E-06
   4.75400019       3.16951264E-06
   4.76100016       3.18307002E-06
   4.76800013       3.19646892E-06
   4.77500010       3.20960066E-06
   4.78200006       3.22235405E-06
   4.78900003       3.23462177E-06
   4.79600000       3.24630128E-06
   4.80299997       3.25730025E-06
   4.80999994       3.26753843E-06
   4.81699991       3.27694465E-06
   4.82399988       3.28545184E-06
   4.83099985       3.29299314E-06
   4.83799982       3.29949830E-06
   4.84499979       3.30489524E-06
   4.85200024       3.30911189E-06
   4.85900021       3.31208298E-06
   4.86600018       3.31375259E-06
   4.87300014       3.31407887E-06
   4.88000011       3.31303272E-06
   4.88700008       3.31059505E-06
   4.89400005       3.30675630E-06
   4.90100002       3.30151170E-06
   4.90799999       3.29485806E-06
   4.91499996       3.28679471E-06
   4.92199993       3.27732391E-06
   4.92899990       3.26645591E-06
   4.93599987       3.25421229E-06
   4.94299984       3.24062944E-06
   4.94999981       3.22575738E-06
   4.95699978       3.20965592E-06
   4.96400023       3.19239348E-06
   4.97100019       3.17404078E-06
   4.97800016       3.15467219E-06
   4.98500013       3.13436499E-06
   4.99200010       3.11319968E-06