  -1.00000000       0.00000000    
 -0.992999971      -5.97387598E-28
 -0.986000001      -5.42757750E-26
 -0.978999972      -9.38945933E-25
 -0.972000003      -7.69272700E-24
 -0.964999974      -3.97077049E-23
 -0.958000004      -1.47711478E-22
 -0.950999975      -4.26171035E-22
 -0.944000006      -9.92944396E-22
 -0.936999977      -1.89764159E-21
 -0.930000007      -2.92905523E-21
 -0.922999978      -3.32745680E-21
 -0.916000009      -1.46731461E-21
 -0.908999979       5.35456386E-21
 -0.902000010       2.08434716E-20
 -0.894999981       4.91878492E-20
 -0.888000011       9.40868445E-20
 -0.880999982       1.57571767E-19
 -0.874000013       2.39124809E-19
 -0.866999984       3.35646654E-19
 -0.860000014       4.42476022E-19
 -0.852999985       5.54935310E-19
 -0.846000016       6.69086132E-19
 -0.838999987       7.80091960E-19
 -0.832000017       8.77288733E-19
 -0.824999988       9.36779562E-19
 -0.818000019       9.14449098E-19
 -0.810999990       7.43534144E-19
 -0.804000020       3.40093525E-19
 -0.796999991      -3.83564787E-19
 -0.790000021      -1.50235634E-18
 -0.782999992      -3.06794093E-18
 -0.776000023      -5.11404745E-18
 -0.768999994      -7.68200484E-18
 -0.762000024      -1.08594761E-17
 -0.754999995      -1.48115655E-17
 -0.748000026      -1.97739726E-17
 -0.740999997      -2.59802872E-17
 -0.734000027      -3.35142317E-17
 -0.726999998      -4.21102000E-17
 -0.720000029      -5.09605759E-17
 -0.713000000      -5.86100477E-17
 -0.705999970      -6.30096692E-17
 -0.699000001      -6.17625853E-17
 -0.691999972      -5.25271898E-17
 -0.685000002      -3.34787688E-17
 -0.677999973      -3.69691583E-18
 -0.671000004       3.66326463E-17
 -0.663999975       8.62338568E-17
 -0.657000005       1.42896324E-16
 -0.649999976       2.03604698E-16
 -0.643000007       2.64461844E-16
 -0.635999978       3.20322529E-16
 -0.629000008       3.64247117E-16
 -0.621999979       3.87104089E-16
 -0.615000010       3.77787971E-16
 -0.607999980       3.24472091E-16
 -0.601000011       2.17037171E-16
 -0.593999982       5.03511953E-17
 -0.587000012      -1.72423469E-16
 -0.579999983      -4.37647339E-16
 -0.573000014      -7.21262213E-16
 -0.565999985      -9.91719198E-16
 -0.559000015      -1.21555485E-15
 -0.551999986      -1.36442164E-15
 -0.545000017      -1.42163945E-15
 -0.537999988      -1.38616232E-15
 -0.531000018      -1.27238791E-15
 -0.523999989      -1.10541505E-15
 -0.517000020      -9.12790868E-16
 -0.509999990      -7.15021539E-16
 -0.503000021      -5.17656033E-16
 -0.495999992      -3.07378330E-16
 -0.488999993      -5.33633768E-17
 -0.481999993       2.86419427E-16
 -0.474999994       7.55616652E-16
 -0.467999995       1.38890608E-15
 -0.460999995       2.20241208E-15
 -0.453999996       3.18612290E-15
 -0.446999997       4.29818949E-15
 -0.439999998       5.46040933E-15
 -0.432999998       6.55466282E-15
 -0.425999999       7.42147907E-15
 -0.419000000       7.86372090E-15
 -0.412000000       7.65955208E-15
 -0.405000001       6.58836626E-15
 -0.398000002       4.47067335E-15
 -0.391000003       1.21837484E-15
 -0.384000003      -3.11340682E-15
 -0.377000004      -8.28592108E-15
 -0.370000005      -1.38619390E-14
 -0.363000005      -1.92277004E-14
 -0.356000006      -2.36559395E-14
 -0.349000007      -2.64047597E-14
 -0.342000008      -2.68374952E-14
 -0.335000008      -2.45417446E-14
 -0.328000009      -1.94236903E-14
 -0.321000010      -1.17573857E-14
 -0.314000010      -2.17726622E-15
 -0.307000011       8.38681965E-15
 -0.300000012       1.88217955E-14
 -0.293000013       2.79726702E-14
 -0.286000013       3.47914514E-14
 -0.279000014       3.84733681E-14
 -0.272000015       3.85642920E-14
 -0.264999986       3.50290441E-14
 -0.257999986       2.82746679E-14
 -0.250999987       1.91261361E-14
 -0.244000003       8.75329438E-15
 -0.237000003      -1.45015958E-15
 -0.230000004      -1.00315510E-14
 -0.223000005      -1.56771196E-14
 -0.216000006      -1.74228782E-14
 -0.209000006      -1.48483300E-14
 -0.202000007      -8.21571645E-15
 -0.194999993       1.48312388E-15
 -0.187999994       1.26012245E-14
 -0.180999994       2.30423014E-14
 -0.173999995       3.05813385E-14
 -0.166999996       3.32551098E-14
 -0.159999996       2.97545327E-14
 -0.152999997       1.97403163E-14
 -0.145999998       4.00975995E-15
 -0.138999999      -1.55327818E-14
 -0.131999999      -3.61115150E-14
 -0.125000000      -5.44874475E-14
 -0.118000001      -6.74684578E-14
 -0.111000001      -7.24283914E-14
 -0.104000002      -6.77412431E-14
  -9.70000029E-02  -5.30572900E-14
  -9.00000036E-02  -2.93831122E-14
  -8.29999968E-02   1.03185098E-15
  -7.59999976E-02   3.49661299E-14
  -6.89999983E-02   6.85999245E-14
  -6.19999990E-02   9.79368632E-14
  -5.49999997E-02   1.19232410E-13
  -4.80000004E-02   1.29405506E-13
  -4.10000011E-02   1.26421917E-13
  -3.40000018E-02   1.09635059E-13
  -2.70000007E-02   8.00534836E-14
  -1.99999996E-02   4.04800027E-14
  -1.30000003E-02  -4.54979131E-15
  -6.00000005E-03  -4.90973703E-14
   1.00000005E-03  -8.64521399E-14
   8.00000038E-03  -1.10031525E-13
   1.49999997E-02  -1.14438691E-13
   2.19999999E-02  -9.64954231E-14
   2.89999992E-02  -5.60313480E-14
   3.59999985E-02   3.77097205E-15
   4.30000015E-02   7.65996831E-14
   5.00000007E-02   1.53810084E-13
   5.70000000E-02   2.25665041E-13
   6.40000030E-02   2.82782885E-13
   7.10000023E-02   3.17506980E-13
   7.80000016E-02   3.24936746E-13
   8.50000009E-02   3.03453850E-13
   9.20000002E-02   2.54709882E-13
   9.89999995E-02   1.83171268E-13
  0.105999999       9.54007449E-14
  0.112999998      -7.28599265E-16
  0.119999997      -9.67460975E-14
  0.127000004      -1.84177353E-13
  0.134000003      -2.55069701E-13
  0.141000003      -3.02550845E-13
  0.148000002      -3.21502590E-13
  0.155000001      -3.09343588E-13
  0.162000000      -2.66790360E-13
  0.169000000      -1.98359721E-13
  0.175999999      -1.12339263E-13
  0.182999998      -2.00214228E-14
  0.189999998       6.58321122E-14
  0.196999997       1.33099681E-13
  0.203999996       1.72571457E-13
  0.210999995       1.79848337E-13
  0.217999995       1.56357769E-13
  0.224999994       1.09161452E-13
  0.231999993       4.95322912E-14
  0.238999993      -9.38632954E-15
  0.246000007      -5.52646951E-14
  0.252999991      -7.89396082E-14
  0.259999990      -7.58622426E-14
  0.266999990      -4.63456279E-14
  0.273999989       5.31684360E-15
  0.280999988       7.24524471E-14
  0.287999988       1.47730786E-13
  0.294999987       2.24429565E-13
  0.301999986       2.96899007E-13
  0.308999985       3.60236092E-13
  0.316000015       4.09529534E-13
  0.323000014       4.39242555E-13
  0.330000013       4.43274459E-13
  0.337000012       4.15972378E-13
  0.344000012       3.53945009E-13
  0.351000011       2.58107988E-13
  0.358000010       1.35141152E-13
  0.365000010      -2.41886076E-15
  0.372000009      -1.37868937E-13
  0.379000008      -2.53652893E-13
  0.386000007      -3.35527775E-13
  0.393000007      -3.76395069E-13
  0.400000006      -3.78557483E-13
  0.407000005      -3.53537647E-13
  0.414000005      -3.19309737E-13
  0.421000004      -2.95625964E-13
  0.428000003      -2.98787525E-13
  0.435000002      -3.37466031E-13
  0.442000002      -4.10906498E-13
  0.449000001      -5.10096143E-13
  0.456000000      -6.21503283E-13
  0.463000000      -7.32103343E-13
  0.469999999      -8.33941640E-13
  0.476999998      -9.26621193E-13
  0.483999997      -1.01682768E-12
  0.490999997      -1.11507646E-12
  0.497999996      -1.23090817E-12
  0.504999995      -1.36838945E-12
  0.512000024      -1.52373231E-12
  0.518999994      -1.68610904E-12
  0.526000023      -1.84153777E-12
  0.532999992      -1.97848378E-12
  0.540000021      -2.09303169E-12
  0.546999991      -2.19143822E-12
  0.554000020      -2.28870612E-12
  0.560999990      -2.40322996E-12
  0.568000019      -2.54909223E-12
  0.574999988      -2.72867904E-12
  0.582000017      -2.92845349E-12
  0.588999987      -3.11988846E-12
  0.596000016      -3.26587368E-12
  0.602999985      -3.33095617E-12
  0.610000014      -3.29225124E-12
  0.616999984      -3.14729904E-12
  0.624000013      -2.91591642E-12
  0.630999982      -2.63484135E-12
  0.638000011      -2.34645788E-12
  0.644999981      -2.08477983E-12
  0.652000010      -1.86302211E-12
  0.658999979      -1.66669911E-12
  0.666000009      -1.45434175E-12
  0.672999978      -1.16535340E-12
  0.680000007      -7.32106704E-13
  0.686999977      -9.17146743E-14
  0.694000006       8.06899198E-13
  0.700999975       2.00333370E-12
  0.708000004       3.53354889E-12
  0.714999974       5.44227033E-12
  0.722000003       7.79527831E-12
  0.728999972       1.06866486E-11
  0.736000001       1.42378141E-11
  0.742999971       1.85882195E-11
  0.750000000       2.38809129E-11
  0.757000029       3.02484877E-11
  0.763999999       3.78057238E-11
  0.771000028       4.66528760E-11
  0.777999997       5.68909815E-11
  0.785000026       6.86456655E-11
  0.791999996       8.20930823E-11
  0.799000025       9.74803710E-11
  0.805999994       1.15134589E-10
  0.813000023       1.35457631E-10
  0.819999993       1.58909899E-10
  0.827000022       1.85989280E-10
  0.833999991       2.17213914E-10
  0.841000021       2.53116417E-10
  0.847999990       2.94253677E-10
  0.855000019       3.41231626E-10
  0.861999989       3.94737326E-10
  0.869000018       4.55571136E-10
  0.875999987       5.24668142E-10
  0.883000016       6.03104344E-10
  0.889999986       6.92088609E-10
  0.897000015       7.92945154E-10
  0.903999984       9.07096787E-10
  0.911000013       1.03605957E-09
  0.917999983       1.18145449E-09
  0.925000012       1.34503675E-09
  0.931999981       1.52873914E-09
  0.939000010       1.73471637E-09
  0.945999980       1.96538208E-09
  0.953000009       2.22342766E-09
  0.959999979       2.51182386E-09
  0.967000008       2.83380652E-09
  0.973999977       3.19286242E-09
  0.981000006       3.59272456E-09
  0.987999976       4.03738776E-09
  0.995000005       4.53114835E-09
   1.00199997       5.07866194E-09
   1.00899994       5.68500802E-09
   1.01600003       6.35574970E-09
   1.02300000       7.09697234E-09
   1.02999997       7.91529420E-09
   1.03699994       8.81785844E-09
   1.04400003       9.81230830E-09
   1.05100000       1.09067653E-08
   1.05799997       1.21098331E-08
   1.06500006       1.34306175E-08
   1.07200003       1.48787862E-08
   1.07900000       1.64646323E-08
   1.08599997       1.81991453E-08
   1.09300005       2.00940793E-08
   1.10000002       2.21619594E-08
   1.10699999       2.44161029E-08
   1.11399996       2.68705911E-08
   1.12100005       2.95402405E-08
   1.12800002       3.24405889E-08
   1.13499999       3.55878953E-08
   1.14199996       3.89991968E-08
   1.14900005       4.26923350E-08
   1.15600002       4.66860151E-08
   1.16299999       5.09998621E-08
   1.16999996       5.56544002E-08
   1.17700005       6.06710415E-08
   1.18400002       6.60720332E-08
   1.19099998       7.18803577E-08
   1.19799995       7.81196619E-08
   1.20500004       8.48142108E-08
   1.21200001       9.19888450E-08
   1.21899998       9.96690233E-08
   1.22599995       1.07880808E-07
   1.23300004       1.16650888E-07
   1.24000001       1.26006540E-07
   1.24699998       1.35975611E-07
   1.25399995       1.46586359E-07
   1.26100004       1.57867333E-07
   1.26800001       1.69847269E-07
   1.27499998       1.82554942E-07
   1.28199995       1.96018945E-07
   1.28900003       2.10267771E-07
   1.29600000       2.25329700E-07
   1.30299997       2.41232698E-07
   1.30999994       2.58004434E-07
   1.31700003       2.75672193E-07
   1.32400000       2.94262577E-07
   1.33099997       3.13801479E-07
   1.33800006       3.34313768E-07
   1.34500003       3.55823119E-07
   1.35200000       3.78351928E-07
   1.35899997       4.01921028E-07
   1.36600006       4.26549718E-07
   1.37300003       4.52255534E-07
   1.38000000       4.79054393E-07
   1.38699996       5.06960362E-07
   1.39400005       5.35985407E-07
   1.40100002       5.66139306E-07
   1.40799999       5.97429505E-07
   1.41499996       6.29860835E-07
   1.42200005       6.63435117E-07
   1.42900002       6.98151155E-07
   1.43599999       7.34004971E-07
   1.44299996       7.70989288E-07
   1.45000005       8.09093763E-07
   1.45700002       8.48304978E-07
   1.46399999       8.88606110E-07
   1.47099996       9.29977432E-07
   1.47800004       9.72395583E-07
   1.48500001       1.01583362E-06
   1.49199998       1.06026118E-06
   1.49899995       1.10564429E-06
   1.50600004       1.15194530E-06
   1.51300001       1.19912283E-06
   1.51999998       1.24713290E-06
   1.52699995       1.29592695E-06
   1.53400004       1.34545405E-06
   1.54100001       1.39565987E-06
   1.54799998       1.44648686E-06
   1.55499995       1.49787479E-06
   1.56200004       1.54975965E-06
   1.56900001       1.60207514E-06
   1.57599998       1.65475183E-06
   1.58299994       1.70771762E-06
   1.59000003       1.76089827E-06
   1.59700000       1.81421740E-06
   1.60399997       1.86759689E-06
   1.61099994       1.92095717E-06
   1.61800003       1.97421741E-06
   1.62500000       2.02729575E-06
   1.63199997       2.08010988E-06
   1.63900006       2.13257613E-06
   1.64600003       2.18461059E-06
   1.65300000       2.23612960E-06
   1.65999997       2.28704994E-06
   1.66700006       2.33728815E-06
   1.67400002       2.38676262E-06
   1.68099999       2.43539216E-06
   1.68799996       2.48309834E-06
   1.69500005       2.52980294E-06
   1.70200002       2.57542956E-06
   1.70899999       2.61990544E-06
   1.71599996       2.66315965E-06
   1.72300005       2.70512282E-06
   1.73000002       2.74572972E-06
   1.73699999       2.78491757E-06
   1.74399996       2.82262749E-06
   1.75100005       2.85880446E-06
   1.75800002       2.89339755E-06
   1.76499999       2.92635877E-06
   1.77199996       2.95764607E-06
   1.77900004       2.98722080E-06
   1.78600001       3.01504929E-06
   1.79299998       3.04110108E-06
   1.79999995       3.06535139E-06
   1.80700004       3.08777999E-06
   1.81400001       3.10837004E-06
   1.82099998       3.12711086E-06
   1.82799995       3.14399608E-06
   1.83500004       3.15902389E-06
   1.84200001       3.17219792E-06
   1.84899998       3.18352613E-06
   1.85599995       3.19302058E-06
   1.86300004       3.20069853E-06
   1.87000000       3.20658069E-06
   1.87699997       3.21069251E-06
   1.88399994       3.21306356E-06
   1.89100003       3.21372727E-06
   1.89800000       3.21272114E-06
   1.90499997       3.21008611E-06
   1.91199994       3.20586742E-06
   1.91900003       3.20011304E-06
   1.92600000       3.19287392E-06
   1.93299997       3.18420371E-06
   1.94000006       3.17415970E-06
   1.94700003       3.16280011E-06
   1.95400000       3.15018633E-06
   1.96099997       3.13638111E-06
   1.96800005       3.12144948E-06
   1.97500002       3.10545829E-06
   1.98199999       3.08847530E-06
   1.98899996       3.07056985E-06
   1.99600005       3.05181175E-06
   2.00300002       3.03227102E-06
   2.00999999       3.01201885E-06
   2.01699996       2.99112548E-06
   2.02399993       2.96966164E-06
   2.03099990       2.94769757E-06
   2.03800011       2.92530353E-06
   2.04500008       2.90254820E-06
   2.05200005       2.87950002E-06
   2.05900002       2.85622650E-06
   2.06599998       2.83279337E-06
   2.07299995       2.80926474E-06
   2.07999992       2.78570360E-06
   2.08699989       2.76217088E-06
   2.09400010       2.73872524E-06
   2.10100007       2.71542399E-06
   2.10800004       2.69232055E-06
   2.11500001       2.66946745E-06
   2.12199998       2.64691380E-06
   2.12899995       2.62470689E-06
   2.13599992       2.60289016E-06
   2.14299989       2.58150430E-06
   2.15000010       2.56058752E-06
   2.15700006       2.54017414E-06
   2.16400003       2.52029554E-06
   2.17100000       2.50097969E-06
   2.17799997       2.48225138E-06
   2.18499994       2.46413242E-06
   2.19199991       2.44664079E-06
   2.19899988       2.42979149E-06
   2.20600009       2.41359589E-06
   2.21300006       2.39806195E-06
   2.22000003       2.38319421E-06
   2.22700000       2.36899382E-06
   2.23399997       2.35545781E-06
   2.24099994       2.34258073E-06
   2.24799991       2.33035371E-06
   2.25500011       2.31876470E-06
   2.26200008       2.30779801E-06
   2.26900005       2.29743569E-06
   2.27600002       2.28765657E-06
   2.28299999       2.27843702E-06
   2.28999996       2.26974976E-06
   2.29699993       2.26156567E-06
   2.30399990       2.25385293E-06
   2.31100011       2.24657742E-06
   2.31800008       2.23970369E-06
   2.32500005       2.23319353E-06
   2.33200002       2.22700692E-06
   2.33899999       2.22110293E-06
   2.34599996       2.21543951E-06
   2.35299993       2.20997254E-06
   2.35999990       2.20465722E-06
   2.36700010       2.19944855E-06
   2.37400007       2.19429990E-06
   2.38100004       2.18916466E-06
   2.38800001       2.18399623E-06
   2.39499998       2.17874822E-06
   2.40199995       2.17337356E-06
   2.40899992       2.16782610E-06
   2.41599989       2.16206081E-06
   2.42300010       2.15603222E-06
   2.43000007       2.14969668E-06
   2.43700004       2.14301053E-06
   2.44400001       2.13593171E-06
   2.45099998       2.12841996E-06
   2.45799994       2.12043619E-06
   2.46499991       2.11194288E-06
   2.47199988       2.10290546E-06
   2.47900009       2.09328937E-06
   2.48600006       2.08306301E-06
   2.49300003       2.07219614E-06
   2.50000000       2.06066125E-06
   2.50699997       2.04843172E-06
   2.51399994       2.03548416E-06
   2.52099991       2.02179672E-06
   2.52800012       2.00734985E-06
   2.53500009       1.99212559E-06
   2.54200006       1.97610871E-06
   2.54900002       1.95928578E-06
   2.55599999       1.94164591E-06
   2.56299996       1.92317930E-06
   2.56999993       1.90387982E-06
   2.57699990       1.88374179E-06
   2.58400011       1.86276270E-06
   2.59100008       1.84094131E-06
   2.59800005       1.81827897E-06
   2.60500002       1.79477854E-06
   2.61199999       1.77044512E-06
   2.61899996       1.74528509E-06
   2.62599993       1.71930708E-06
   2.63299990       1.69252132E-06
   2.64000010       1.66493953E-06
   2.64700007       1.63657512E-06
   2.65400004       1.60744310E-06
   2.66100001       1.57755949E-06
   2.66799998       1.54694226E-06
   2.67499995       1.51561073E-06
   2.68199992       1.48358572E-06
   2.68899989       1.45089007E-06
   2.69600010       1.41754708E-06
   2.70300007       1.38358280E-06
   2.71000004       1.34902382E-06
   2.71700001       1.31389902E-06
   2.72399998       1.27823841E-06
   2.73099995       1.24207349E-06
   2.73799992       1.20543734E-06
   2.74499989       1.16836452E-06
   2.75200009       1.13089163E-06
   2.75900006       1.09305677E-06
   2.76600003       1.05490017E-06
   2.77300000       1.01646310E-06
   2.77999997       9.77789341E-07
   2.78699994       9.38923904E-07
   2.79399991       8.99913573E-07
   2.80100012       8.60807233E-07
   2.80800009       8.21655021E-07
   2.81500006       7.82508948E-07
   2.82200003       7.43422390E-07
   2.82900000       7.04450883E-07
   2.83599997       6.65651612E-07
   2.84299994       6.27083807E-07
   2.84999990       5.88808291E-07
   2.85700011       5.50887535E-07
   2.86400008       5.13385487E-07
   2.87100005       4.76367234E-07
   2.87800002       4.39899708E-07
   2.88499999       4.04051065E-07
   2.89199996       3.68890653E-07
   2.89899993       3.34488988E-07
   2.90599990       3.00917719E-07
   2.91300011       2.68249693E-07
   2.92000008       2.36558719E-07
   2.92700005       2.05919491E-07
   2.93400002       1.76407184E-07
   2.94099998       1.48097214E-07
   2.94799995       1.21064829E-07
   2.95499992       9.53852677E-08
   2.96199989       7.11333783E-08
   2.96900010       4.83835123E-08
   2.97600007       2.72093015E-08
   2.98300004       7.68328423E-09
   2.99000001      -1.01229469E-08
   2.99699998      -2.61389967E-08
   3.00399995      -4.02956566E-08
   3.01099992      -5.25254009E-08
   3.01799989      -6.27625667E-08
   3.02500010      -7.09438908E-08
   3.03200006      -7.70084227E-08
   3.03900003      -8.08976921E-08
   3.04600000      -8.25558502E-08
   3.05299997      -8.19298478E-08
   3.05999994      -7.89695633E-08
   3.06699991      -7.36280370E-08
   3.07399988      -6.58617623E-08
   3.08100009      -5.56306681E-08
   3.08800006      -4.28987335E-08
   3.09500003      -2.76346128E-08
   3.10200000      -9.81196013E-09
   3.10899997       1.05902833E-08
   3.11599994       3.35880124E-08
   3.12299991       5.91922245E-08
   3.13000011       8.74087718E-08
   3.13700008       1.18238553E-07
   3.14400005       1.51677142E-07
   3.15100002       1.87715031E-07
   3.15799999       2.26337676E-07
   3.16499996       2.67525252E-07
   3.17199993       3.11251881E-07
   3.17899990       3.57485732E-07
   3.18600011       4.06188576E-07
   3.19300008       4.57315934E-07
   3.20000005       5.10817983E-07
   3.20700002       5.66638960E-07
   3.21399999       6.24717359E-07
   3.22099996       6.84985764E-07
   3.22799993       7.47370905E-07
   3.23499990       8.11793484E-07
   3.24200010       8.78168180E-07
   3.24900007       9.46404100E-07
   3.25600004       1.01640410E-06
   3.26300001       1.08806512E-06
   3.26999998       1.16127933E-06
   3.27699995       1.23593418E-06
   3.28399992       1.31191314E-06
   3.29099989       1.38909604E-06
   3.29800010       1.46735874E-06
   3.30500007       1.54657391E-06
   3.31200004       1.62661036E-06
   3.31900001       1.70733392E-06
   3.32599998       1.78860751E-06
   3.33299994       1.87029093E-06
   3.33999991       1.95224197E-06
   3.34699988       2.03431614E-06
   3.35400009       2.11636848E-06
   3.36100006       2.19825279E-06
   3.36800003       2.27982332E-06
   3.37500000       2.36093433E-06
   3.38199997       2.44144030E-06
   3.38899994       2.52119708E-06
   3.39599991       2.60006186E-06
   3.40300012       2.67789346E-06
   3.41000009       2.75455341E-06
   3.41700006       2.82990550E-06
   3.42400002       2.90381718E-06
   3.43099999       2.97615975E-06
   3.43799996       3.04681021E-06
   3.44499993       3.11564918E-06
   3.45199990       3.18256366E-06
   3.45900011       3.24744428E-06
   3.46600008       3.31018987E-06
   3.47300005       3.37070310E-06
   3.48000002       3.42889348E-06
   3.48699999       3.48467688E-06
   3.49399996       3.53797554E-06
   3.50099993       3.58871944E-06
   3.50799990       3.63684444E-06
   3.51500010       3.68229485E-06
   3.52200007       3.72502336E-06
   3.52900004       3.76499020E-06
   3.53600001       3.80216329E-06
   3.54299998       3.83651741E-06
   3.54999995       3.86803549E-06
   3.55699992       3.89670822E-06
   3.56399989       3.92253241E-06
   3.57100010       3.94551307E-06
   3.57800007       3.96566156E-06
   3.58500004       3.98299744E-06
   3.59200001       3.99754663E-06
   3.59899998       4.00934141E-06
   3.60599995       4.01842317E-06
   3.61299992       4.02483556E-06
   3.61999989       4.02862952E-06
   3.62700009       4.02986052E-06
   3.63400006       4.02858814E-06
   3.64100003       4.02487558E-06
   3.64800000       4.01879015E-06
   3.65499997       4.01040325E-06
   3.66199994       3.99978990E-06
   3.66899991       3.98702787E-06
   3.67600012       3.97219856E-06
   3.68300009       3.95538564E-06
   3.69000006       3.93667369E-06
   3.69700003       3.91614958E-06
   3.70400000       3.89389834E-06
   3.71099997       3.87000682E-06
   3.71799994       3.84456098E-06
   3.72499990       3.81764585E-06
   3.73200011       3.78934647E-06
   3.73900008       3.75974787E-06
   3.74600005       3.72893260E-06
   3.75300002       3.69698319E-06
   3.75999999       3.66397967E-06
   3.76699996       3.63000004E-06
   3.77399993       3.59511910E-06
   3.78099990       3.55940915E-06
   3.78800011       3.52293864E-06
   3.79500008       3.48577396E-06
   3.80200005       3.44797922E-06
   3.80900002       3.40961537E-06
   3.81599998       3.37074289E-06
   3.82299995       3.33141816E-06
   3.82999992       3.29169620E-06
   3.83699989       3.25162910E-06
   3.84400010       3.21126595E-06
   3.85100007       3.17065155E-06
   3.85800004       3.12982820E-06
   3.86500001       3.08883432E-06
   3.87199998       3.04770629E-06
   3.87899995       3.00647866E-06
   3.88599992       2.96518624E-06
   3.89299989       2.92386017E-06
   3.90000010       2.88253250E-06
   3.90700006       2.84123280E-06
   3.91400003       2.79998949E-06
   3.92100000       2.75882985E-06
   3.92799997       2.71777913E-06
   3.93499994       2.67686187E-06
   3.94199991       2.63610059E-06
   3.94899988       2.59551894E-06
   3.95600009       2.55514169E-06
   3.96300006       2.51499409E-06
   3.97000003       2.47510275E-06
   3.97700000       2.43549357E-06
   3.98399997       2.39619271E-06
   3.99099994       2.35722609E-06
   3.99799991       2.31861964E-06
   4.00500011       2.28039949E-06
   4.01200008       2.24259179E-06
   4.01900005       2.20522338E-06
   4.02600002       2.16832177E-06
   4.03299999       2.13191879E-06
   4.03999996       2.09604605E-06
   4.04699993       2.06073719E-06
   4.05399990       2.02602564E-06
   4.06099987       1.99194437E-06
   4.06799984       1.95852567E-06
   4.07499981       1.92580160E-06
   4.08199978       1.89380364E-06
   4.08900023       1.86256420E-06
   4.09600019       1.83211546E-06
   4.10300016       1.80248935E-06
   4.11000013       1.77371862E-06
   4.11700010       1.74583590E-06
   4.12400007       1.71887370E-06
   4.13100004       1.69286250E-06
   4.13800001       1.66783025E-06
   4.14499998       1.64380231E-06
   4.15199995       1.62080141E-06
   4.15899992       1.59884939E-06
   4.16599989       1.57796569E-06
   4.17299986       1.55816883E-06
   4.17999983       1.53947485E-06
   4.18699980       1.52189716E-06
   4.19399977       1.50544747E-06
   4.20100021       1.49013374E-06
   4.20800018       1.47596120E-06
   4.21500015       1.46293019E-06
   4.22200012       1.45103695E-06
   4.22900009       1.44027354E-06
   4.23600006       1.43062903E-06
   4.24300003       1.42209024E-06
   4.25000000       1.41464170E-06
   4.25699997       1.40826523E-06
   4.26399994       1.40293935E-06
   4.27099991       1.39863914E-06
   4.27799988       1.39533586E-06
   4.28499985       1.39299698E-06
   4.29199982       1.39158612E-06
   4.29899979       1.39106237E-06
   4.30600023       1.39138115E-06
   4.31300020       1.39249516E-06
   4.32000017       1.39435531E-06
   4.32700014       1.39691099E-06
   4.33400011       1.40011048E-06
   4.34100008       1.40389955E-06
   4.34800005       1.40822215E-06
   4.35500002       1.41301928E-06
   4.36199999       1.41823023E-06
   4.36899996       1.42379258E-06
   4.37599993       1.42964336E-06
   4.38299990       1.43571754E-06
   4.38999987       1.44195053E-06
   4.39699984       1.44827857E-06
   4.40399981       1.45463844E-06
   4.41099977       1.46096841E-06
   4.41800022       1.46720697E-06
   4.42500019       1.47329285E-06
   4.43200016       1.47916444E-06
   4.43900013       1.48476113E-06
   4.44600010       1.49002301E-06
   4.45300007       1.49489301E-06
   4.46000004       1.49931566E-06
   4.46700001       1.50323876E-06
   4.47399998       1.50661299E-06
   4.48099995       1.50939218E-06
   4.48799992       1.51153392E-06
   4.49499989       1.51299844E-06
   4.50199986       1.51374866E-06
   4.50899982       1.51374945E-06
   4.51599979       1.51296865E-06
   4.52299976       1.51137726E-06
   4.53000021       1.50895096E-06
   4.53700018       1.50566984E-06
   4.54400015       1.50151891E-06
   4.55100012       1.49648770E-06
   4.55800009       1.49057098E-06
   4.56500006       1.48376728E-06
   4.57200003       1.47607943E-06
   4.57900000       1.46751381E-06
   4.58599997       1.45808065E-06
   4.59299994       1.44779312E-06
   4.59999990       1.43666875E-06
   4.60699987       1.42472948E-06
   4.61399984       1.41200189E-06
   4.62099981       1.39851761E-06
   4.62799978       1.38431278E-06
   4.63500023       1.36942731E-06
   4.64200020       1.35390451E-06
   4.64900017       1.33779042E-06
   4.65600014       1.32113382E-06
   4.66300011       1.30398655E-06
   4.67000008       1.28640306E-06
   4.67700005       1.26844066E-06
   4.68400002       1.25016061E-06
   4.69099998       1.23162692E-06
   4.69799995       1.21290680E-06
   4.70499992       1.19407048E-06
   4.71199989       1.17518903E-06
   4.71899986       1.15633475E-06
   4.72599983       1.13758063E-06
   4.73299980       1.11899885E-06
   4.73999977       1.10066151E-06
   4.74700022       1.08264112E-06
   4.75400019       1.06501045E-06
   4.76100016       1.04784203E-06
   4.76800013       1.03120863E-06
   4.77500010       1.01518140E-06
   4.78200006       9.99830831E-07
   4.78900003       9.85225142E-07
   4.79600000       9.71429927E-07
   4.80299997       9.58508735E-07
   4.80999994       9.46521482E-07
   4.81699991       9.35525463E-07
   4.82399988       9.25575193E-07
   4.83099985       9.16722513E-07
   4.83799982       9.09017047E-07
   4.84499979       9.02504894E-07
   4.85200024       8.97228404E-07
   4.85900021       8.93225149E-07
   4.86600018       8.90527815E-07
   4.87300014       8.89164312E-07
   4.88000011       8.89157320E-07
   4.88700008       8.90524461E-07
   4.89400005       8.93277956E-07
   4.90100002       8.97425195E-07
   4.90799999       9.02968964E-07
   4.91499996       9.09907556E-07
   4.92199993       9.18235685E-07
   4.92899990       9.27942835E-07
   4.93599987       9.39013887E-07
   4.94299984       9.51428092E-07
   4.94999981       9.65160098E-07
   4.95699978       9.80180289E-07
   4.96400023       9.96454901E-07
   4.97100019       1.01394608E-06
   4.97800016       1.03261232E-06
   4.98500013       1.05240781E-06
   4.99200010       1.07328424E-06