  -1.00000000      -9.53190452E-22
 -0.992999971      -2.14647941E-19
 -0.986000001      -2.64672567E-18
 -0.978999972      -1.51519950E-17
 -0.972000003      -5.85698468E-17
 -0.964999974      -1.79812032E-16
 -0.958000004      -4.77649290E-16
 -0.950999975      -1.14749247E-15
 -0.944000006      -2.53826975E-15
 -0.936999977      -5.18766133E-15
 -0.930000007      -9.77794336E-15
 -0.922999978      -1.69626970E-14
 -0.916000009      -2.70734261E-14
 -0.908999979      -3.98076822E-14
 -0.902000010      -5.40716018E-14
 -0.894999981      -6.81384609E-14
 -0.888000011      -8.01677314E-14
 -0.880999982      -8.89478852E-14
 -0.874000013      -9.45706661E-14
 -0.866999984      -9.87030078E-14
 -0.860000014      -1.04240679E-13
 -0.852999985      -1.14376268E-13
 -0.846000016      -1.31405290E-13
 -0.838999987      -1.55799730E-13
 -0.832000017      -1.86077147E-13
 -0.824999988      -2.19723979E-13
 -0.818000019      -2.54953204E-13
 -0.810999990      -2.92578245E-13
 -0.804000020      -3.37035575E-13
 -0.796999991      -3.95786133E-13
 -0.790000021      -4.76973604E-13
 -0.782999992      -5.86063966E-13
 -0.776000023      -7.22832601E-13
 -0.768999994      -8.80153264E-13
 -0.762000024      -1.04545149E-12
 -0.754999995      -1.20461930E-12
 -0.748000026      -1.34708369E-12
 -0.740999997      -1.47005064E-12
 -0.734000027      -1.58007125E-12
 -0.726999998      -1.69102265E-12
 -0.720000029      -1.81907744E-12
 -0.713000000      -1.97666146E-12
 -0.705999970      -2.16811573E-12
 -0.699000001      -2.38931943E-12
 -0.691999972      -2.63196452E-12
 -0.685000002      -2.89103702E-12
 -0.677999973      -3.17234043E-12
 -0.671000004      -3.49647243E-12
 -0.663999975      -3.89683208E-12
 -0.657000005      -4.41166244E-12
 -0.649999976      -5.07279592E-12
 -0.643000007      -5.89550457E-12
 -0.635999978      -6.87386086E-12
 -0.629000008      -7.98410123E-12
 -0.621999979      -9.19537016E-12
 -0.615000010      -1.04839965E-11
 -0.607999980      -1.18455861E-11
 -0.601000011      -1.32995429E-11
 -0.593999982      -1.48834157E-11
 -0.587000012      -1.66385881E-11
 -0.579999983      -1.85928391E-11
 -0.573000014      -2.07472251E-11
 -0.565999985      -2.30736368E-11
 -0.559000015      -2.55253804E-11
 -0.551999986      -2.80578876E-11
 -0.545000017      -3.06521024E-11
 -0.537999988      -3.33314522E-11
 -0.531000018      -3.61651091E-11
 -0.523999989      -3.92553316E-11
 -0.517000020      -4.27127118E-11
 -0.509999990      -4.66283435E-11
 -0.503000021      -5.10536925E-11
 -0.495999992      -5.59964228E-11
 -0.488999993      -6.14346699E-11
 -0.481999993      -6.73446715E-11
 -0.474999994      -7.37308548E-11
 -0.467999995      -8.06458234E-11
 -0.460999995      -8.81911003E-11
 -0.453999996      -9.64967689E-11
 -0.446999997      -1.05686834E-10
 -0.439999998      -1.15843383E-10
 -0.432999998      -1.26983757E-10
 -0.425999999      -1.39060888E-10
 -0.419000000      -1.51988117E-10
 -0.412000000      -1.65680511E-10
 -0.405000001      -1.80097715E-10
 -0.398000002      -1.95271910E-10
 -0.391000003      -2.11309359E-10
 -0.384000003      -2.28363439E-10
 -0.377000004      -2.46588666E-10
 -0.370000005      -2.66092315E-10
 -0.363000005      -2.86901697E-10
 -0.356000006      -3.08960524E-10
 -0.349000007      -3.32155276E-10
 -0.342000008      -3.56362023E-10
 -0.335000008      -3.81495141E-10
 -0.328000009      -4.07539114E-10
 -0.321000010      -4.34550035E-10
 -0.314000010      -4.62626243E-10
 -0.307000011      -4.91858776E-10
 -0.300000012      -5.22280774E-10
 -0.293000013      -5.53836532E-10
 -0.286000013      -5.86383553E-10
 -0.279000014      -6.19726825E-10
 -0.272000015      -6.53674559E-10
 -0.264999986      -6.88091972E-10
 -0.257999986      -7.22934435E-10
 -0.250999987      -7.58241914E-10
 -0.244000003      -7.94098232E-10
 -0.237000003      -8.30565450E-10
 -0.230000004      -8.67616534E-10
 -0.223000005      -9.05087838E-10
 -0.216000006      -9.42665612E-10
 -0.209000006      -9.79907044E-10
 -0.202000007      -1.01628450E-09
 -0.194999993      -1.05123366E-09
 -0.187999994      -1.08418396E-09
 -0.180999994      -1.11456000E-09
 -0.173999995      -1.14175303E-09
 -0.166999996      -1.16506915E-09
 -0.159999996      -1.18367749E-09
 -0.152999997      -1.19657262E-09
 -0.145999998      -1.20255994E-09
 -0.138999999      -1.20026644E-09
 -0.131999999      -1.18816235E-09
 -0.125000000      -1.16457943E-09
 -0.118000001      -1.12771170E-09
 -0.111000001      -1.07559173E-09
 -0.104000002      -1.00604547E-09
  -9.70000029E-02  -9.16634435E-10
  -9.00000036E-02  -8.04601941E-10
  -8.29999968E-02  -6.66829647E-10
  -7.59999976E-02  -4.99816799E-10
  -6.89999983E-02  -2.99670927E-10
  -6.19999990E-02  -6.21077495E-11
  -5.49999997E-02   2.17556070E-10
  -4.80000004E-02   5.44426171E-10
  -4.10000011E-02   9.24072374E-10
  -3.40000018E-02   1.36259004E-09
  -2.70000007E-02   1.86667415E-09
  -1.99999996E-02   2.44369547E-09
  -1.30000003E-02   3.10177906E-09
  -6.00000005E-03   3.84987153E-09
   1.00000005E-03   4.69781014E-09
   8.00000038E-03   5.65638869E-09
   1.49999997E-02   6.73741463E-09
   2.19999999E-02   7.95377630E-09
   2.89999992E-02   9.31950073E-09
   3.59999985E-02   1.08498197E-08
   4.30000015E-02   1.25612463E-08
   5.00000007E-02   1.44716461E-08
   5.70000000E-02   1.66003264E-08
   6.40000030E-02   1.89681106E-08
   7.10000023E-02   2.15974243E-08
   7.80000016E-02   2.45123744E-08
   8.50000009E-02   2.77388459E-08
   9.20000002E-02   3.13045874E-08
   9.89999995E-02   3.52392995E-08
  0.105999999       3.95747293E-08
  0.112999998       4.43447945E-08
  0.119999997       4.95857044E-08
  0.127000004       5.53361410E-08
  0.134000003       6.16373654E-08
  0.141000003       6.85333603E-08
  0.148000002       7.60709469E-08
  0.155000001       8.42998347E-08
  0.162000000       9.32727104E-08
  0.169000000       1.03045217E-07
  0.175999999       1.13676016E-07
  0.182999998       1.25226791E-07
  0.189999998       1.37762257E-07
  0.196999997       1.51350307E-07
  0.203999996       1.66061980E-07
  0.210999995       1.81971501E-07
  0.217999995       1.99156119E-07
  0.224999994       2.17696311E-07
  0.231999993       2.37675522E-07
  0.238999993       2.59180410E-07
  0.246000007       2.82300448E-07
  0.252999991       3.07128346E-07
  0.259999990       3.33759459E-07
  0.266999990       3.62292127E-07
  0.273999989       3.92827360E-07
  0.280999988       4.25468784E-07
  0.287999988       4.60322212E-07
  0.294999987       4.97495648E-07
  0.301999986       5.37098913E-07
  0.308999985       5.79243306E-07
  0.316000015       6.24041093E-07
  0.323000014       6.71605676E-07
  0.330000013       7.22050743E-07
  0.337000012       7.75490548E-07
  0.344000012       8.32039177E-07
  0.351000011       8.91809862E-07
  0.358000010       9.54914867E-07
  0.365000010       1.02146498E-06
  0.372000009       1.09156849E-06
  0.379000008       1.16533147E-06
  0.386000007       1.24285646E-06
  0.393000007       1.32424293E-06
  0.400000006       1.40958593E-06
  0.407000005       1.49897585E-06
  0.414000005       1.59249805E-06
  0.421000004       1.69023156E-06
  0.428000003       1.79224958E-06
  0.435000002       1.89861817E-06
  0.442000002       2.00939621E-06
  0.449000001       2.12463488E-06
  0.456000000       2.24437531E-06
  0.463000000       2.36865208E-06
  0.469999999       2.49748791E-06
  0.476999998       2.63089623E-06
  0.483999997       2.76887931E-06
  0.490999997       2.91142874E-06
  0.497999996       3.05852313E-06
  0.504999995       3.21013135E-06
  0.512000024       3.36620906E-06
  0.518999994       3.52670054E-06
  0.526000023       3.69153759E-06
  0.532999992       3.86063903E-06
  0.540000021       4.03391005E-06
  0.546999991       4.21124150E-06
  0.554000020       4.39251335E-06
  0.560999990       4.57759052E-06
  0.568000019       4.76632613E-06
  0.574999988       4.95856057E-06
  0.582000017       5.15412512E-06
  0.588999987       5.35283607E-06
  0.596000016       5.55450060E-06
  0.602999985       5.75891272E-06
  0.610000014       5.96585414E-06
  0.616999984       6.17509750E-06
  0.624000013       6.38640449E-06
  0.630999982       6.59952957E-06
  0.638000011       6.81421989E-06
  0.644999981       7.03021306E-06
  0.652000010       7.24724168E-06
  0.658999979       7.46503156E-06
  0.666000009       7.68330756E-06
  0.672999978       7.90178728E-06
  0.680000007       8.12018334E-06
  0.686999977       8.33821105E-06
  0.694000006       8.55557937E-06
  0.700999975       8.77200000E-06
  0.708000004       8.98718463E-06
  0.714999974       9.20085404E-06
  0.722000003       9.41272810E-06
  0.728999972       9.62253034E-06
  0.736000001       9.82999154E-06
  0.742999971       1.00348425E-05
  0.750000000       1.02368285E-05
  0.757000029       1.04356950E-05
  0.763999999       1.06312027E-05
  0.771000028       1.08231143E-05
  0.777999997       1.10112105E-05
  0.785000026       1.11952804E-05
  0.791999996       1.13751285E-05
  0.799000025       1.15505691E-05
  0.805999994       1.17214304E-05
  0.813000023       1.18875496E-05
  0.819999993       1.20487803E-05
  0.827000022       1.22049887E-05
  0.833999991       1.23560567E-05
  0.841000021       1.25018796E-05
  0.847999990       1.26423702E-05
  0.855000019       1.27774565E-05
  0.861999989       1.29070786E-05
  0.869000018       1.30311910E-05
  0.875999987       1.31497627E-05
  0.883000016       1.32627747E-05
  0.889999986       1.33702233E-05
  0.897000015       1.34721158E-05
  0.903999984       1.35684695E-05
  0.911000013       1.36593235E-05
  0.917999983       1.37447250E-05
  0.925000012       1.38247315E-05
  0.931999981       1.38994110E-05
  0.939000010       1.39688391E-05
  0.945999980       1.40331022E-05
  0.953000009       1.40922921E-05
  0.959999979       1.41465089E-05
  0.967000008       1.41958635E-05
  0.973999977       1.42404724E-05
  0.981000006       1.42804593E-05
  0.987999976       1.43159577E-05
  0.995000005       1.43470988E-05
   1.00199997       1.43740153E-05
   1.00899994       1.43968400E-05
   1.01600003       1.44157066E-05
   1.02300000       1.44307533E-05
   1.02999997       1.44421174E-05
   1.03699994       1.44499418E-05
   1.04400003       1.44543692E-05
   1.05100000       1.44555406E-05
   1.05799997       1.44535943E-05
   1.06500006       1.44486694E-05
   1.07200003       1.44408987E-05
   1.07900000       1.44304076E-05
   1.08599997       1.44173209E-05
   1.09300005       1.44017604E-05
   1.10000002       1.43838470E-05
   1.10699999       1.43637035E-05
   1.11399996       1.43414445E-05
   1.12100005       1.43171837E-05
   1.12800002       1.42910294E-05
   1.13499999       1.42630834E-05
   1.14199996       1.42334420E-05
   1.14900005       1.42021945E-05
   1.15600002       1.41694245E-05
   1.16299999       1.41352193E-05
   1.16999996       1.40996599E-05
   1.17700005       1.40628308E-05
   1.18400002       1.40248112E-05
   1.19099998       1.39856847E-05
   1.19799995       1.39455306E-05
   1.20500004       1.39044259E-05
   1.21200001       1.38624400E-05
   1.21899998       1.38196356E-05
   1.22599995       1.37760708E-05
   1.23300004       1.37318057E-05
   1.24000001       1.36869003E-05
   1.24699998       1.36414146E-05
   1.25399995       1.35954160E-05
   1.26100004       1.35489699E-05
   1.26800001       1.35021446E-05
   1.27499998       1.34550046E-05
   1.28199995       1.34076181E-05
   1.28900003       1.33600442E-05
   1.29600000       1.33123431E-05
   1.30299997       1.32645737E-05
   1.30999994       1.32167979E-05
   1.31700003       1.31690749E-05
   1.32400000       1.31214747E-05
   1.33099997       1.30740655E-05
   1.33800006       1.30269173E-05
   1.34500003       1.29801037E-05
   1.35200000       1.29336941E-05
   1.35899997       1.28877582E-05
   1.36600006       1.28423626E-05
   1.37300003       1.27975709E-05
   1.38000000       1.27534413E-05
   1.38699996       1.27100320E-05
   1.39400005       1.26674013E-05
   1.40100002       1.26256082E-05
   1.40799999       1.25847191E-05
   1.41499996       1.25447968E-05
   1.42200005       1.25058968E-05
   1.42900002       1.24680728E-05
   1.43599999       1.24313683E-05
   1.44299996       1.23958280E-05
   1.45000005       1.23614846E-05
   1.45700002       1.23283698E-05
   1.46399999       1.22965121E-05
   1.47099996       1.22659376E-05
   1.47800004       1.22366719E-05
   1.48500001       1.22087367E-05
   1.49199998       1.21821495E-05
   1.49899995       1.21569174E-05
   1.50600004       1.21330322E-05
   1.51300001       1.21104786E-05
   1.51999998       1.20892373E-05
   1.52699995       1.20692785E-05
   1.53400004       1.20505729E-05
   1.54100001       1.20330897E-05
   1.54799998       1.20167924E-05
   1.55499995       1.20016430E-05
   1.56200004       1.19875913E-05
   1.56900001       1.19745855E-05
   1.57599998       1.19625620E-05
   1.58299994       1.19514443E-05
   1.59000003       1.19411516E-05
   1.59700000       1.19316010E-05
   1.60399997       1.19227097E-05
   1.61099994       1.19143961E-05
   1.61800003       1.19065771E-05
   1.62500000       1.18991693E-05
   1.63199997       1.18920789E-05
   1.63900006       1.18852131E-05
   1.64600003       1.18784683E-05
   1.65300000       1.18717435E-05
   1.65999997       1.18649341E-05
   1.66700006       1.18579355E-05
   1.67400002       1.18506468E-05
   1.68099999       1.18429725E-05
   1.68799996       1.18348271E-05
   1.69500005       1.18261241E-05
   1.70200002       1.18167791E-05
   1.70899999       1.18067001E-05
   1.71599996       1.17958034E-05
   1.72300005       1.17840036E-05
   1.73000002       1.17712270E-05
   1.73699999       1.17574064E-05
   1.74399996       1.17424834E-05
   1.75100005       1.17264044E-05
   1.75800002       1.17091249E-05
   1.76499999       1.16906022E-05
   1.77199996       1.16707952E-05
   1.77900004       1.16496640E-05
   1.78600001       1.16271749E-05
   1.79299998       1.16032979E-05
   1.79999995       1.15780176E-05
   1.80700004       1.15513267E-05
   1.81400001       1.15232342E-05
   1.82099998       1.14937593E-05
   1.82799995       1.14629192E-05
   1.83500004       1.14307359E-05
   1.84200001       1.13972310E-05
   1.84899998       1.13624219E-05
   1.85599995       1.13263386E-05
   1.86300004       1.12890202E-05
   1.87000000       1.12505068E-05
   1.87699997       1.12108501E-05
   1.88399994       1.11701120E-05
   1.89100003       1.11283553E-05
   1.89800000       1.10856463E-05
   1.90499997       1.10420515E-05
   1.91199994       1.09976281E-05
   1.91900003       1.09524326E-05
   1.92600000       1.09065249E-05
   1.93299997       1.08599688E-05
   1.94000006       1.08128315E-05
   1.94700003       1.07651886E-05
   1.95400000       1.07171172E-05
   1.96099997       1.06686921E-05
   1.96800005       1.06199923E-05
   1.97500002       1.05710842E-05
   1.98199999       1.05220352E-05
   1.98899996       1.04729061E-05
   1.99600005       1.04237524E-05
   2.00300002       1.03746288E-05
   2.00999999       1.03255961E-05
   2.01699996       1.02767135E-05
   2.02399993       1.02280455E-05
   2.03099990       1.01796541E-05
   2.03800011       1.01315918E-05
   2.04500008       1.00839052E-05
   2.05200005       1.00366333E-05
   2.05900002       9.98980886E-06
   2.06599998       9.94346010E-06
   2.07299995       9.89761884E-06
   2.07999992       9.85230963E-06
   2.08699989       9.80755976E-06
   2.09400010       9.76339561E-06
   2.10100007       9.71984082E-06
   2.10800004       9.67692176E-06
   2.11500001       9.63465118E-06
   2.12199998       9.59303725E-06
   2.12899995       9.55208725E-06
   2.13599992       9.51180391E-06
   2.14299989       9.47219451E-06
   2.15000010       9.43326449E-06
   2.15700006       9.39501751E-06
   2.16400003       9.35745902E-06
   2.17100000       9.32058902E-06
   2.17799997       9.28440568E-06
   2.18499994       9.24889991E-06
   2.19199991       9.21406627E-06
   2.19899988       9.17988837E-06
   2.20600009       9.14635439E-06
   2.21300006       9.11345251E-06
   2.22000003       9.08117909E-06
   2.22700000       9.04953231E-06
   2.23399997       9.01851035E-06
   2.24099994       8.98811049E-06
   2.24799991       8.95832363E-06
   2.25500011       8.92913795E-06
   2.26200008       8.90053980E-06
   2.26900005       8.87251826E-06
   2.27600002       8.84506608E-06
   2.28299999       8.81817869E-06
   2.28999996       8.79185791E-06
   2.29699993       8.76610920E-06
   2.30399990       8.74094076E-06
   2.31100011       8.71635530E-06
   2.31800008       8.69235555E-06
   2.32500005       8.66893879E-06
   2.33200002       8.64610229E-06
   2.33899999       8.62384695E-06
   2.34599996       8.60217551E-06
   2.35299993       8.58110343E-06
   2.35999990       8.56064707E-06
   2.36700010       8.54083009E-06
   2.37400007       8.52167796E-06
   2.38100004       8.50321157E-06
   2.38800001       8.48545278E-06
   2.39499998       8.46841431E-06
   2.40199995       8.45211343E-06
   2.40899992       8.43656017E-06
   2.41599989       8.42177451E-06
   2.42300010       8.40778375E-06
   2.43000007       8.39462427E-06
   2.43700004       8.38233973E-06
   2.44400001       8.37097014E-06
   2.45099998       8.36055278E-06
   2.45799994       8.35111859E-06
   2.46499991       8.34269304E-06
   2.47199988       8.33529975E-06
   2.47900009       8.32895785E-06
   2.48600006       8.32369460E-06
   2.49300003       8.31953912E-06
   2.50000000       8.31653142E-06
   2.50699997       8.31471061E-06
   2.51399994       8.31411671E-06
   2.52099991       8.31478155E-06
   2.52800012       8.31672969E-06
   2.53500009       8.31997113E-06
   2.54200006       8.32451042E-06
   2.54900002       8.33035210E-06
   2.55599999       8.33749527E-06
   2.56299996       8.34594539E-06
   2.56999993       8.35570881E-06
   2.57699990       8.36679556E-06
   2.58400011       8.37921380E-06
   2.59100008       8.39296263E-06
   2.59800005       8.40803023E-06
   2.60500002       8.42439113E-06
   2.61199999       8.44200804E-06
   2.61899996       8.46083367E-06
   2.62599993       8.48081891E-06
   2.63299990       8.50191736E-06
   2.64000010       8.52408357E-06
   2.64700007       8.54727114E-06
   2.65400004       8.57142641E-06
   2.66100001       8.59649117E-06
   2.66799998       8.62239358E-06
   2.67499995       8.64904541E-06
   2.68199992       8.67634571E-06
   2.68899989       8.70418626E-06
   2.69600010       8.73245790E-06
   2.70300007       8.76105059E-06
   2.71000004       8.78986157E-06
   2.71700001       8.81879259E-06
   2.72399998       8.84774090E-06
   2.73099995       8.87659735E-06
   2.73799992       8.90524188E-06
   2.74499989       8.93354445E-06
   2.75200009       8.96136771E-06
   2.75900006       8.98856979E-06
   2.76600003       9.01500880E-06
   2.77300000       9.04054650E-06
   2.77999997       9.06505556E-06
   2.78699994       9.08841412E-06
   2.79399991       9.11050574E-06
   2.80100012       9.13121221E-06
   2.80800009       9.15041164E-06
   2.81500006       9.16797762E-06
   2.82200003       9.18377918E-06
   2.82900000       9.19768809E-06
   2.83599997       9.20958246E-06
   2.84299994       9.21935953E-06
   2.84999990       9.22692288E-06
   2.85700011       9.23219432E-06
   2.86400008       9.23510743E-06
   2.87100005       9.23560401E-06
   2.87800002       9.23362677E-06
   2.88499999       9.22912477E-06
   2.89199996       9.22204254E-06
   2.89899993       9.21234096E-06
   2.90599990       9.19998456E-06
   2.91300011       9.18495789E-06
   2.92000008       9.16726549E-06
   2.92700005       9.14692191E-06
   2.93400002       9.12395808E-06
   2.94099998       9.09841401E-06
   2.94799995       9.07033427E-06
   2.95499992       9.03977434E-06
   2.96199989       9.00679152E-06
   2.96900010       8.97145037E-06
   2.97600007       8.93382912E-06
   2.98300004       8.89401417E-06
   2.99000001       8.85211739E-06
   2.99699998       8.80825883E-06
   3.00399995       8.76257491E-06
   3.01099992       8.71520751E-06
   3.01799989       8.66630035E-06
   3.02500010       8.61600165E-06
   3.03200006       8.56446331E-06
   3.03900003       8.51183904E-06
   3.04600000       8.45828345E-06
   3.05299997       8.40396297E-06
   3.05999994       8.34904768E-06
   3.06699991       8.29371493E-06
   3.07399988       8.23814753E-06
   3.08100009       8.18253102E-06
   3.08800006       8.12704548E-06
   3.09500003       8.07187371E-06
   3.10200000       8.01719125E-06
   3.10899997       7.96316908E-06
   3.11599994       7.90998183E-06
   3.12299991       7.85779594E-06
   3.13000011       7.80677419E-06
   3.13700008       7.75707576E-06
   3.14400005       7.70885435E-06
   3.15100002       7.66225912E-06
   3.15799999       7.61743559E-06
   3.16499996       7.57451926E-06
   3.17199993       7.53363793E-06
   3.17899990       7.49490846E-06
   3.18600011       7.45843727E-06
   3.19300008       7.42432303E-06
   3.20000005       7.39265670E-06
   3.20700002       7.36351740E-06
   3.21399999       7.33697289E-06
   3.22099996       7.31308182E-06
   3.22799993       7.29189151E-06
   3.23499990       7.27344332E-06
   3.24200010       7.25776817E-06
   3.24900007       7.24488791E-06
   3.25600004       7.23480889E-06
   3.26300001       7.22752611E-06
   3.26999998       7.22302866E-06
   3.27699995       7.22129289E-06
   3.28399992       7.22228788E-06
   3.29099989       7.22597133E-06
   3.29800010       7.23229050E-06
   3.30500007       7.24118263E-06
   3.31200004       7.25257814E-06
   3.31900001       7.26640246E-06
   3.32599998       7.28257601E-06
   3.33299994       7.30100783E-06
   3.33999991       7.32160333E-06
   3.34699988       7.34426158E-06
   3.35400009       7.36887660E-06
   3.36100006       7.39534289E-06
   3.36800003       7.42354678E-06
   3.37500000       7.45337002E-06
   3.38199997       7.48468938E-06
   3.38899994       7.51737662E-06
   3.39599991       7.55130441E-06
   3.40300012       7.58634860E-06
   3.41000009       7.62238687E-06
   3.41700006       7.65929781E-06
   3.42400002       7.69695816E-06
   3.43099999       7.73524607E-06
   3.43799996       7.77404239E-06
   3.44499993       7.81322797E-06
   3.45199990       7.85268367E-06
   3.45900011       7.89229216E-06
   3.46600008       7.93193976E-06
   3.47300005       7.97151824E-06
   3.48000002       8.01093302E-06
   3.48699999       8.05009404E-06
   3.49399996       8.08892401E-06
   3.50099993       8.12734288E-06
   3.50799990       8.16527245E-06
   3.51500010       8.20264268E-06
   3.52200007       8.23937989E-06
   3.52900004       8.27542135E-06
   3.53600001       8.31071065E-06
   3.54299998       8.34519869E-06
   3.54999995       8.37885000E-06
   3.55699992       8.41164092E-06
   3.56399989       8.44355964E-06
   3.57100010       8.47460251E-06
   3.57800007       8.50476954E-06
   3.58500004       8.53405800E-06
   3.59200001       8.56246334E-06
   3.59899998       8.58998828E-06
   3.60599995       8.61663648E-06
   3.61299992       8.64242611E-06
   3.61999989       8.66738355E-06
   3.62700009       8.69154064E-06
   3.63400006       8.71494194E-06
   3.64100003       8.73763838E-06
   3.64800000       8.75968908E-06
   3.65499997       8.78114406E-06
   3.66199994       8.80205243E-06
   3.66899991       8.82245422E-06
   3.67600012       8.84238671E-06
   3.68300009       8.86189173E-06
   3.69000006       8.88101295E-06
   3.69700003       8.89980583E-06
   3.70400000       8.91832497E-06
   3.71099997       8.93662764E-06
   3.71799994       8.95477115E-06
   3.72499990       8.97281370E-06
   3.73200011       8.99079896E-06
   3.73900008       9.00876421E-06
   3.74600005       9.02673310E-06
   3.75300002       9.04472108E-06
   3.75999999       9.06274181E-06
   3.76699996       9.08081165E-06
   3.77399993       9.09894516E-06
   3.78099990       9.11715415E-06
   3.78800011       9.13544591E-06
   3.79500008       9.15381588E-06
   3.80200005       9.17225225E-06
   3.80900002       9.19072772E-06
   3.81599998       9.20920502E-06
   3.82299995       9.22763047E-06
   3.82999992       9.24594951E-06
   3.83699989       9.26409575E-06
   3.84400010       9.28200370E-06
   3.85100007       9.29961152E-06
   3.85800004       9.31684826E-06
   3.86500001       9.33363754E-06
   3.87199998       9.34988930E-06
   3.87899995       9.36550259E-06
   3.88599992       9.38037101E-06
   3.89299989       9.39437996E-06
   3.90000010       9.40741302E-06
   3.90700006       9.41934923E-06
   3.91400003       9.43006580E-06
   3.92100000       9.43943905E-06
   3.92799997       9.44734347E-06
   3.93499994       9.45365173E-06
   3.94199991       9.45823285E-06
   3.94899988       9.46094860E-06
   3.95600009       9.46166256E-06
   3.96300006       9.46023738E-06
   3.97000003       9.45653755E-06
   3.97700000       9.45044030E-06
   3.98399997       9.44182284E-06
   3.99099994       9.43056602E-06
   3.99799991       9.41655526E-06
   4.00500011       9.39967958E-06
   4.01200008       9.37983077E-06
   4.01900005       9.35690969E-06
   4.02600002       9.33082811E-06
   4.03299999       9.30150418E-06
   4.03999996       9.26886878E-06
   4.04699993       9.23286370E-06
   4.05399990       9.19344529E-06
   4.06099987       9.15057171E-06
   4.06799984       9.10421477E-06
   4.07499981       9.05434263E-06
   4.08199978       9.00093164E-06
   4.08900023       8.94397635E-06
   4.09600019       8.88348404E-06
   4.10300016       8.81948199E-06
   4.11000013       8.75201113E-06
   4.11700010       8.68112602E-06
   4.12400007       8.60689488E-06
   4.13100004       8.52939411E-06
   4.13800001       8.44870647E-06
   4.14499998       8.36492745E-06
   4.15199995       8.27815256E-06
   4.15899992       8.18849367E-06
   4.16599989       8.09607536E-06
   4.17299986       8.00104408E-06
   4.17999983       7.90355898E-06
   4.18699980       7.80379651E-06
   4.19399977       7.70193674E-06
   4.20100021       7.59816294E-06
   4.20800018       7.49266155E-06
   4.21500015       7.38562039E-06
   4.22200012       7.27723000E-06
   4.22900009       7.16768636E-06
   4.23600006       7.05719231E-06
   4.24300003       6.94595929E-06
   4.25000000       6.83421149E-06
   4.25699997       6.72218312E-06
   4.26399994       6.61011381E-06
   4.27099991       6.49824278E-06
   4.27799988       6.38680558E-06
   4.28499985       6.27603367E-06
   4.29199982       6.16615398E-06
   4.29899979       6.05739342E-06
   4.30600023       5.94997664E-06
   4.31300020       5.84413010E-06
   4.32000017       5.74007981E-06
   4.32700014       5.63805270E-06
   4.33400011       5.53827249E-06
   4.34100008       5.44095974E-06
   4.34800005       5.34632591E-06
   4.35500002       5.25456926E-06
   4.36199999       5.16588170E-06
   4.36899996       5.08044377E-06
   4.37599993       4.99843327E-06
   4.38299990       4.92001936E-06
   4.38999987       4.84536849E-06
   4.39699984       4.77463573E-06
   4.40399981       4.70797022E-06
   4.41099977       4.64550703E-06
   4.41800022       4.58737031E-06
   4.42500019       4.53367193E-06
   4.43200016       4.48451101E-06
   4.43900013       4.43997214E-06
   4.44600010       4.40013218E-06
   4.45300007       4.36505479E-06
   4.46000004       4.33479499E-06
   4.46700001       4.30939735E-06
   4.47399998       4.28889280E-06
   4.48099995       4.27329542E-06
   4.48799992       4.26260431E-06
   4.49499989       4.25680582E-06
   4.50199986       4.25587359E-06
   4.50899982       4.25977214E-06
   4.51599979       4.26845691E-06
   4.52299976       4.28187195E-06
   4.53000021       4.29995043E-06
   4.53700018       4.32261140E-06
   4.54400015       4.34975937E-06
   4.55100012       4.38128427E-06
   4.55800009       4.41705834E-06
   4.56500006       4.45694059E-06
   4.57200003       4.50078051E-06
   4.57900000       4.54842484E-06
   4.58599997       4.59971989E-06
   4.59299994       4.65450785E-06
   4.59999990       4.71262501E-06
   4.60699987       4.77390176E-06
   4.61399984       4.83815484E-06
   4.62099981       4.90518960E-06
   4.62799978       4.97479732E-06
   4.63500023       5.04676018E-06
   4.64200020       5.12085353E-06
   4.64900017       5.19685318E-06
   4.65600014       5.27453949E-06
   4.66300011       5.35370009E-06
   4.67000008       5.43412625E-06
   4.67700005       5.51560788E-06
   4.68400002       5.59792943E-06
   4.69099998       5.68086489E-06
   4.69799995       5.76418415E-06
   4.70499992       5.84765166E-06
   4.71199989       5.93103914E-06
   4.71899986       6.01412785E-06
   4.72599983       6.09671588E-06
   4.73299980       6.17861497E-06
   4.73999977       6.25965367E-06
   4.74700022       6.33966920E-06
   4.75400019       6.41850238E-06
   4.76100016       6.49598906E-06
   4.76800013       6.57196188E-06
   4.77500010       6.64625395E-06
   4.78200006       6.71870339E-06
   4.78900003       6.78916103E-06
   4.79600000       6.85749819E-06
   4.80299997       6.92360618E-06
   4.80999994       6.98739586E-06
   4.81699991       7.04879812E-06
   4.82399988       7.10775248E-06
   4.83099985       7.16420755E-06
   4.83799982       7.21811011E-06
   4.84499979       7.26941016E-06
   4.85200024       7.31806222E-06
   4.85900021       7.36403445E-06
   4.86600018       7.40731230E-06
   4.87300014       7.44790304E-06
   4.88000011       7.48583398E-06
   4.88700008       7.52115056E-06
   4.89400005       7.55391102E-06
   4.90100002       7.58418128E-06
   4.90799999       7.61202818E-06
   4.91499996       7.63751450E-06
   4.92199993       7.66070571E-06
   4.92899990       7.68166501E-06
   4.93599987       7.70046699E-06
   4.94299984       7.71719351E-06
   4.94999981       7.73194915E-06
   4.95699978       7.74484670E-06
   4.96400023       7.75601347E-06
   4.97100019       7.76557772E-06
   4.97800016       7.77367131E-06
   4.98500013       7.78041795E-06
   4.99200010       7.78593221E-06