  -1.00000000       2.30130120E-27
 -0.992999971       4.48238556E-25
 -0.986000001       1.88422307E-24
 -0.978999972      -7.44994496E-23
 -0.972000003      -9.54718292E-22
 -0.964999974      -5.95880880E-21
 -0.958000004      -2.52068251E-20
 -0.950999975      -8.19117088E-20
 -0.944000006      -2.18724597E-19
 -0.936999977      -5.00175333E-19
 -0.930000007      -1.00582195E-18
 -0.922999978      -1.80835082E-18
 -0.916000009      -2.93316095E-18
 -0.908999979      -4.30338025E-18
 -0.902000010      -5.68699037E-18
 -0.894999981      -6.67492444E-18
 -0.888000011      -6.71907479E-18
 -0.880999982      -5.23758315E-18
 -0.874000013      -1.75443540E-18
 -0.866999984       3.99871433E-18
 -0.860000014       1.20999566E-17
 -0.852999985       2.26155696E-17
 -0.846000016       3.58987155E-17
 -0.838999987       5.28764354E-17
 -0.832000017       7.51423508E-17
 -0.824999988       1.04704701E-16
 -0.818000019       1.43365554E-16
 -0.810999990       1.91893342E-16
 -0.804000020       2.49318351E-16
 -0.796999991       3.12726999E-16
 -0.790000021       3.77778786E-16
 -0.782999992       4.39826517E-16
 -0.776000023       4.95110769E-16
 -0.768999994       5.41244207E-16
 -0.762000024       5.76309359E-16
 -0.754999995       5.96452332E-16
 -0.748000026       5.92703787E-16
 -0.740999997       5.48540125E-16
 -0.734000027       4.39978877E-16
 -0.726999998       2.39476437E-16
 -0.720000029      -7.63947750E-17
 -0.713000000      -5.17177512E-16
 -0.705999970      -1.06969779E-15
 -0.699000001      -1.69353258E-15
 -0.691999972      -2.32307786E-15
 -0.685000002      -2.87625157E-15
 -0.677999973      -3.26721911E-15
 -0.671000004      -3.41868448E-15
 -0.663999975      -3.26931551E-15
 -0.657000005      -2.77412502E-15
 -0.649999976      -1.89940066E-15
 -0.643000007      -6.17392839E-16
 -0.635999978       1.09247811E-15
 -0.629000008       3.23106689E-15
 -0.621999979       5.75599249E-15
 -0.615000010       8.55436700E-15
 -0.607999980       1.14242908E-14
 -0.601000011       1.40785431E-14
 -0.593999982       1.61786918E-14
 -0.587000012       1.73973232E-14
 -0.579999983       1.74936427E-14
 -0.573000014       1.63782951E-14
 -0.565999985       1.41417775E-14
 -0.559000015       1.10293922E-14
 -0.551999986       7.36327943E-15
 -0.545000017       3.43236025E-15
 -0.537999988      -6.12959575E-16
 -0.531000018      -4.82055979E-15
 -0.523999989      -9.42108330E-15
 -0.517000020      -1.47311430E-14
 -0.509999990      -2.09980281E-14
 -0.503000021      -2.82318995E-14
 -0.495999992      -3.60798834E-14
 -0.488999993      -4.37859926E-14
 -0.481999993      -5.02544512E-14
 -0.474999994      -5.42010013E-14
 -0.467999995      -5.43501571E-14
 -0.460999995      -4.96262645E-14
 -0.453999996      -3.92969823E-14
 -0.446999997      -2.30544835E-14
 -0.439999998      -1.05011513E-15
 -0.432999998       2.60821180E-14
 -0.425999999       5.71800569E-14
 -0.419000000       9.04781079E-14
 -0.412000000       1.23533603E-13
 -0.405000001       1.53221945E-13
 -0.398000002       1.75880103E-13
 -0.391000003       1.87656368E-13
 -0.384000003       1.85067768E-13
 -0.377000004       1.65690527E-13
 -0.370000005       1.28839580E-13
 -0.363000005       7.60561725E-14
 -0.356000006       1.12378385E-14
 -0.349000007      -5.96848146E-14
 -0.342000008      -1.29512232E-13
 -0.335000008      -1.90853233E-13
 -0.328000009      -2.37299682E-13
 -0.321000010      -2.64451330E-13
 -0.314000010      -2.70577424E-13
 -0.307000011      -2.56791604E-13
 -0.300000012      -2.26734349E-13
 -0.293000013      -1.85866147E-13
 -0.286000013      -1.40546280E-13
 -0.279000014      -9.70872823E-14
 -0.272000015      -6.09392568E-14
 -0.264999986      -3.60907932E-14
 -0.257999986      -2.47019490E-14
 -0.250999987      -2.69387208E-14
 -0.244000003      -4.09679005E-14
 -0.237000003      -6.30967514E-14
 -0.230000004      -8.80805642E-14
 -0.223000005      -1.09648998E-13
 -0.216000006      -1.21293790E-13
 -0.209000006      -1.17308059E-13
 -0.202000007      -9.39793829E-14
 -0.194999993      -5.07406684E-14
 -0.187999994       8.98758539E-15
 -0.180999994       7.75415905E-14
 -0.173999995       1.43554060E-13
 -0.166999996       1.93353322E-13
 -0.159999996       2.13089149E-13
 -0.152999997       1.91253588E-13
 -0.145999998       1.21117255E-13
 -0.138999999       2.55093416E-15
 -0.131999999      -1.57220916E-13
 -0.125000000      -3.44195565E-13
 -0.118000001      -5.39480570E-13
 -0.111000001      -7.22189019E-13
 -0.104000002      -8.72798849E-13
  -9.70000029E-02  -9.76318852E-13
  -9.00000036E-02  -1.02464272E-12
  -8.29999968E-02  -1.01766295E-12
  -7.59999976E-02  -9.63000838E-13
  -6.89999983E-02  -8.74528423E-13
  -6.19999990E-02  -7.70095359E-13
  -5.49999997E-02  -6.68992585E-13
  -4.80000004E-02  -5.89630558E-13
  -4.10000011E-02  -5.47728096E-13
  -3.40000018E-02  -5.55061693E-13
  -2.70000007E-02  -6.18614751E-13
  -1.99999996E-02  -7.39880921E-13
  -1.30000003E-02  -9.14151242E-13
  -6.00000005E-03  -1.12983266E-12
   1.00000005E-03  -1.36811374E-12
   8.00000038E-03  -1.60349240E-12
   1.49999997E-02  -1.80568321E-12
   2.19999999E-02  -1.94317631E-12
   2.89999992E-02  -1.98823965E-12
   3.59999985E-02  -1.92259013E-12
   4.30000015E-02  -1.74248257E-12
   5.00000007E-02  -1.46178653E-12
   5.70000000E-02  -1.11187166E-12
   6.40000030E-02  -7.37803319E-13
   7.10000023E-02  -3.91301737E-13
   7.80000016E-02  -1.21873526E-13
   8.50000009E-02   3.18293467E-14
   9.20000002E-02   4.82834597E-14
   9.89999995E-02  -7.45772733E-14
  0.105999999      -3.21469901E-13
  0.112999998      -6.65511700E-13
  0.119999997      -1.07573271E-12
  0.127000004      -1.52398927E-12
  0.134000003      -1.98921023E-12
  0.141000003      -2.45794661E-12
  0.148000002      -2.92159786E-12
  0.155000001      -3.37199713E-12
  0.162000000      -3.79770044E-12
  0.169000000      -4.18312173E-12
  0.175999999      -4.51150011E-12
  0.182999998      -4.77105465E-12
  0.189999998      -4.96209584E-12
  0.196999997      -5.10202297E-12
  0.203999996      -5.22540214E-12
  0.210999995      -5.37781061E-12
  0.217999995      -5.60431996E-12
  0.224999994      -5.93567903E-12
  0.231999993      -6.37659977E-12
  0.238999993      -6.90038434E-12
  0.246000007      -7.45244144E-12
  0.252999991      -7.96237382E-12
  0.259999990      -8.36126307E-12
  0.266999990      -8.59871549E-12
  0.273999989      -8.65376347E-12
  0.280999988      -8.53552905E-12
  0.287999988      -8.27285289E-12
  0.294999987      -7.89593651E-12
  0.301999986      -7.41613021E-12
  0.308999985      -6.81104088E-12
  0.316000015      -6.02060719E-12
  0.323000014      -4.95618043E-12
  0.330000013      -3.51996817E-12
  0.337000012      -1.62823270E-12
  0.344000012       7.70273819E-13
  0.351000011       3.68798872E-12
  0.358000010       7.10774061E-12
  0.365000010       1.10054830E-11
  0.372000009       1.53796212E-11
  0.379000008       2.02771393E-11
  0.386000007       2.58075766E-11
  0.393000007       3.21396312E-11
  0.400000006       3.94817998E-11
  0.407000005       4.80542169E-11
  0.414000005       5.80629329E-11
  0.421000004       6.96877001E-11
  0.428000003       8.30903055E-11
  0.435000002       9.84429135E-11
  0.442000002       1.15968873E-10
  0.449000001       1.35982808E-10
  0.456000000       1.58916380E-10
  0.463000000       1.85320204E-10
  0.469999999       2.15840484E-10
  0.476999998       2.51178134E-10
  0.483999997       2.92045416E-10
  0.490999997       3.39137385E-10
  0.497999996       3.93131916E-10
  0.504999995       4.54722149E-10
  0.512000024       5.24675858E-10
  0.518999994       6.03905814E-10
  0.526000023       6.93531010E-10
  0.532999992       7.94911081E-10
  0.540000021       9.09645748E-10
  0.546999991       1.03954334E-09
  0.554000020       1.18657484E-09
  0.560999990       1.35283285E-09
  0.568000019       1.54051916E-09
  0.574999988       1.75197179E-09
  0.582000017       1.98972949E-09
  0.588999987       2.25661778E-09
  0.596000016       2.55583288E-09
  0.602999985       2.89099988E-09
  0.610000014       3.26618665E-09
  0.616999984       3.68587982E-09
  0.624000013       4.15493195E-09
  0.630999982       4.67850914E-09
  0.638000011       5.26206945E-09
  0.644999981       5.91139404E-09
  0.652000010       6.63267441E-09
  0.658999979       7.43262873E-09
  0.666000009       8.31864266E-09
  0.672999978       9.29887189E-09
  0.680000007       1.03823083E-08
  0.686999977       1.15787664E-08
  0.694000006       1.28988411E-08
  0.700999975       1.43538337E-08
  0.708000004       1.59556990E-08
  0.714999974       1.77170474E-08
  0.722000003       1.96512122E-08
  0.728999972       2.17723688E-08
  0.736000001       2.40956908E-08
  0.742999971       2.66374922E-08
  0.750000000       2.94153057E-08
  0.757000029       3.24479075E-08
  0.763999999       3.57552565E-08
  0.771000028       3.93584116E-08
  0.777999997       4.32794423E-08
  0.785000026       4.75413664E-08
  0.791999996       5.21681933E-08
  0.799000025       5.71850372E-08
  0.805999994       6.26182484E-08
  0.813000023       6.84955594E-08
  0.819999993       7.48461915E-08
  0.827000022       8.17008896E-08
  0.833999991       8.90918059E-08
  0.841000021       9.70523786E-08
  0.847999990       1.05617175E-07
  0.855000019       1.14821738E-07
  0.861999989       1.24702495E-07
  0.869000018       1.35296801E-07
  0.875999987       1.46642989E-07
  0.883000016       1.58780537E-07
  0.889999986       1.71749988E-07
  0.897000015       1.85593123E-07
  0.903999984       2.00352630E-07
  0.911000013       2.16072081E-07
  0.917999983       2.32795557E-07
  0.925000012       2.50567382E-07
  0.931999981       2.69431951E-07
  0.939000010       2.89433387E-07
  0.945999980       3.10615889E-07
  0.953000009       3.33023280E-07
  0.959999979       3.56699218E-07
  0.967000008       3.81687244E-07
  0.973999977       4.08030417E-07
  0.981000006       4.35771142E-07
  0.987999976       4.64950801E-07
  0.995000005       4.95609470E-07
   1.00199997       5.27785346E-07
   1.00899994       5.61514526E-07
   1.01600003       5.96831057E-07
   1.02300000       6.33766547E-07
   1.02999997       6.72350041E-07
   1.03699994       7.12608596E-07
   1.04400003       7.54566429E-07
   1.05100000       7.98244798E-07
   1.05799997       8.43662065E-07
   1.06500006       8.90832837E-07
   1.07200003       9.39767517E-07
   1.07900000       9.90472131E-07
   1.08599997       1.04294816E-06
   1.09300005       1.09719224E-06
   1.10000002       1.15319631E-06
   1.10699999       1.21094786E-06
   1.11399996       1.27042938E-06
   1.12100005       1.33161905E-06
   1.12800002       1.39448980E-06
   1.13499999       1.45900992E-06
   1.14199996       1.52514178E-06
   1.14900005       1.59284230E-06
   1.15600002       1.66206223E-06
   1.16299999       1.73274680E-06
   1.16999996       1.80483528E-06
   1.17700005       1.87826163E-06
   1.18400002       1.95295479E-06
   1.19099998       2.02883916E-06
   1.19799995       2.10583357E-06
   1.20500004       2.18385321E-06
   1.21200001       2.26280736E-06
   1.21899998       2.34260142E-06
   1.22599995       2.42313536E-06
   1.23300004       2.50430548E-06
   1.24000001       2.58600244E-06
   1.24699998       2.66811503E-06
   1.25399995       2.75052753E-06
   1.26100004       2.83312238E-06
   1.26800001       2.91577976E-06
   1.27499998       2.99837802E-06
   1.28199995       3.08079484E-06
   1.28900003       3.16290561E-06
   1.29600000       3.24458438E-06
   1.30299997       3.32570585E-06
   1.30999994       3.40614201E-06
   1.31700003       3.48576691E-06
   1.32400000       3.56445321E-06
   1.33099997       3.64207699E-06
   1.33800006       3.71851547E-06
   1.34500003       3.79364883E-06
   1.35200000       3.86735974E-06
   1.35899997       3.93953451E-06
   1.36600006       4.01006309E-06
   1.37300003       4.07883726E-06
   1.38000000       4.14575470E-06
   1.38699996       4.21071672E-06
   1.39400005       4.27362693E-06
   1.40100002       4.33439709E-06
   1.40799999       4.39294308E-06
   1.41499996       4.44918760E-06
   1.42200005       4.50306061E-06
   1.42900002       4.55449845E-06
   1.43599999       4.60344245E-06
   1.44299996       4.64984169E-06
   1.45000005       4.69365295E-06
   1.45700002       4.73483487E-06
   1.46399999       4.77335607E-06
   1.47099996       4.80919107E-06
   1.47800004       4.84231987E-06
   1.48500001       4.87273246E-06
   1.49199998       4.90042294E-06
   1.49899995       4.92539584E-06
   1.50600004       4.94766118E-06
   1.51300001       4.96723624E-06
   1.51999998       4.98414374E-06
   1.52699995       4.99841235E-06
   1.53400004       5.01007753E-06
   1.54100001       5.01917975E-06
   1.54799998       5.02576495E-06
   1.55499995       5.02988496E-06
   1.56200004       5.03159845E-06
   1.56900001       5.03096771E-06
   1.57599998       5.02806188E-06
   1.58299994       5.02295234E-06
   1.59000003       5.01571640E-06
   1.59700000       5.00643318E-06
   1.60399997       4.99518455E-06
   1.61099994       4.98205509E-06
   1.61800003       4.96713346E-06
   1.62500000       4.95050881E-06
   1.63199997       4.93227435E-06
   1.63900006       4.91252558E-06
   1.64600003       4.89135846E-06
   1.65300000       4.86887257E-06
   1.65999997       4.84516704E-06
   1.66700006       4.82034193E-06
   1.67400002       4.79449682E-06
   1.68099999       4.76773221E-06
   1.68799996       4.74014632E-06
   1.69500005       4.71183603E-06
   1.70200002       4.68289863E-06
   1.70899999       4.65343146E-06
   1.71599996       4.62352864E-06
   1.72300005       4.59328385E-06
   1.73000002       4.56278849E-06
   1.73699999       4.53213124E-06
   1.74399996       4.50139532E-06
   1.75100005       4.47066259E-06
   1.75800002       4.44001125E-06
   1.76499999       4.40951499E-06
   1.77199996       4.37924245E-06
   1.77900004       4.34926187E-06
   1.78600001       4.31963463E-06
   1.79299998       4.29041938E-06
   1.79999995       4.26166889E-06
   1.80700004       4.23343181E-06
   1.81400001       4.20575043E-06
   1.82099998       4.17866249E-06
   1.82799995       4.15219847E-06
   1.83500004       4.12638292E-06
   1.84200001       4.10123539E-06
   1.84899998       4.07676771E-06
   1.85599995       4.05298761E-06
   1.86300004       4.02989690E-06
   1.87000000       4.00748877E-06
   1.87699997       3.98575185E-06
   1.88399994       3.96466748E-06
   1.89100003       3.94421113E-06
   1.89800000       3.92435231E-06
   1.90499997       3.90505147E-06
   1.91199994       3.88626495E-06
   1.91900003       3.86794227E-06
   1.92600000       3.85002750E-06
   1.93299997       3.83245833E-06
   1.94000006       3.81516656E-06
   1.94700003       3.79807830E-06
   1.95400000       3.78111531E-06
   1.96099997       3.76419507E-06
   1.96800005       3.74723027E-06
   1.97500002       3.73013063E-06
   1.98199999       3.71280339E-06
   1.98899996       3.69515055E-06
   1.99600005       3.67707480E-06
   2.00300002       3.65847518E-06
   2.00999999       3.63924983E-06
   2.01699996       3.61929597E-06
   2.02399993       3.59851151E-06
   2.03099990       3.57679414E-06
   2.03800011       3.55404472E-06
   2.04500008       3.53016480E-06
   2.05200005       3.50505934E-06
   2.05900002       3.47863602E-06
   2.06599998       3.45080662E-06
   2.07299995       3.42148633E-06
   2.07999992       3.39059648E-06
   2.08699989       3.35806362E-06
   2.09400010       3.32382228E-06
   2.10100007       3.28781357E-06
   2.10800004       3.24998769E-06
   2.11500001       3.21030416E-06
   2.12199998       3.16873138E-06
   2.12899995       3.12524730E-06
   2.13599992       3.07984010E-06
   2.14299989       3.03250818E-06
   2.15000010       2.98326108E-06
   2.15700006       2.93211747E-06
   2.16400003       2.87910802E-06
   2.17100000       2.82427436E-06
   2.17799997       2.76767128E-06
   2.18499994       2.70936448E-06
   2.19199991       2.64943174E-06
   2.19899988       2.58796331E-06
   2.20600009       2.52505902E-06
   2.21300006       2.46083141E-06
   2.22000003       2.39540304E-06
   2.22700000       2.32890693E-06
   2.23399997       2.26148632E-06
   2.24099994       2.19329490E-06
   2.24799991       2.12449390E-06
   2.25500011       2.05525475E-06
   2.26200008       1.98575640E-06
   2.26900005       1.91618392E-06
   2.27600002       1.84672888E-06
   2.28299999       1.77758818E-06
   2.28999996       1.70896362E-06
   2.29699993       1.64106029E-06
   2.30399990       1.57408579E-06
   2.31100011       1.50825019E-06
   2.31800008       1.44376349E-06
   2.32500005       1.38083612E-06
   2.33200002       1.31967761E-06
   2.33899999       1.26049486E-06
   2.34599996       1.20349182E-06
   2.35299993       1.14886848E-06
   2.35999990       1.09681991E-06
   2.36700010       1.04753542E-06
   2.37400007       1.00119769E-06
   2.38100004       9.57981115E-07
   2.38800001       9.18050830E-07
   2.39499998       8.81562016E-07
   2.40199995       8.48659056E-07
   2.40899992       8.19475019E-07
   2.41599989       7.94130983E-07
   2.42300010       7.72736485E-07
   2.43000007       7.55388498E-07
   2.43700004       7.42171153E-07
   2.44400001       7.33155616E-07
   2.45099998       7.28399129E-07
   2.45799994       7.27944723E-07
   2.46499991       7.31820023E-07
   2.47199988       7.40037763E-07
   2.47900009       7.52595952E-07
   2.48600006       7.69478106E-07
   2.49300003       7.90654042E-07
   2.50000000       8.16079876E-07
   2.50699997       8.45698480E-07
   2.51399994       8.79439369E-07
   2.52099991       9.17218358E-07
   2.52800012       9.58938017E-07
   2.53500009       1.00448767E-06
   2.54200006       1.05374420E-06
   2.54900002       1.10657220E-06
   2.55599999       1.16282524E-06
   2.56299996       1.22234803E-06
   2.56999993       1.28497675E-06
   2.57699990       1.35054017E-06
   2.58400011       1.41886073E-06
   2.59100008       1.48975460E-06
   2.59800005       1.56303156E-06
   2.60500002       1.63849688E-06
   2.61199999       1.71594945E-06
   2.61899996       1.79518497E-06
   2.62599993       1.87599619E-06
   2.63299990       1.95817438E-06
   2.64000010       2.04151047E-06
   2.64700007       2.12579585E-06
   2.65400004       2.21082382E-06
   2.66100001       2.29638954E-06
   2.66799998       2.38229040E-06
   2.67499995       2.46832838E-06
   2.68199992       2.55430677E-06
   2.68899989       2.64003415E-06
   2.69600010       2.72532361E-06
   2.70300007       2.80999370E-06
   2.71000004       2.89387003E-06
   2.71700001       2.97678594E-06
   2.72399998       3.05858271E-06
   2.73099995       3.13911050E-06
   2.73799992       3.21822904E-06
   2.74499989       3.29580507E-06
   2.75200009       3.37171582E-06
   2.75900006       3.44584646E-06
   2.76600003       3.51809194E-06
   2.77300000       3.58835473E-06
   2.77999997       3.65654637E-06
   2.78699994       3.72258773E-06
   2.79399991       3.78641107E-06
   2.80100012       3.84795885E-06
   2.80800009       3.90718424E-06
   2.81500006       3.96405039E-06
   2.82200003       4.01852958E-06
   2.82900000       4.07060134E-06
   2.83599997       4.12025611E-06
   2.84299994       4.16748890E-06
   2.84999990       4.21230470E-06
   2.85700011       4.25471308E-06
   2.86400008       4.29473221E-06
   2.87100005       4.33238711E-06
   2.87800002       4.36771097E-06
   2.88499999       4.40074427E-06
   2.89199996       4.43153340E-06
   2.89899993       4.46012928E-06
   2.90599990       4.48658875E-06
   2.91300011       4.51096821E-06
   2.92000008       4.53332814E-06
   2.92700005       4.55373265E-06
   2.93400002       4.57224769E-06
   2.94099998       4.58894101E-06
   2.94799995       4.60388310E-06
   2.95499992       4.61714671E-06
   2.96199989       4.62880553E-06
   2.96900010       4.63893593E-06
   2.97600007       4.64761024E-06
   2.98300004       4.65490211E-06
   2.99000001       4.66088068E-06
   2.99699998       4.66561278E-06
   3.00399995       4.66916481E-06
   3.01099992       4.67160089E-06
   3.01799989       4.67298241E-06
   3.02500010       4.67336849E-06
   3.03200006       4.67281598E-06
   3.03900003       4.67137852E-06
   3.04600000       4.66910706E-06
   3.05299997       4.66604843E-06
   3.05999994       4.66224674E-06
   3.06699991       4.65773974E-06
   3.07399988       4.65255971E-06
   3.08100009       4.64673485E-06
   3.08800006       4.64029017E-06
   3.09500003       4.63324750E-06
   3.10200000       4.62562502E-06
   3.10899997       4.61743821E-06
   3.11599994       4.60869933E-06
   3.12299991       4.59941748E-06
   3.13000011       4.58959767E-06
   3.13700008       4.57924307E-06
   3.14400005       4.56834960E-06
   3.15100002       4.55690952E-06
   3.15799999       4.54490873E-06
   3.16499996       4.53233179E-06
   3.17199993       4.51916185E-06
   3.17899990       4.50538255E-06
   3.18600011       4.49097615E-06
   3.19300008       4.47592447E-06
   3.20000005       4.46020749E-06
   3.20700002       4.44380294E-06
   3.21399999       4.42668716E-06
   3.22099996       4.40883377E-06
   3.22799993       4.39021505E-06
   3.23499990       4.37080053E-06
   3.24200010       4.35056063E-06
   3.24900007       4.32946672E-06
   3.25600004       4.30749651E-06
   3.26300001       4.28462999E-06
   3.26999998       4.26084762E-06
   3.27699995       4.23612892E-06
   3.28399992       4.21045297E-06
   3.29099989       4.18379705E-06
   3.29800010       4.15614068E-06
   3.30500007       4.12746158E-06
   3.31200004       4.09774157E-06
   3.31900001       4.06696472E-06
   3.32599998       4.03511922E-06
   3.33299994       4.00220051E-06
   3.33999991       3.96820542E-06
   3.34699988       3.93313803E-06
   3.35400009       3.89700153E-06
   3.36100006       3.85979865E-06
   3.36800003       3.82153303E-06
   3.37500000       3.78221125E-06
   3.38199997       3.74184197E-06
   3.38899994       3.70043904E-06
   3.39599991       3.65802066E-06
   3.40300012       3.61460911E-06
   3.41000009       3.57023123E-06
   3.41700006       3.52491861E-06
   3.42400002       3.47870559E-06
   3.43099999       3.43162924E-06
   3.43799996       3.38372706E-06
   3.44499993       3.33503635E-06
   3.45199990       3.28559827E-06
   3.45900011       3.23545805E-06
   3.46600008       3.18466709E-06
   3.47300005       3.13328246E-06
   3.48000002       3.08136487E-06
   3.48699999       3.02897934E-06
   3.49399996       2.97619317E-06
   3.50099993       2.92307618E-06
   3.50799990       2.86969953E-06
   3.51500010       2.81613393E-06
   3.52200007       2.76245100E-06
   3.52900004       2.70872260E-06
   3.53600001       2.65502308E-06
   3.54299998       2.60143270E-06
   3.54999995       2.54803581E-06
   3.55699992       2.49491995E-06
   3.56399989       2.44217517E-06
   3.57100010       2.38988946E-06
   3.57800007       2.33815149E-06
   3.58500004       2.28704835E-06
   3.59200001       2.23666621E-06
   3.59899998       2.18708988E-06
   3.60599995       2.13840349E-06
   3.61299992       2.09069117E-06
   3.61999989       2.04403796E-06
   3.62700009       1.99853116E-06
   3.63400006       1.95425855E-06
   3.64100003       1.91130403E-06
   3.64800000       1.86974751E-06
   3.65499997       1.82966187E-06
   3.66199994       1.79111566E-06
   3.66899991       1.75417313E-06
   3.67600012       1.71889519E-06
   3.68300009       1.68533961E-06
   3.69000006       1.65356130E-06
   3.69700003       1.62361209E-06
   3.70400000       1.59554122E-06
   3.71099997       1.56939370E-06
   3.71799994       1.54520887E-06
   3.72499990       1.52301766E-06
   3.73200011       1.50284257E-06
   3.73900008       1.48469792E-06
   3.74600005       1.46859202E-06
   3.75300002       1.45452782E-06
   3.75999999       1.44250362E-06
   3.76699996       1.43251259E-06
   3.77399993       1.42454132E-06
   3.78099990       1.41857004E-06
   3.78800011       1.41457201E-06
   3.79500008       1.41251405E-06
   3.80200005       1.41235444E-06
   3.80900002       1.41404428E-06
   3.81599998       1.41752741E-06
   3.82299995       1.42274257E-06
   3.82999992       1.42962483E-06
   3.83699989       1.43810587E-06
   3.84400010       1.44811395E-06
   3.85100007       1.45957267E-06
   3.85800004       1.47239962E-06
   3.86500001       1.48650793E-06
   3.87199998       1.50180529E-06
   3.87899995       1.51819563E-06
   3.88599992       1.53557914E-06
   3.89299989       1.55385339E-06
   3.90000010       1.57291436E-06
   3.90700006       1.59265846E-06
   3.91400003       1.61298294E-06
   3.92100000       1.63378684E-06
   3.92799997       1.65496886E-06
   3.93499994       1.67642759E-06
   3.94199991       1.69805992E-06
   3.94899988       1.71976319E-06
   3.95600009       1.74143509E-06
   3.96300006       1.76297567E-06
   3.97000003       1.78428843E-06
   3.97700000       1.80528139E-06
   3.98399997       1.82586803E-06
   3.99099994       1.84596797E-06
   3.99799991       1.86550642E-06
   4.00500011       1.88441356E-06
   4.01200008       1.90262244E-06
   4.01900005       1.92006883E-06
   4.02600002       1.93669166E-06
   4.03299999       1.95243479E-06
   4.03999996       1.96724750E-06
   4.04699993       1.98108751E-06
   4.05399990       1.99392002E-06
   4.06099987       2.00571935E-06
   4.06799984       2.01646571E-06
   4.07499981       2.02614683E-06
   4.08199978       2.03475383E-06
   4.08900023       2.04228195E-06
   4.09600019       2.04872799E-06
   4.10300016       2.05409333E-06
   4.11000013       2.05838410E-06
   4.11700010       2.06161440E-06
   4.12400007       2.06380469E-06
   4.13100004       2.06498316E-06
   4.13800001       2.06518530E-06
   4.14499998       2.06444997E-06
   4.15199995       2.06281834E-06
   4.15899992       2.06033246E-06
   4.16599989       2.05703418E-06
   4.17299986       2.05296533E-06
   4.17999983       2.04816956E-06
   4.18699980       2.04269304E-06
   4.19399977       2.03658533E-06
   4.20100021       2.02989963E-06
   4.20800018       2.02269212E-06
   4.21500015       2.01502007E-06
   4.22200012       2.00693921E-06
   4.22900009       1.99850297E-06
   4.23600006       1.98976090E-06
   4.24300003       1.98075873E-06
   4.25000000       1.97154031E-06
   4.25699997       1.96214728E-06
   4.26399994       1.95262237E-06
   4.27099991       1.94300765E-06
   4.27799988       1.93334654E-06
   4.28499985       1.92368111E-06
   4.29199982       1.91405070E-06
   4.29899979       1.90449157E-06
   4.30600023       1.89503373E-06
   4.31300020       1.88570186E-06
   4.32000017       1.87651528E-06
   4.32700014       1.86748912E-06
   4.33400011       1.85863644E-06
   4.34100008       1.84996884E-06
   4.34800005       1.84149849E-06
   4.35500002       1.83323687E-06
   4.36199999       1.82519466E-06
   4.36899996       1.81737971E-06
   4.37599993       1.80979589E-06
   4.38299990       1.80244228E-06
   4.38999987       1.79531344E-06
   4.39699984       1.78840014E-06
   4.40399981       1.78169080E-06
   4.41099977       1.77517336E-06
   4.41800022       1.76883748E-06
   4.42500019       1.76267520E-06
   4.43200016       1.75668026E-06
   4.43900013       1.75084756E-06
   4.44600010       1.74517083E-06
   4.45300007       1.73964224E-06
   4.46000004       1.73425042E-06
   4.46700001       1.72898217E-06
   4.47399998       1.72382329E-06
   4.48099995       1.71876070E-06
   4.48799992       1.71378372E-06
   4.49499989       1.70888541E-06
   4.50199986       1.70406247E-06
   4.50899982       1.69931457E-06
   4.51599979       1.69464363E-06
   4.52299976       1.69005079E-06
   4.53000021       1.68553629E-06
   4.53700018       1.68109841E-06
   4.54400015       1.67673522E-06
   4.55100012       1.67244650E-06
   4.55800009       1.66823463E-06
   4.56500006       1.66410769E-06
   4.57200003       1.66007737E-06
   4.57900000       1.65615984E-06
   4.58599997       1.65237293E-06
   4.59299994       1.64873597E-06
   4.59999990       1.64526750E-06
   4.60699987       1.64198445E-06
   4.61399984       1.63890195E-06
   4.62099981       1.63603454E-06
   4.62799978       1.63339712E-06
   4.63500023       1.63100731E-06
   4.64200020       1.62888557E-06
   4.64900017       1.62705555E-06
   4.65600014       1.62554238E-06
   4.66300011       1.62437141E-06
   4.67000008       1.62356741E-06
   4.67700005       1.62315393E-06
   4.68400002       1.62315234E-06
   4.69099998       1.62358276E-06
   4.69799995       1.62446338E-06
   4.70499992       1.62581216E-06
   4.71199989       1.62764752E-06
   4.71899986       1.62998890E-06
   4.72599983       1.63285688E-06
   4.73299980       1.63627203E-06
   4.73999977       1.64025346E-06
   4.74700022       1.64481730E-06
   4.75400019       1.64997641E-06
   4.76100016       1.65574079E-06
   4.76800013       1.66211714E-06
   4.77500010       1.66911047E-06
   4.78200006       1.67672340E-06
   4.78900003       1.68495819E-06
   4.79600000       1.69381747E-06
   4.80299997       1.70330372E-06
   4.80999994       1.71341935E-06
   4.81699991       1.72416355E-06
   4.82399988       1.73553224E-06
   4.83099985       1.74751574E-06
   4.83799982       1.76010008E-06
   4.84499979       1.77326717E-06
   4.85200024       1.78699690E-06
   4.85900021       1.80126756E-06
   4.86600018       1.81605719E-06
   4.87300014       1.83134443E-06
   4.88000011       1.84710780E-06
   4.88700008       1.86332500E-06
   4.89400005       1.87997148E-06
   4.90100002       1.89701780E-06
   4.90799999       1.91442882E-06
   4.91499996       1.93216465E-06
   4.92199993       1.95018151E-06
   4.92899990       1.96843462E-06
   4.93599987       1.98687894E-06
   4.94299984       2.00547106E-06
   4.94999981       2.02416641E-06
   4.95699978       2.04292087E-06
   4.96400023       2.06168920E-06
   4.97100019       2.08042229E-06
   4.97800016       2.09906830E-06
   4.98500013       2.11757151E-06
   4.99200010       2.13587305E-06