  -1.00000000       6.18497937E-20
 -0.992999971       1.26662383E-18
 -0.986000001       8.11565511E-18
 -0.978999972       3.07993654E-17
 -0.972000003       8.37448240E-17
 -0.964999974       1.78066588E-16
 -0.958000004       3.10919907E-16
 -0.950999975       4.58860247E-16
 -0.944000006       5.79720625E-16
 -0.936999977       6.17950769E-16
 -0.930000007       4.99393526E-16
 -0.922999978       1.04167344E-16
 -0.916000009      -7.74868864E-16
 -0.908999979      -2.45547588E-15
 -0.902000010      -5.32814768E-15
 -0.894999981      -9.73564846E-15
 -0.888000011      -1.58005645E-14
 -0.880999982      -2.32875835E-14
 -0.874000013      -3.16093485E-14
 -0.866999984      -4.00451902E-14
 -0.860000014      -4.81424830E-14
 -0.852999985      -5.61473746E-14
 -0.846000016      -6.52267818E-14
 -0.838999987      -7.72593794E-14
 -0.832000017      -9.41207493E-14
 -0.824999988      -1.16637277E-13
 -0.818000019      -1.43635036E-13
 -0.810999990      -1.71620598E-13
 -0.804000020      -1.95486043E-13
 -0.796999991      -2.10221340E-13
 -0.790000021      -2.13089854E-13
 -0.782999992      -2.05328267E-13
 -0.776000023      -1.92418577E-13
 -0.768999994      -1.82445516E-13
 -0.762000024      -1.82870402E-13
 -0.754999995      -1.96889719E-13
 -0.748000026      -2.21010168E-13
 -0.740999997      -2.45271116E-13
 -0.734000027      -2.56644044E-13
 -0.726999998      -2.44808243E-13
 -0.720000029      -2.08254339E-13
 -0.713000000      -1.58077761E-13
 -0.705999970      -1.17299684E-13
 -0.699000001      -1.15089240E-13
 -0.691999972      -1.77366151E-13
 -0.685000002      -3.17085794E-13
 -0.677999973      -5.28171690E-13
 -0.671000004      -7.86082950E-13
 -0.663999975      -1.05559745E-12
 -0.657000005      -1.30343967E-12
 -0.649999976      -1.51109919E-12
 -0.643000007      -1.68262919E-12
 -0.635999978      -1.84377600E-12
 -0.629000008      -2.03202949E-12
 -0.621999979      -2.28092241E-12
 -0.615000010      -2.60461986E-12
 -0.607999980      -2.98935399E-12
 -0.601000011      -3.39603627E-12
 -0.593999982      -3.77412858E-12
 -0.587000012      -4.08207929E-12
 -0.579999983      -4.30634651E-12
 -0.573000014      -4.47082128E-12
 -0.565999985      -4.63163405E-12
 -0.559000015      -4.85798381E-12
 -0.551999986      -5.20547798E-12
 -0.545000017      -5.69213383E-12
 -0.537999988      -6.28704684E-12
 -0.531000018      -6.91749045E-12
 -0.523999989      -7.49340520E-12
 -0.517000020      -7.94125789E-12
 -0.509999990      -8.23495872E-12
 -0.503000021      -8.41166286E-12
 -0.495999992      -8.56526568E-12
 -0.488999993      -8.81843296E-12
 -0.481999993      -9.28241078E-12
 -0.474999994      -1.00190646E-11
 -0.467999995      -1.10194822E-11
 -0.460999995      -1.22077808E-11
 -0.453999996      -1.34693723E-11
 -0.446999997      -1.46935224E-11
 -0.439999998      -1.58143689E-11
 -0.432999998      -1.68347298E-11
 -0.425999999      -1.78234857E-11
 -0.419000000      -1.88872563E-11
 -0.412000000      -2.01272922E-11
 -0.405000001      -2.15985754E-11
 -0.398000002      -2.32877901E-11
 -0.391000003      -2.51198732E-11
 -0.384000003      -2.69917005E-11
 -0.377000004      -2.88202448E-11
 -0.370000005      -3.05857700E-11
 -0.363000005      -3.23513889E-11
 -0.356000006      -3.42484964E-11
 -0.349000007      -3.64302477E-11
 -0.342000008      -3.90083764E-11
 -0.335000008      -4.19954245E-11
 -0.328000009      -4.52742115E-11
 -0.321000010      -4.86072987E-11
 -0.314000010      -5.16852949E-11
 -0.307000011      -5.41993707E-11
 -0.300000012      -5.59142559E-11
 -0.293000013      -5.67182204E-11
 -0.286000013      -5.66344333E-11
 -0.279000014      -5.57921209E-11
 -0.272000015      -5.43704456E-11
 -0.264999986      -5.25366972E-11
 -0.257999986      -5.04015475E-11
 -0.250999987      -4.80060540E-11
 -0.244000003      -4.53413210E-11
 -0.237000003      -4.23890610E-11
 -0.230000004      -3.91625204E-11
 -0.223000005      -3.57281114E-11
 -0.216000006      -3.21962387E-11
 -0.209000006      -2.86828252E-11
 -0.202000007      -2.52551053E-11
 -0.194999993      -2.18821784E-11
 -0.187999994      -1.84098084E-11
 -0.180999994      -1.45700882E-11
 -0.173999995      -1.00240649E-11
 -0.166999996      -4.42331675E-12
 -0.159999996       2.53004822E-12
 -0.152999997       1.10446574E-11
 -0.145999998       2.12330657E-11
 -0.138999999       3.31363721E-11
 -0.131999999       4.67694147E-11
 -0.125000000       6.21697901E-11
 -0.118000001       7.94353403E-11
 -0.111000001       9.87414386E-11
 -0.104000002       1.20340252E-10
  -9.70000029E-02   1.44548443E-10
  -9.00000036E-02   1.71735237E-10
  -8.29999968E-02   2.02319314E-10
  -7.59999976E-02   2.36778708E-10
  -6.89999983E-02   2.75671874E-10
  -6.19999990E-02   3.19661630E-10
  -5.49999997E-02   3.69535041E-10
  -4.80000004E-02   4.26212593E-10
  -4.10000011E-02   4.90745278E-10
  -3.40000018E-02   5.64304659E-10
  -2.70000007E-02   6.48169518E-10
  -1.99999996E-02   7.43720863E-10
  -1.30000003E-02   8.52444337E-10
  -6.00000005E-03   9.75942660E-10
   1.00000005E-03   1.11596044E-09
   8.00000038E-03   1.27441158E-09
   1.49999997E-02   1.45341517E-09
   2.19999999E-02   1.65533409E-09
   2.89999992E-02   1.88281901E-09
   3.59999985E-02   2.13885487E-09
   4.30000015E-02   2.42681075E-09
   5.00000007E-02   2.75049272E-09
   5.70000000E-02   3.11418091E-09
   6.40000030E-02   3.52266816E-09
   7.10000023E-02   3.98128241E-09
   7.80000016E-02   4.49590809E-09
   8.50000009E-02   5.07300646E-09
   9.20000002E-02   5.71964165E-09
   9.89999995E-02   6.44351772E-09
  0.105999999       7.25302529E-09
  0.112999998       8.15729173E-09
  0.119999997       9.16623399E-09
  0.127000004       1.02906172E-08
  0.134000003       1.15420935E-08
  0.141000003       1.29332669E-08
  0.148000002       1.44777417E-08
  0.155000001       1.61901905E-08
  0.162000000       1.80864319E-08
  0.169000000       2.01835384E-08
  0.175999999       2.24999344E-08
  0.182999998       2.50554955E-08
  0.189999998       2.78716517E-08
  0.196999997       3.09714387E-08
  0.203999996       3.43795641E-08
  0.210999995       3.81224403E-08
  0.217999995       4.22282156E-08
  0.224999994       4.67267718E-08
  0.231999993       5.16497565E-08
  0.238999993       5.70305758E-08
  0.246000007       6.29044337E-08
  0.252999991       6.93083777E-08
  0.259999990       7.62813457E-08
  0.266999990       8.38642364E-08
  0.273999989       9.20999454E-08
  0.280999988       1.01033464E-07
  0.287999988       1.10711930E-07
  0.294999987       1.21184613E-07
  0.301999986       1.32502905E-07
  0.308999985       1.44720289E-07
  0.316000015       1.57892288E-07
  0.323000014       1.72076327E-07
  0.330000013       1.87331764E-07
  0.337000012       2.03719836E-07
  0.344000012       2.21303537E-07
  0.351000011       2.40147699E-07
  0.358000010       2.60318785E-07
  0.365000010       2.81884780E-07
  0.372000009       3.04915062E-07
  0.379000008       3.29479917E-07
  0.386000007       3.55650599E-07
  0.393000007       3.83499042E-07
  0.400000006       4.13097553E-07
  0.407000005       4.44519088E-07
  0.414000005       4.77836636E-07
  0.421000004       5.13123666E-07
  0.428000003       5.50453422E-07
  0.435000002       5.89898889E-07
  0.442000002       6.31532146E-07
  0.449000001       6.75424303E-07
  0.456000000       7.21644938E-07
  0.463000000       7.70261806E-07
  0.469999999       8.21340961E-07
  0.476999998       8.74946409E-07
  0.483999997       9.31139709E-07
  0.490999997       9.89979867E-07
  0.497999996       1.05152321E-06
  0.504999995       1.11582210E-06
  0.512000024       1.18292530E-06
  0.518999994       1.25287761E-06
  0.526000023       1.32571859E-06
  0.532999992       1.40148336E-06
  0.540000021       1.48020285E-06
  0.546999991       1.56190254E-06
  0.554000020       1.64660401E-06
  0.560999990       1.73432295E-06
  0.568000019       1.82506960E-06
  0.574999988       1.91884806E-06
  0.582000017       2.01565672E-06
  0.588999987       2.11548650E-06
  0.596000016       2.21832329E-06
  0.602999985       2.32414482E-06
  0.610000014       2.43292357E-06
  0.616999984       2.54462475E-06
  0.624000013       2.65920858E-06
  0.630999982       2.77662889E-06
  0.638000011       2.89683271E-06
  0.644999981       3.01976070E-06
  0.652000010       3.14534645E-06
  0.658999979       3.27351700E-06
  0.666000009       3.40419365E-06
  0.672999978       3.53729092E-06
  0.680000007       3.67271855E-06
  0.686999977       3.81038103E-06
  0.694000006       3.95017742E-06
  0.700999975       4.09200175E-06
  0.708000004       4.23574193E-06
  0.714999974       4.38128109E-06
  0.722000003       4.52849963E-06
  0.728999972       4.67727068E-06
  0.736000001       4.82746555E-06
  0.742999971       4.97895189E-06
  0.750000000       5.13159330E-06
  0.757000029       5.28525425E-06
  0.763999999       5.43979468E-06
  0.771000028       5.59507407E-06
  0.777999997       5.75094828E-06
  0.785000026       5.90727359E-06
  0.791999996       6.06390267E-06
  0.799000025       6.22068683E-06
  0.805999994       6.37747917E-06
  0.813000023       6.53412962E-06
  0.819999993       6.69049041E-06
  0.827000022       6.84641736E-06
  0.833999991       7.00176315E-06
  0.841000021       7.15638316E-06
  0.847999990       7.31013461E-06
  0.855000019       7.46287787E-06
  0.861999989       7.61446972E-06
  0.869000018       7.76477464E-06
  0.875999987       7.91365437E-06
  0.883000016       8.06097432E-06
  0.889999986       8.20660262E-06
  0.897000015       8.35041374E-06
  0.903999984       8.49228309E-06
  0.911000013       8.63208970E-06
  0.917999983       8.76971717E-06
  0.925000012       8.90504907E-06
  0.931999981       9.03797445E-06
  0.939000010       9.16838417E-06
  0.945999980       9.29616908E-06
  0.953000009       9.42122733E-06
  0.959999979       9.54345978E-06
  0.967000008       9.66277094E-06
  0.973999977       9.77906984E-06
  0.981000006       9.89227283E-06
  0.987999976       1.00022944E-05
  0.995000005       1.01090582E-05
   1.00199997       1.02124877E-05
   1.00899994       1.03125094E-05
   1.01600003       1.04090541E-05
   1.02300000       1.05020572E-05
   1.02999997       1.05914569E-05
   1.03699994       1.06771940E-05
   1.04400003       1.07592186E-05
   1.05100000       1.08374825E-05
   1.05799997       1.09119437E-05
   1.06500006       1.09825614E-05
   1.07200003       1.10493002E-05
   1.07900000       1.11121253E-05
   1.08599997       1.11710106E-05
   1.09300005       1.12259331E-05
   1.10000002       1.12768685E-05
   1.10699999       1.13238048E-05
   1.11399996       1.13667347E-05
   1.12100005       1.14056547E-05
   1.12800002       1.14405675E-05
   1.13499999       1.14714849E-05
   1.14199996       1.14984205E-05
   1.14900005       1.15213952E-05
   1.15600002       1.15404337E-05
   1.16299999       1.15555686E-05
   1.16999996       1.15668372E-05
   1.17700005       1.15742823E-05
   1.18400002       1.15779558E-05
   1.19099998       1.15779121E-05
   1.19799995       1.15742196E-05
   1.20500004       1.15669473E-05
   1.21200001       1.15561761E-05
   1.21899998       1.15419934E-05
   1.22599995       1.15244984E-05
   1.23300004       1.15037883E-05
   1.24000001       1.14799732E-05
   1.24699998       1.14531722E-05
   1.25399995       1.14235090E-05
   1.26100004       1.13911137E-05
   1.26800001       1.13561273E-05
   1.27499998       1.13186952E-05
   1.28199995       1.12789767E-05
   1.28900003       1.12371372E-05
   1.29600000       1.11933496E-05
   1.30299997       1.11477948E-05
   1.30999994       1.11006584E-05
   1.31700003       1.10521332E-05
   1.32400000       1.10024130E-05
   1.33099997       1.09516996E-05
   1.33800006       1.09001958E-05
   1.34500003       1.08481154E-05
   1.35200000       1.07956730E-05
   1.35899997       1.07430933E-05
   1.36600006       1.06906000E-05
   1.37300003       1.06384241E-05
   1.38000000       1.05867975E-05
   1.38699996       1.05359541E-05
   1.39400005       1.04861256E-05
   1.40100002       1.04375404E-05
   1.40799999       1.03904222E-05
   1.41499996       1.03450002E-05
   1.42200005       1.03014918E-05
   1.42900002       1.02601261E-05
   1.43599999       1.02211216E-05
   1.44299996       1.01846999E-05
   1.45000005       1.01510750E-05
   1.45700002       1.01204496E-05
   1.46399999       1.00930165E-05
   1.47099996       1.00689604E-05
   1.47800004       1.00484503E-05
   1.48500001       1.00316511E-05
   1.49199998       1.00187126E-05
   1.49899995       1.00097795E-05
   1.50600004       1.00049911E-05
   1.51300001       1.00044736E-05
   1.51999998       1.00083416E-05
   1.52699995       1.00166963E-05
   1.53400004       1.00296165E-05
   1.54100001       1.00471616E-05
   1.54799998       1.00693742E-05
   1.55499995       1.00962798E-05
   1.56200004       1.01278947E-05
   1.56900001       1.01642163E-05
   1.57599998       1.02052327E-05
   1.58299994       1.02509221E-05
   1.59000003       1.03012399E-05
   1.59700000       1.03561260E-05
   1.60399997       1.04155015E-05
   1.61099994       1.04792671E-05
   1.61800003       1.05473027E-05
   1.62500000       1.06194711E-05
   1.63199997       1.06956222E-05
   1.63900006       1.07755959E-05
   1.64600003       1.08592221E-05
   1.65300000       1.09463181E-05
   1.65999997       1.10366900E-05
   1.66700006       1.11301269E-05
   1.67400002       1.12264033E-05
   1.68099999       1.13252836E-05
   1.68799996       1.14265131E-05
   1.69500005       1.15298308E-05
   1.70200002       1.16349665E-05
   1.70899999       1.17416439E-05
   1.71599996       1.18495891E-05
   1.72300005       1.19585211E-05
   1.73000002       1.20681561E-05
   1.73699999       1.21782050E-05
   1.74399996       1.22883721E-05
   1.75100005       1.23983600E-05
   1.75800002       1.25078668E-05
   1.76499999       1.26165924E-05
   1.77199996       1.27242402E-05
   1.77900004       1.28305173E-05
   1.78600001       1.29351374E-05
   1.79299998       1.30378212E-05
   1.79999995       1.31382976E-05
   1.80700004       1.32363002E-05
   1.81400001       1.33315680E-05
   1.82099998       1.34238471E-05
   1.82799995       1.35128894E-05
   1.83500004       1.35984519E-05
   1.84200001       1.36803083E-05
   1.84899998       1.37582447E-05
   1.85599995       1.38320638E-05
   1.86300004       1.39015765E-05
   1.87000000       1.39666136E-05
   1.87699997       1.40270122E-05
   1.88399994       1.40826278E-05
   1.89100003       1.41333212E-05
   1.89800000       1.41789687E-05
   1.90499997       1.42194594E-05
   1.91199994       1.42546960E-05
   1.91900003       1.42845947E-05
   1.92600000       1.43090920E-05
   1.93299997       1.43281368E-05
   1.94000006       1.43416946E-05
   1.94700003       1.43497446E-05
   1.95400000       1.43522748E-05
   1.96099997       1.43492853E-05
   1.96800005       1.43407933E-05
   1.97500002       1.43268271E-05
   1.98199999       1.43074212E-05
   1.98899996       1.42826239E-05
   1.99600005       1.42524941E-05
   2.00300002       1.42171084E-05
   2.00999999       1.41765431E-05
   2.01699996       1.41308938E-05
   2.02399993       1.40802549E-05
   2.03099990       1.40247330E-05
   2.03800011       1.39644417E-05
   2.04500008       1.38994974E-05
   2.05200005       1.38300275E-05
   2.05900002       1.37561674E-05
   2.06599998       1.36780545E-05
   2.07299995       1.35958298E-05
   2.07999992       1.35096388E-05
   2.08699989       1.34196343E-05
   2.09400010       1.33259664E-05
   2.10100007       1.32287978E-05
   2.10800004       1.31282868E-05
   2.11500001       1.30245917E-05
   2.12199998       1.29178761E-05
   2.12899995       1.28083002E-05
   2.13599992       1.26960258E-05
   2.14299989       1.25812130E-05
   2.15000010       1.24640228E-05
   2.15700006       1.23446134E-05
   2.16400003       1.22231486E-05
   2.17100000       1.20997947E-05
   2.17799997       1.19747183E-05
   2.18499994       1.18480784E-05
   2.19199991       1.17200389E-05
   2.19899988       1.15907533E-05
   2.20600009       1.14603745E-05
   2.21300006       1.13290580E-05
   2.22000003       1.11969584E-05
   2.22700000       1.10642304E-05
   2.23399997       1.09310367E-05
   2.24099994       1.07975329E-05
   2.24799991       1.06638809E-05
   2.25500011       1.05302433E-05
   2.26200008       1.03967750E-05
   2.26900005       1.02636277E-05
   2.27600002       1.01309506E-05
   2.28299999       9.99888471E-06
   2.28999996       9.86757641E-06
   2.29699993       9.73717670E-06
   2.30399990       9.60783200E-06
   2.31100011       9.47969693E-06
   2.31800008       9.35292883E-06
   2.32500005       9.22768140E-06
   2.33200002       9.10410654E-06
   2.33899999       8.98235430E-06
   2.34599996       8.86257112E-06
   2.35299993       8.74489706E-06
   2.35999990       8.62946945E-06
   2.36700010       8.51643290E-06
   2.37400007       8.40593111E-06
   2.38100004       8.29811324E-06
   2.38800001       8.19312390E-06
   2.39499998       8.09110861E-06
   2.40199995       7.99220925E-06
   2.40899992       7.89655132E-06
   2.41599989       7.80425944E-06
   2.42300010       7.71544728E-06
   2.43000007       7.63022672E-06
   2.43700004       7.54870507E-06
   2.44400001       7.47098920E-06
   2.45099998       7.39718689E-06
   2.45799994       7.32740500E-06
   2.46499991       7.26174585E-06
   2.47199988       7.20030175E-06
   2.47900009       7.14315047E-06
   2.48600006       7.09035430E-06
   2.49300003       7.04196600E-06
   2.50000000       6.99802649E-06
   2.50699997       6.95857079E-06
   2.51399994       6.92362937E-06
   2.52099991       6.89322769E-06
   2.52800012       6.86738622E-06
   2.53500009       6.84611905E-06
   2.54200006       6.82942891E-06
   2.54900002       6.81729989E-06
   2.55599999       6.80969333E-06
   2.56299996       6.80655467E-06
   2.56999993       6.80781341E-06
   2.57699990       6.81339270E-06
   2.58400011       6.82321024E-06
   2.59100008       6.83718145E-06
   2.59800005       6.85521400E-06
   2.60500002       6.87720558E-06
   2.61199999       6.90304114E-06
   2.61899996       6.93259062E-06
   2.62599993       6.96570487E-06
   2.63299990       7.00221699E-06
   2.64000010       7.04194554E-06
   2.64700007       7.08470589E-06
   2.65400004       7.13030795E-06
   2.66100001       7.17856665E-06
   2.66799998       7.22929690E-06
   2.67499995       7.28230907E-06
   2.68199992       7.33740626E-06
   2.68899989       7.39437837E-06
   2.69600010       7.45300440E-06
   2.70300007       7.51305288E-06
   2.71000004       7.57428597E-06
   2.71700001       7.63646403E-06
   2.72399998       7.69934741E-06
   2.73099995       7.76270554E-06
   2.73799992       7.82632105E-06
   2.74499989       7.88997841E-06
   2.75200009       7.95346477E-06
   2.75900006       8.01655915E-06
   2.76600003       8.07904053E-06
   2.77300000       8.14068790E-06
   2.77999997       8.20128480E-06
   2.78699994       8.26062296E-06
   2.79399991       8.31850502E-06
   2.80100012       8.37475181E-06
   2.80800009       8.42919508E-06
   2.81500006       8.48168565E-06
   2.82200003       8.53207803E-06
   2.82900000       8.58023213E-06
   2.83599997       8.62601701E-06
   2.84299994       8.66930441E-06
   2.84999990       8.70997428E-06
   2.85700011       8.74791931E-06
   2.86400008       8.78304945E-06
   2.87100005       8.81529468E-06
   2.87800002       8.84459769E-06
   2.88499999       8.87091210E-06
   2.89199996       8.89420426E-06
   2.89899993       8.91445234E-06
   2.90599990       8.93163815E-06
   2.91300011       8.94574987E-06
   2.92000008       8.95678841E-06
   2.92700005       8.96476286E-06
   2.93400002       8.96970141E-06
   2.94099998       8.97164682E-06
   2.94799995       8.97065911E-06
   2.95499992       8.96680376E-06
   2.96199989       8.96015536E-06
   2.96900010       8.95079029E-06
   2.97600007       8.93878951E-06
   2.98300004       8.92423941E-06
   2.99000001       8.90723368E-06
   2.99699998       8.88787326E-06
   3.00399995       8.86626276E-06
   3.01099992       8.84251494E-06
   3.01799989       8.81675078E-06
   3.02500010       8.78909032E-06
   3.03200006       8.75965725E-06
   3.03900003       8.72856708E-06
   3.04600000       8.69593714E-06
   3.05299997       8.66187838E-06
   3.05999994       8.62650450E-06
   3.06699991       8.58993735E-06
   3.07399988       8.55229791E-06
   3.08100009       8.51371169E-06
   3.08800006       8.47430238E-06
   3.09500003       8.43418729E-06
   3.10200000       8.39347740E-06
   3.10899997       8.35227820E-06
   3.11599994       8.31068883E-06
   3.12299991       8.26880296E-06
   3.13000011       8.22670700E-06
   3.13700008       8.18449189E-06
   3.14400005       8.14224768E-06
   3.15100002       8.10006259E-06
   3.15799999       8.05802483E-06
   3.16499996       8.01620718E-06
   3.17199993       7.97467510E-06
   3.17899990       7.93347954E-06
   3.18600011       7.89267415E-06
   3.19300008       7.85230168E-06
   3.20000005       7.81240760E-06
   3.20700002       7.77303558E-06
   3.21399999       7.73423471E-06
   3.22099996       7.69605413E-06
   3.22799993       7.65853656E-06
   3.23499990       7.62172522E-06
   3.24200010       7.58564556E-06
   3.24900007       7.55031442E-06
   3.25600004       7.51573953E-06
   3.26300001       7.48192679E-06
   3.26999998       7.44888894E-06
   3.27699995       7.41664144E-06
   3.28399992       7.38520748E-06
   3.29099989       7.35460935E-06
   3.29800010       7.32486933E-06
   3.30500007       7.29600788E-06
   3.31200004       7.26803910E-06
   3.31900001       7.24097208E-06
   3.32599998       7.21481001E-06
   3.33299994       7.18955516E-06
   3.33999991       7.16521436E-06
   3.34699988       7.14180351E-06
   3.35400009       7.11934490E-06
   3.36100006       7.09786673E-06
   3.36800003       7.07739218E-06
   3.37500000       7.05794173E-06
   3.38199997       7.03952628E-06
   3.38899994       7.02215721E-06
   3.39599991       7.00584633E-06
   3.40300012       6.99061002E-06
   3.41000009       6.97646919E-06
   3.41700006       6.96345160E-06
   3.42400002       6.95158951E-06
   3.43099999       6.94092205E-06
   3.43799996       6.93148604E-06
   3.44499993       6.92331014E-06
   3.45199990       6.91641617E-06
   3.45900011       6.91082005E-06
   3.46600008       6.90653633E-06
   3.47300005       6.90358320E-06
   3.48000002       6.90198476E-06
   3.48699999       6.90177194E-06
   3.49399996       6.90297020E-06
   3.50099993       6.90560637E-06
   3.50799990       6.90970001E-06
   3.51500010       6.91526338E-06
   3.52200007       6.92230287E-06
   3.52900004       6.93081984E-06
   3.53600001       6.94081018E-06
   3.54299998       6.95227027E-06
   3.54999995       6.96520374E-06
   3.55699992       6.97961423E-06
   3.56399989       6.99550355E-06
   3.57100010       7.01286490E-06
   3.57800007       7.03167734E-06
   3.58500004       7.05190541E-06
   3.59200001       7.07350728E-06
   3.59899998       7.09643291E-06
   3.60599995       7.12063274E-06
   3.61299992       7.14605312E-06
   3.61999989       7.17264402E-06
   3.62700009       7.20035359E-06
   3.63400006       7.22912500E-06
   3.64100003       7.25889959E-06
   3.64800000       7.28960367E-06
   3.65499997       7.32114995E-06
   3.66199994       7.35344065E-06
   3.66899991       7.38637254E-06
   3.67600012       7.41984059E-06
   3.68300009       7.45374336E-06
   3.69000006       7.48798266E-06
   3.69700003       7.52246160E-06
   3.70400000       7.55708061E-06
   3.71099997       7.59173417E-06
   3.71799994       7.62631271E-06
   3.72499990       7.66069570E-06
   3.73200011       7.69475537E-06
   3.73900008       7.72835756E-06
   3.74600005       7.76136858E-06
   3.75300002       7.79365837E-06
   3.75999999       7.82511052E-06
   3.76699996       7.85561588E-06
   3.77399993       7.88507441E-06
   3.78099990       7.91338334E-06
   3.78800011       7.94043990E-06
   3.79500008       7.96613494E-06
   3.80200005       7.99035570E-06
   3.80900002       8.01299211E-06
   3.81599998       8.03393232E-06
   3.82299995       8.05307536E-06
   3.82999992       8.07033211E-06
   3.83699989       8.08562891E-06
   3.84400010       8.09890389E-06
   3.85100007       8.11010614E-06
   3.85800004       8.11918108E-06
   3.86500001       8.12607777E-06
   3.87199998       8.13073530E-06
   3.87899995       8.13309725E-06
   3.88599992       8.13311271E-06
   3.89299989       8.13073893E-06
   3.90000010       8.12594590E-06
   3.90700006       8.11871996E-06
   3.91400003       8.10905658E-06
   3.92100000       8.09696485E-06
   3.92799997       8.08246205E-06
   3.93499994       8.06555545E-06
   3.94199991       8.04625233E-06
   3.94899988       8.02455725E-06
   3.95600009       8.00046928E-06
   3.96300006       7.97400571E-06
   3.97000003       7.94518928E-06
   3.97700000       7.91406364E-06
   3.98399997       7.88068064E-06
   3.99099994       7.84509939E-06
   3.99799991       7.80737992E-06
   4.00500011       7.76757588E-06
   4.01200008       7.72573821E-06
   4.01900005       7.68191057E-06
   4.02600002       7.63613116E-06
   4.03299999       7.58844362E-06
   4.03999996       7.53889844E-06
   4.04699993       7.48755883E-06
   4.05399990       7.43450028E-06
   4.06099987       7.37979963E-06
   4.06799984       7.32353419E-06
   4.07499981       7.26577446E-06
   4.08199978       7.20658318E-06
   4.08900023       7.14601765E-06
   4.09600019       7.08412927E-06
   4.10300016       7.02097122E-06
   4.11000013       6.95659810E-06
   4.11700010       6.89107310E-06
   4.12400007       6.82446671E-06
   4.13100004       6.75685442E-06
   4.13800001       6.68831353E-06
   4.14499998       6.61891590E-06
   4.15199995       6.54872792E-06
   4.15899992       6.47780735E-06
   4.16599989       6.40621283E-06
   4.17299986       6.33400441E-06
   4.17999983       6.26124393E-06
   4.18699980       6.18799731E-06
   4.19399977       6.11433734E-06
   4.20100021       6.04033994E-06
   4.20800018       5.96608515E-06
   4.21500015       5.89165575E-06
   4.22200012       5.81712993E-06
   4.22900009       5.74258138E-06
   4.23600006       5.66807921E-06
   4.24300003       5.59369209E-06
   4.25000000       5.51949142E-06
   4.25699997       5.44555360E-06
   4.26399994       5.37195956E-06
   4.27099991       5.29879526E-06
   4.27799988       5.22614755E-06
   4.28499985       5.15410466E-06
   4.29199982       5.08275662E-06
   4.29899979       5.01218756E-06
   4.30600023       4.94247706E-06
   4.31300020       4.87369789E-06
   4.32000017       4.80592144E-06
   4.32700014       4.73921727E-06
   4.33400011       4.67366317E-06
   4.34100008       4.60934007E-06
   4.34800005       4.54633209E-06
   4.35500002       4.48472019E-06
   4.36199999       4.42458486E-06
   4.36899996       4.36599657E-06
   4.37599993       4.30901855E-06
   4.38299990       4.25370490E-06
   4.38999987       4.20010201E-06
   4.39699984       4.14824717E-06
   4.40399981       4.09817540E-06
   4.41099977       4.04992079E-06
   4.41800022       4.00351928E-06
   4.42500019       3.95900679E-06
   4.43200016       3.91641242E-06
   4.43900013       3.87575574E-06
   4.44600010       3.83704628E-06
   4.45300007       3.80028314E-06
   4.46000004       3.76545609E-06
   4.46700001       3.73254625E-06
   4.47399998       3.70152679E-06
   4.48099995       3.67236362E-06
   4.48799992       3.64501966E-06
   4.49499989       3.61945490E-06
   4.50199986       3.59562750E-06
   4.50899982       3.57348722E-06
   4.51599979       3.55297561E-06
   4.52299976       3.53402470E-06
   4.53000021       3.51655854E-06
   4.53700018       3.50049550E-06
   4.54400015       3.48575168E-06
   4.55100012       3.47223636E-06
   4.55800009       3.45985427E-06
   4.56500006       3.44850287E-06
   4.57200003       3.43807778E-06
   4.57900000       3.42847238E-06
   4.58599997       3.41958003E-06
   4.59299994       3.41129203E-06
   4.59999990       3.40349811E-06
   4.60699987       3.39608664E-06
   4.61399984       3.38894483E-06
   4.62099981       3.38195878E-06
   4.62799978       3.37501342E-06
   4.63500023       3.36798871E-06
   4.64200020       3.36076550E-06
   4.64900017       3.35322625E-06
   4.65600014       3.34526089E-06
   4.66300011       3.33677121E-06
   4.67000008       3.32766945E-06
   4.67700005       3.31787578E-06
   4.68400002       3.30731154E-06
   4.69099998       3.29589716E-06
   4.69799995       3.28355100E-06
   4.70499992       3.27018984E-06
   4.71199989       3.25573183E-06
   4.71899986       3.24009898E-06
   4.72599983       3.22322376E-06
   4.73299980       3.20505524E-06
   4.73999977       3.18556044E-06
   4.74700022       3.16472187E-06
   4.75400019       3.14252929E-06
   4.76100016       3.11897156E-06
   4.76800013       3.09403231E-06
   4.77500010       3.06768879E-06
   4.78200006       3.03991806E-06
   4.78900003       3.01070577E-06
   4.79600000       2.98005284E-06
   4.80299997       2.94798110E-06
   4.80999994       2.91453239E-06
   4.81699991       2.87976309E-06
   4.82399988       2.84374096E-06
   4.83099985       2.80653194E-06
   4.83799982       2.76819196E-06
   4.84499979       2.72876241E-06
   4.85200024       2.68827534E-06
   4.85900021       2.64676419E-06
   4.86600018       2.60427623E-06
   4.87300014       2.56088174E-06
   4.88000011       2.51667620E-06
   4.88700008       2.47177240E-06
   4.89400005       2.42629380E-06
   4.90100002       2.38036159E-06
   4.90799999       2.33408628E-06
   4.91499996       2.28756085E-06
   4.92199993       2.24086307E-06
   4.92899990       2.19406229E-06
   4.93599987       2.14723127E-06
   4.94299984       2.10045937E-06
   4.94999981       2.05385913E-06
   4.95699978       2.00756335E-06
   4.96400023       1.96171641E-06
   4.97100019       1.91645904E-06
   4.97800016       1.87191836E-06
   4.98500013       1.82820077E-06
   4.99200010       1.78539392E-06