  -1.00000000      -2.90176164E-31
 -0.992999971       7.55125947E-26
 -0.986000001       1.47386259E-23
 -0.978999972       2.69467312E-22
 -0.972000003       2.16023165E-21
 -0.964999974       1.05645981E-20
 -0.958000004       3.64934638E-20
 -0.950999975       9.65433706E-20
 -0.944000006       2.05831268E-19
 -0.936999977       3.67157893E-19
 -0.930000007       5.68046692E-19
 -0.922999978       7.99670240E-19
 -0.916000009       1.09952352E-18
 -0.908999979       1.59594749E-18
 -0.902000010       2.51238947E-18
 -0.894999981       4.09047099E-18
 -0.888000011       6.42166697E-18
 -0.880999982       9.23012795E-18
 -0.874000013       1.17029819E-17
 -0.866999984       1.24907904E-17
 -0.860000014       9.97060101E-18
 -0.852999985       2.76060197E-18
 -0.846000016      -9.68152124E-18
 -0.838999987      -2.66843321E-17
 -0.832000017      -4.65372441E-17
 -0.824999988      -6.73551335E-17
 -0.818000019      -8.84162372E-17
 -0.810999990      -1.11382808E-16
 -0.804000020      -1.40657709E-16
 -0.796999991      -1.82359100E-16
 -0.790000021      -2.41992681E-16
 -0.782999992      -3.21625266E-16
 -0.776000023      -4.17847970E-16
 -0.768999994      -5.21736720E-16
 -0.762000024      -6.21264944E-16
 -0.754999995      -7.05406921E-16
 -0.748000026      -7.67992809E-16
 -0.740999997      -8.08899736E-16
 -0.734000027      -8.30899246E-16
 -0.726999998      -8.32491191E-16
 -0.720000029      -7.99687352E-16
 -0.713000000      -7.01697552E-16
 -0.705999970      -4.95476052E-16
 -0.699000001      -1.41340166E-16
 -0.691999972       3.73091014E-16
 -0.685000002       1.00870994E-15
 -0.677999973       1.66170045E-15
 -0.671000004       2.17131771E-15
 -0.663999975       2.35262258E-15
 -0.657000005       2.04868111E-15
 -0.649999976       1.18721610E-15
 -0.643000007      -1.78828799E-16
 -0.635999978      -1.86571670E-15
 -0.629000008      -3.59765471E-15
 -0.621999979      -5.08391293E-15
 -0.615000010      -6.11275387E-15
 -0.607999980      -6.63086995E-15
 -0.601000011      -6.77811604E-15
 -0.593999982      -6.86026849E-15
 -0.587000012      -7.26350149E-15
 -0.579999983      -8.33541152E-15
 -0.573000014      -1.02704363E-14
 -0.565999985      -1.30366849E-14
 -0.559000015      -1.63664451E-14
 -0.551999986      -1.98093867E-14
 -0.545000017      -2.28254610E-14
 -0.537999988      -2.48823264E-14
 -0.531000018      -2.55255886E-14
 -0.523999989      -2.44080557E-14
 -0.517000020      -2.12884350E-14
 -0.509999990      -1.60298647E-14
 -0.503000021      -8.63252358E-15
 -0.495999992       6.81117351E-16
 -0.488999993       1.13420185E-14
 -0.481999993       2.23194012E-14
 -0.474999994       3.20839241E-14
 -0.467999995       3.87124991E-14
 -0.460999995       4.01616877E-14
 -0.453999996       3.46792771E-14
 -0.446999997       2.12641929E-14
 -0.439999998       4.66520866E-17
 -0.432999998      -2.75396618E-14
 -0.425999999      -5.88774906E-14
 -0.419000000      -9.05840073E-14
 -0.412000000      -1.19143546E-13
 -0.405000001      -1.41600571E-13
 -0.398000002      -1.56130696E-13
 -0.391000003      -1.62336006E-13
 -0.384000003      -1.61190275E-13
 -0.377000004      -1.54662348E-13
 -0.370000005      -1.45142958E-13
 -0.363000005      -1.34852131E-13
 -0.356000006      -1.25400395E-13
 -0.349000007      -1.17614157E-13
 -0.342000008      -1.11639640E-13
 -0.335000008      -1.07243506E-13
 -0.328000009      -1.04163612E-13
 -0.321000010      -1.02356159E-13
 -0.314000010      -1.02036537E-13
 -0.307000011      -1.03503144E-13
 -0.300000012      -1.06833094E-13
 -0.293000013      -1.11604404E-13
 -0.286000013      -1.16806535E-13
 -0.279000014      -1.21037566E-13
 -0.272000015      -1.22975415E-13
 -0.264999986      -1.21990322E-13
 -0.257999986      -1.18682814E-13
 -0.250999987      -1.15123839E-13
 -0.244000003      -1.14646655E-13
 -0.237000003      -1.21178471E-13
 -0.230000004      -1.38256187E-13
 -0.223000005      -1.67993711E-13
 -0.216000006      -2.10310908E-13
 -0.209000006      -2.62676952E-13
 -0.202000007      -3.20472110E-13
 -0.194999993      -3.77886849E-13
 -0.187999994      -4.29107813E-13
 -0.180999994      -4.69463715E-13
 -0.173999995      -4.96234455E-13
 -0.166999996      -5.08959519E-13
 -0.159999996      -5.09264180E-13
 -0.152999997      -5.00374048E-13
 -0.145999998      -4.86566299E-13
 -0.138999999      -4.72762942E-13
 -0.131999999      -4.64332457E-13
 -0.125000000      -4.67003443E-13
 -0.118000001      -4.86662848E-13
 -0.111000001      -5.28798956E-13
 -0.104000002      -5.97456167E-13
  -9.70000029E-02  -6.93800052E-13
  -9.00000036E-02  -8.14637637E-13
  -8.29999968E-02  -9.51415812E-13
  -7.59999976E-02  -1.09022990E-12
  -6.89999983E-02  -1.21317854E-12
  -6.19999990E-02  -1.30104770E-12
  -5.49999997E-02  -1.33689771E-12
  -4.80000004E-02  -1.30977813E-12
  -4.10000011E-02  -1.21766583E-12
  -3.40000018E-02  -1.06882407E-12
  -2.70000007E-02  -8.81135334E-13
  -1.99999996E-02  -6.79432910E-13
  -1.30000003E-02  -4.91368448E-13
  -6.00000005E-03  -3.42693837E-13
   1.00000005E-03  -2.52974453E-13
   8.00000038E-03  -2.32614004E-13
   1.49999997E-02  -2.81720041E-13
   2.19999999E-02  -3.90895649E-13
   2.89999992E-02  -5.43611000E-13
   3.59999985E-02  -7.19536193E-13
   4.30000015E-02  -8.98107218E-13
   5.00000007E-02  -1.06169554E-12
   5.70000000E-02  -1.19793054E-12
   6.40000030E-02  -1.30098829E-12
   7.10000023E-02  -1.37186508E-12
   7.80000016E-02  -1.41783124E-12
   8.50000009E-02  -1.45130002E-12
   9.20000002E-02  -1.48834406E-12
   9.89999995E-02  -1.54701284E-12
  0.105999999      -1.64553982E-12
  0.112999998      -1.80048121E-12
  0.119999997      -2.02485294E-12
  0.127000004      -2.32639906E-12
  0.134000003      -2.70622977E-12
  0.141000003      -3.15813413E-12
  0.148000002      -3.66887987E-12
  0.155000001      -4.21971659E-12
  0.162000000      -4.78912873E-12
  0.169000000      -5.35657326E-12
  0.175999999      -5.90665451E-12
  0.182999998      -6.43292320E-12
  0.189999998      -6.94038316E-12
  0.196999997      -7.44593276E-12
  0.203999996      -7.97639472E-12
  0.210999995      -8.56432980E-12
  0.217999995      -9.24242627E-12
  0.224999994      -1.00377137E-11
  0.231999993      -1.09668767E-11
  0.238999993      -1.20338036E-11
  0.246000007      -1.32298712E-11
  0.252999991      -1.45368275E-11
  0.259999990      -1.59313725E-11
  0.266999990      -1.73903305E-11
  0.273999989      -1.88950557E-11
  0.280999988      -2.04343244E-11
  0.287999988      -2.20055450E-11
  0.294999987      -2.36146207E-11
  0.301999986      -2.52751951E-11
  0.308999985      -2.70079844E-11
  0.316000015      -2.88403242E-11
  0.323000014      -3.08055977E-11
  0.330000013      -3.29418229E-11
  0.337000012      -3.52883590E-11
  0.344000012      -3.78802337E-11
  0.351000011      -4.07403764E-11
  0.358000010      -4.38709694E-11
  0.365000010      -4.72460751E-11
  0.372000009      -5.08075734E-11
  0.379000008      -5.44667610E-11
  0.386000007      -5.81111305E-11
  0.393000007      -6.16161844E-11
  0.400000006      -6.48589168E-11
  0.407000005      -6.77291695E-11
  0.414000005      -7.01361677E-11
  0.421000004      -7.20075943E-11
  0.428000003      -7.32816516E-11
  0.435000002      -7.38929543E-11
  0.442000002      -7.37565772E-11
  0.449000001      -7.27535115E-11
  0.456000000      -7.07210193E-11
  0.463000000      -6.74493655E-11
  0.469999999      -6.26848504E-11
  0.476999998      -5.61355545E-11
  0.483999997      -4.74776121E-11
  0.490999997      -3.63579340E-11
  0.497999996      -2.23918748E-11
  0.504999995      -5.15628989E-12
  0.512000024       1.58213477E-11
  0.518999994       4.10723434E-11
  0.526000023       7.11952095E-11
  0.532999992       1.06857689E-10
  0.540000021       1.48796087E-10
  0.546999991       1.97812017E-10
  0.554000020       2.54770954E-10
  0.560999990       3.20607096E-10
  0.568000019       3.96332328E-10
  0.574999988       4.83051377E-10
  0.582000017       5.81976023E-10
  0.588999987       6.94442837E-10
  0.596000016       8.21921309E-10
  0.602999985       9.66023705E-10
  0.610000014       1.12850185E-09
  0.616999984       1.31124744E-09
  0.624000013       1.51628965E-09
  0.630999982       1.74580062E-09
  0.638000011       2.00211159E-09
  0.644999981       2.28773045E-09
  0.652000010       2.60537614E-09
  0.658999979       2.95799385E-09
  0.666000009       3.34877792E-09
  0.672999978       3.78118159E-09
  0.680000007       4.25891944E-09
  0.686999977       4.78596363E-09
  0.694000006       5.36654543E-09
  0.700999975       6.00515504E-09
  0.708000004       6.70656330E-09
  0.714999974       7.47582440E-09
  0.722000003       8.31831048E-09
  0.728999972       9.23972898E-09
  0.736000001       1.02461470E-08
  0.742999971       1.13440013E-08
  0.750000000       1.25400970E-08
  0.757000029       1.38416043E-08
  0.763999999       1.52560489E-08
  0.771000028       1.67913097E-08
  0.777999997       1.84555997E-08
  0.785000026       2.02575361E-08
  0.791999996       2.22061036E-08
  0.799000025       2.43107383E-08
  0.805999994       2.65812670E-08
  0.813000023       2.90279321E-08
  0.819999993       3.16614077E-08
  0.827000022       3.44927216E-08
  0.833999991       3.75332121E-08
  0.841000021       4.07945464E-08
  0.847999990       4.42886652E-08
  0.855000019       4.80277187E-08
  0.861999989       5.20240775E-08
  0.869000018       5.62903075E-08
  0.875999987       6.08392057E-08
  0.883000016       6.56836434E-08
  0.889999986       7.08365988E-08
  0.897000015       7.63110890E-08
  0.903999984       8.21200175E-08
  0.911000013       8.82762308E-08
  0.917999983       9.47924264E-08
  0.925000012       1.01681046E-07
  0.931999981       1.08954168E-07
  0.939000010       1.16623497E-07
  0.945999980       1.24700350E-07
  0.953000009       1.33195542E-07
  0.959999979       1.42119291E-07
  0.967000008       1.51481117E-07
  0.973999977       1.61289734E-07
  0.981000006       1.71552784E-07
  0.987999976       1.82277063E-07
  0.995000005       1.93468225E-07
   1.00199997       2.05130831E-07
   1.00899994       2.17268223E-07
   1.01600003       2.29882218E-07
   1.02300000       2.42973556E-07
   1.02999997       2.56541114E-07
   1.03699994       2.70582262E-07
   1.04400003       2.85092653E-07
   1.05100000       3.00066262E-07
   1.05799997       3.15494987E-07
   1.06500006       3.31368796E-07
   1.07200003       3.47675581E-07
   1.07900000       3.64401302E-07
   1.08599997       3.81529901E-07
   1.09300005       3.99043017E-07
   1.10000002       4.16920017E-07
   1.10699999       4.35138105E-07
   1.11399996       4.53672101E-07
   1.12100005       4.72494833E-07
   1.12800002       4.91576770E-07
   1.13499999       5.10886252E-07
   1.14199996       5.30389457E-07
   1.14900005       5.50050117E-07
   1.15600002       5.69830320E-07
   1.16299999       5.89689819E-07
   1.16999996       6.09586778E-07
   1.17700005       6.29477540E-07
   1.18400002       6.49316462E-07
   1.19099998       6.69056305E-07
   1.19799995       6.88647901E-07
   1.20500004       7.08041171E-07
   1.21200001       7.27184897E-07
   1.21899998       7.46026160E-07
   1.22599995       7.64511242E-07
   1.23300004       7.82585460E-07
   1.24000001       8.00193448E-07
   1.24699998       8.17279783E-07
   1.25399995       8.33789272E-07
   1.26100004       8.49666378E-07
   1.26800001       8.64855394E-07
   1.27499998       8.79300558E-07
   1.28199995       8.92946900E-07
   1.28900003       9.05741160E-07
   1.29600000       9.17631780E-07
   1.30299997       9.28566863E-07
   1.30999994       9.38495191E-07
   1.31700003       9.47367198E-07
   1.32400000       9.55135761E-07
   1.33099997       9.61756541E-07
   1.33800006       9.67187475E-07
   1.34500003       9.71387635E-07
   1.35200000       9.74317459E-07
   1.35899997       9.75940679E-07
   1.36600006       9.76224783E-07
   1.37300003       9.75141120E-07
   1.38000000       9.72663202E-07
   1.38699996       9.68766585E-07
   1.39400005       9.63430580E-07
   1.40100002       9.56637564E-07
   1.40799999       9.48374350E-07
   1.41499996       9.38631331E-07
   1.42200005       9.27402255E-07
   1.42900002       9.14683312E-07
   1.43599999       9.00474390E-07
   1.44299996       8.84778785E-07
   1.45000005       8.67604683E-07
   1.45700002       8.48964305E-07
   1.46399999       8.28871976E-07
   1.47099996       8.07345657E-07
   1.47800004       7.84406438E-07
   1.48500001       7.60079161E-07
   1.49199998       7.34392131E-07
   1.49899995       7.07376785E-07
   1.50600004       6.79068819E-07
   1.51300001       6.49505637E-07
   1.51999998       6.18726403E-07
   1.52699995       5.86773524E-07
   1.53400004       5.53692189E-07
   1.54100001       5.19531000E-07
   1.54799998       4.84340319E-07
   1.55499995       4.48171932E-07
   1.56200004       4.11078560E-07
   1.56900001       3.73114545E-07
   1.57599998       3.34336676E-07
   1.58299994       2.94803982E-07
   1.59000003       2.54575752E-07
   1.59700000       2.13710749E-07
   1.60399997       1.72267846E-07
   1.61099994       1.30306759E-07
   1.61800003       8.78882744E-08
   1.62500000       4.50733673E-08
   1.63199997       1.92217442E-09
   1.63900006      -4.15063717E-08
   1.64600003      -8.51546176E-08
   1.65300000      -1.28966192E-07
   1.65999997      -1.72884896E-07
   1.66700006      -2.16855739E-07
   1.67400002      -2.60825999E-07
   1.68099999      -3.04745384E-07
   1.68799996      -3.48565806E-07
   1.69500005      -3.92240736E-07
   1.70200002      -4.35725866E-07
   1.70899999      -4.78978791E-07
   1.71599996      -5.21960544E-07
   1.72300005      -5.64636366E-07
   1.73000002      -6.06974481E-07
   1.73699999      -6.48947093E-07
   1.74399996      -6.90529589E-07
   1.75100005      -7.31700595E-07
   1.75800002      -7.72442377E-07
   1.76499999      -8.12741519E-07
   1.77199996      -8.52588869E-07
   1.77900004      -8.91979653E-07
   1.78600001      -9.30912677E-07
   1.79299998      -9.69389816E-07
   1.79999995      -1.00741738E-06
   1.80700004      -1.04500668E-06
   1.81400001      -1.08217318E-06
   1.82099998      -1.11893587E-06
   1.82799995      -1.15531770E-06
   1.83500004      -1.19134393E-06
   1.84200001      -1.22704296E-06
   1.84899998      -1.26244788E-06
   1.85599995      -1.29759576E-06
   1.86300004      -1.33252786E-06
   1.87000000      -1.36728863E-06
   1.87699997      -1.40192435E-06
   1.88399994      -1.43648322E-06
   1.89100003      -1.47101707E-06
   1.89800000      -1.50558071E-06
   1.90499997      -1.54023076E-06
   1.91199994      -1.57502575E-06
   1.91900003      -1.61002265E-06
   1.92600000      -1.64528012E-06
   1.93299997      -1.68085762E-06
   1.94000006      -1.71681813E-06
   1.94700003      -1.75322464E-06
   1.95400000      -1.79014103E-06
   1.96099997      -1.82762687E-06
   1.96800005      -1.86573925E-06
   1.97500002      -1.90453613E-06
   1.98199999      -1.94407721E-06
   1.98899996      -1.98442126E-06
   1.99600005      -2.02562387E-06
   2.00300002      -2.06773575E-06
   2.00999999      -2.11080487E-06
   2.01699996      -2.15487830E-06
   2.02399993      -2.20000220E-06
   2.03099990      -2.24622181E-06
   2.03800011      -2.29357579E-06
   2.04500008      -2.34209620E-06
   2.05200005      -2.39181009E-06
   2.05900002      -2.44274202E-06
   2.06599998      -2.49491450E-06
   2.07299995      -2.54834890E-06
   2.07999992      -2.60305933E-06
   2.08699989      -2.65905351E-06
   2.09400010      -2.71633371E-06
   2.10100007      -2.77490130E-06
   2.10800004      -2.83475197E-06
   2.11500001      -2.89588047E-06
   2.12199998      -2.95827317E-06
   2.12899995      -3.02190870E-06
   2.13599992      -3.08675999E-06
   2.14299989      -3.15279772E-06
   2.15000010      -3.21999050E-06
   2.15700006      -3.28830447E-06
   2.16400003      -3.35769710E-06
   2.17100000      -3.42811950E-06
   2.17799997      -3.49951983E-06
   2.18499994      -3.57184445E-06
   2.19199991      -3.64503762E-06
   2.19899988      -3.71903866E-06
   2.20600009      -3.79377957E-06
   2.21300006      -3.86918964E-06
   2.22000003      -3.94519475E-06
   2.22700000      -4.02171963E-06
   2.23399997      -4.09868926E-06
   2.24099994      -4.17602496E-06
   2.24799991      -4.25364078E-06
   2.25500011      -4.33144714E-06
   2.26200008      -4.40935491E-06
   2.26900005      -4.48727315E-06
   2.27600002      -4.56511043E-06
   2.28299999      -4.64277082E-06
   2.28999996      -4.72015472E-06
   2.29699993      -4.79715982E-06
   2.30399990      -4.87368561E-06
   2.31100011      -4.94962933E-06
   2.31800008      -5.02489456E-06
   2.32500005      -5.09937490E-06
   2.33200002      -5.17296439E-06
   2.33899999      -5.24554980E-06
   2.34599996      -5.31702426E-06
   2.35299993      -5.38728455E-06
   2.35999990      -5.45622697E-06
   2.36700010      -5.52373876E-06
   2.37400007      -5.58970714E-06
   2.38100004      -5.65401751E-06
   2.38800001      -5.71655937E-06
   2.39499998      -5.77723222E-06
   2.40199995      -5.83593146E-06
   2.40899992      -5.89254205E-06
   2.41599989      -5.94694529E-06
   2.42300010      -5.99902751E-06
   2.43000007      -6.04868092E-06
   2.43700004      -6.09580229E-06
   2.44400001      -6.14028886E-06
   2.45099998      -6.18202739E-06
   2.45799994      -6.22090056E-06
   2.46499991      -6.25680150E-06
   2.47199988      -6.28962971E-06
   2.47900009      -6.31929061E-06
   2.48600006      -6.34568323E-06
   2.49300003      -6.36870209E-06
   2.50000000      -6.38824076E-06
   2.50699997      -6.40419785E-06
   2.51399994      -6.41648421E-06
   2.52099991      -6.42501391E-06
   2.52800012      -6.42969917E-06
   2.53500009      -6.43044950E-06
   2.54200006      -6.42717168E-06
   2.54900002      -6.41978841E-06
   2.55599999      -6.40823282E-06
   2.56299996      -6.39243626E-06
   2.56999993      -6.37232915E-06
   2.57699990      -6.34784419E-06
   2.58400011      -6.31891999E-06
   2.59100008      -6.28550424E-06
   2.59800005      -6.24755967E-06
   2.60500002      -6.20505125E-06
   2.61199999      -6.15794215E-06
   2.61899996      -6.10619918E-06
   2.62599993      -6.04980369E-06
   2.63299990      -5.98875113E-06
   2.64000010      -5.92304423E-06
   2.64700007      -5.85268936E-06
   2.65400004      -5.77769470E-06
   2.66100001      -5.69807980E-06
   2.66799998      -5.61387606E-06
   2.67499995      -5.52513166E-06
   2.68199992      -5.43190208E-06
   2.68899989      -5.33424463E-06
   2.69600010      -5.23222434E-06
   2.70300007      -5.12591714E-06
   2.71000004      -5.01541535E-06
   2.71700001      -4.90082812E-06
   2.72399998      -4.78227275E-06
   2.73099995      -4.65986932E-06
   2.73799992      -4.53374241E-06
   2.74499989      -4.40403119E-06
   2.75200009      -4.27088753E-06
   2.75900006      -4.13448060E-06
   2.76600003      -3.99498458E-06
   2.77300000      -3.85257226E-06
   2.77999997      -3.70742282E-06
   2.78699994      -3.55972861E-06
   2.79399991      -3.40969950E-06
   2.80100012      -3.25755536E-06
   2.80800009      -3.10351561E-06
   2.81500006      -2.94779807E-06
   2.82200003      -2.79062488E-06
   2.82900000      -2.63223251E-06
   2.83599997      -2.47286948E-06
   2.84299994      -2.31278796E-06
   2.84999990      -2.15223554E-06
   2.85700011      -1.99145393E-06
   2.86400008      -1.83068732E-06
   2.87100005      -1.67018925E-06
   2.87800002      -1.51021902E-06
   2.88499999      -1.35103392E-06
   2.89199996      -1.19288200E-06
   2.89899993      -1.03600223E-06
   2.90599990      -8.80632456E-07
   2.91300011      -7.27018744E-07
   2.92000008      -5.75409615E-07
   2.92700005      -4.26044892E-07
   2.93400002      -2.79148679E-07
   2.94099998      -1.34931298E-07
   2.94799995       6.39948849E-09
   2.95499992       1.44633759E-07
   2.96199989       2.79565540E-07
   2.96900010       4.11003214E-07
   2.97600007       5.38775453E-07
   2.98300004       6.62725256E-07
   2.99000001       7.82698919E-07
   2.99699998       8.98543021E-07
   3.00399995       1.01011062E-06
   3.01099992       1.11727422E-06
   3.01799989       1.21992866E-06
   3.02500010       1.31798186E-06
   3.03200006       1.41134660E-06
   3.03900003       1.49993843E-06
   3.04600000       1.58368437E-06
   3.05299997       1.66253244E-06
   3.05999994       1.73645174E-06
   3.06699991       1.80542315E-06
   3.07399988       1.86943169E-06
   3.08100009       1.92846392E-06
   3.08800006       1.98251928E-06
   3.09500003       2.03161676E-06
   3.10200000       2.07579365E-06
   3.10899997       2.11509632E-06
   3.11599994       2.14957277E-06
   3.12299991       2.17927345E-06
   3.13000011       2.20426273E-06
   3.13700008       2.22462222E-06
   3.14400005       2.24044857E-06
   3.15100002       2.25184363E-06
   3.15799999       2.25890517E-06
   3.16499996       2.26173347E-06
   3.17199993       2.26044108E-06
   3.17899990       2.25515419E-06
   3.18600011       2.24600853E-06
   3.19300008       2.23314123E-06
   3.20000005       2.21668279E-06
   3.20700002       2.19676440E-06
   3.21399999       2.17352749E-06
   3.22099996       2.14712600E-06
   3.22799993       2.11771930E-06
   3.23499990       2.08545862E-06
   3.24200010       2.05048786E-06
   3.24900007       2.01295074E-06
   3.25600004       1.97300074E-06
   3.26300001       1.93080041E-06
   3.26999998       1.88651177E-06
   3.27699995       1.84028602E-06
   3.28399992       1.79226288E-06
   3.29099989       1.74258230E-06
   3.29800010       1.69139400E-06
   3.30500007       1.63885329E-06
   3.31200004       1.58511114E-06
   3.31900001       1.53030373E-06
   3.32599998       1.47455785E-06
   3.33299994       1.41800274E-06
   3.33999991       1.36077597E-06
   3.34699988       1.30301589E-06
   3.35400009       1.24485166E-06
   3.36100006       1.18639707E-06
   3.36800003       1.12775626E-06
   3.37500000       1.06903781E-06
   3.38199997       1.01035914E-06
   3.38899994       9.51836398E-07
   3.39599991       8.93574452E-07
   3.40300012       8.35664196E-07
   3.41000009       7.78190724E-07
   3.41700006       7.21244930E-07
   3.42400002       6.64923334E-07
   3.43099999       6.09319272E-07
   3.43799996       5.54511303E-07
   3.44499993       5.00563942E-07
   3.45199990       4.47538781E-07
   3.45900011       3.95504173E-07
   3.46600008       3.44533788E-07
   3.47300005       2.94694104E-07
   3.48000002       2.46035910E-07
   3.48699999       1.98598087E-07
   3.49399996       1.52420739E-07
   3.50099993       1.07553802E-07
   3.50799990       6.40516831E-08
   3.51500010       2.19594458E-08
   3.52200007      -1.86938909E-08
   3.52900004      -5.78888226E-08
   3.53600001      -9.56024380E-08
   3.54299998      -1.31803858E-07
   3.54999995      -1.66462470E-07
   3.55699992      -1.99561441E-07
   3.56399989      -2.31100785E-07
   3.57100010      -2.61086399E-07
   3.57800007      -2.89516493E-07
   3.58500004      -3.16379726E-07
   3.59200001      -3.41666606E-07
   3.59899998      -3.65383244E-07
   3.60599995      -3.87552319E-07
   3.61299992      -4.08199213E-07
   3.61999989      -4.27341064E-07
   3.62700009      -4.44987364E-07
   3.63400006      -4.61153803E-07
   3.64100003      -4.75873748E-07
   3.64800000      -4.89194804E-07
   3.65499997      -5.01162674E-07
   3.66199994      -5.11811265E-07
   3.66899991      -5.21169056E-07
   3.67600012      -5.29274644E-07
   3.68300009      -5.36187144E-07
   3.69000006      -5.41978352E-07
   3.69700003      -5.46715171E-07
   3.70400000      -5.50450750E-07
   3.71099997      -5.53232383E-07
   3.71799994      -5.55119243E-07
   3.72499990      -5.56189889E-07
   3.73200011      -5.56530267E-07
   3.73900008      -5.56215298E-07
   3.74600005      -5.55304382E-07
   3.75300002      -5.53855216E-07
   3.75999999      -5.51940047E-07
   3.76699996      -5.49650053E-07
   3.77399993      -5.47079196E-07
   3.78099990      -5.44305180E-07
   3.78800011      -5.41386953E-07
   3.79500008      -5.38381073E-07
   3.80200005      -5.35361039E-07
   3.80900002      -5.32416152E-07
   3.81599998      -5.29632644E-07
   3.82299995      -5.27077134E-07
   3.82999992      -5.24797599E-07
   3.83699989      -5.22844061E-07
   3.84400010      -5.21283766E-07
   3.85100007      -5.20196352E-07
   3.85800004      -5.19651735E-07
   3.86500001      -5.19692833E-07
   3.87199998      -5.20342155E-07
   3.87899995      -5.21624941E-07
   3.88599992      -5.23584049E-07
   3.89299989      -5.26272174E-07
   3.90000010      -5.29727515E-07
   3.90700006      -5.33959621E-07
   3.91400003      -5.38961615E-07
   3.92100000      -5.44734064E-07
   3.92799997      -5.51296296E-07
   3.93499994      -5.58671957E-07
   3.94199991      -5.66863037E-07
   3.94899988      -5.75840147E-07
   3.95600009      -5.85558212E-07
   3.96300006      -5.95982613E-07
   3.97000003      -6.07099082E-07
   3.97700000      -6.18895683E-07
   3.98399997      -6.31337400E-07
   3.99099994      -6.44359773E-07
   3.99799991      -6.57888620E-07
   4.00500011      -6.71865280E-07
   4.01200008      -6.86250416E-07
   4.01900005      -7.01003330E-07
   4.02600002      -7.16056888E-07
   4.03299999      -7.31316675E-07
   4.03999996      -7.46685657E-07
   4.04699993      -7.62089655E-07
   4.05399990      -7.77477510E-07
   4.06099987      -7.92794822E-07
   4.06799984      -8.07960248E-07
   4.07499981      -8.22867264E-07
   4.08199978      -8.37412074E-07
   4.08900023      -8.51516177E-07
   4.09600019      -8.65122956E-07
   4.10300016      -8.78170738E-07
   4.11000013      -8.90572380E-07
   4.11700010      -9.02223178E-07
   4.12400007      -9.13030874E-07
   4.13100004      -9.22935897E-07
   4.13800001      -9.31901184E-07
   4.14499998      -9.39881602E-07
   4.15199995      -9.46804846E-07
   4.15899992      -9.52584685E-07
   4.16599989      -9.57152338E-07
   4.17299986      -9.60474040E-07
   4.17999983      -9.62538252E-07
   4.18699980      -9.63323373E-07
   4.19399977      -9.62783247E-07
   4.20100021      -9.60864440E-07
   4.20800018      -9.57538191E-07
   4.21500015      -9.52812456E-07
   4.22200012      -9.46712305E-07
   4.22900009      -9.39248594E-07
   4.23600006      -9.30407680E-07
   4.24300003      -9.20172681E-07
   4.25000000      -9.08554966E-07
   4.25699997      -8.95603137E-07
   4.26399994      -8.81379890E-07
   4.27099991      -8.65930701E-07
   4.27799988      -8.49277399E-07
   4.28499985      -8.31441810E-07
   4.29199982      -8.12476856E-07
   4.29899979      -7.92469507E-07
   4.30600023      -7.71513442E-07
   4.31300020      -7.49681419E-07
   4.32000017      -7.27020790E-07
   4.32700014      -7.03582884E-07
   4.33400011      -6.79449386E-07
   4.34100008      -6.54731252E-07
   4.34800005      -6.29539272E-07
   4.35500002      -6.03958256E-07
   4.36199999      -5.78050106E-07
   4.36899996      -5.51881783E-07
   4.37599993      -5.25551116E-07
   4.38299990      -4.99180317E-07
   4.38999987      -4.72884892E-07
   4.39699984      -4.46750448E-07
   4.40399981      -4.20840308E-07
   4.41099977      -3.95224731E-07
   4.41800022      -3.70001317E-07
   4.42500019      -3.45284064E-07
   4.43200016      -3.21174156E-07
   4.43900013      -2.97739120E-07
   4.44600010      -2.75024661E-07
   4.45300007      -2.53083840E-07
   4.46000004      -2.31994278E-07
   4.46700001      -2.11844224E-07
   4.47399998      -1.92704093E-07
   4.48099995      -1.74610349E-07
   4.48799992      -1.57582249E-07
   4.49499989      -1.41648940E-07
   4.50199986      -1.26861565E-07
   4.50899982      -1.13276570E-07
   4.51599979      -1.00926982E-07
   4.52299976      -8.98123318E-08
   4.53000021      -7.99164468E-08
   4.53700018      -7.12339556E-08
   4.54400015      -6.37783799E-08
   4.55100012      -5.75631169E-08
   4.55800009      -5.25779988E-08
   4.56500006      -4.87833844E-08
   4.57200003      -4.61299123E-08
   4.57900000      -4.45829293E-08
   4.58599997      -4.41248353E-08
   4.59299994      -4.47354935E-08
   4.59999990      -4.63711771E-08
   4.60699987      -4.89639902E-08
   4.61399984      -5.24410559E-08
   4.62099981      -5.67451259E-08
   4.62799978      -6.18337239E-08
   4.63500023      -6.76602667E-08
   4.64200020      -7.41563753E-08
   4.64900017      -8.12352212E-08
   4.65600014      -8.88111060E-08
   4.66300011      -9.68150289E-08
   4.67000008      -1.05191781E-07
   4.67700005      -1.13881320E-07
   4.68400002      -1.22805758E-07
   4.69099998      -1.31876121E-07
   4.69799995      -1.41010318E-07
   4.70499992      -1.50143990E-07
   4.71199989      -1.59223546E-07
   4.71899986      -1.68190212E-07
   4.72599983      -1.76972335E-07
   4.73299980      -1.85493136E-07
   4.73999977      -1.93686688E-07
   4.74700022      -2.01503312E-07
   4.75400019      -2.08901341E-07
   4.76100016      -2.15835087E-07
   4.76800013      -2.22250506E-07
   4.77500010      -2.28093356E-07
   4.78200006      -2.33321302E-07
   4.78900003      -2.37907017E-07
   4.79600000      -2.41828843E-07
   4.80299997      -2.45060477E-07
   4.80999994      -2.47570682E-07
   4.81699991      -2.49331947E-07
   4.82399988      -2.50328753E-07
   4.83099985      -2.50556013E-07
   4.83799982      -2.50011141E-07
   4.84499979      -2.48689133E-07
   4.85200024      -2.46584705E-07
   4.85900021      -2.43699645E-07
   4.86600018      -2.40046035E-07
   4.87300014      -2.35641892E-07
   4.88000011      -2.30503233E-07
   4.88700008      -2.24642562E-07
   4.89400005      -2.18074916E-07
   4.90100002      -2.10823288E-07
   4.90799999      -2.02918173E-07
   4.91499996      -1.94389528E-07
   4.92199993      -1.85263715E-07
   4.92899990      -1.75566413E-07
   4.93599987      -1.65329325E-07
   4.94299984      -1.54591234E-07
   4.94999981      -1.43393251E-07
   4.95699978      -1.31770392E-07
   4.96400023      -1.19751434E-07
   4.97100019      -1.07367221E-07
   4.97800016      -9.46567340E-08
   4.98500013      -8.16677499E-08
   4.99200010      -6.84465178E-08