  -1.00000000       9.99999921E-25
 -0.992999971       9.99999921E-25
 -0.986000001       1.00000820E-24
 -0.978999972       1.00028707E-24
 -0.972000003       1.00362898E-24
 -0.964999974       1.02533774E-24
 -0.958000004       1.11564358E-24
 -0.950999975       1.37021718E-24
 -0.944000006       1.82092782E-24
 -0.936999977       1.96990835E-24
 -0.930000007      -3.68453633E-25
 -0.922999978      -1.11851665E-23
 -0.916000009      -4.32397792E-23
 -0.908999979      -1.18975409E-22
 -0.902000010      -2.71416972E-22
 -0.894999981      -5.40165298E-22
 -0.888000011      -9.59681578E-22
 -0.880999982      -1.53900184E-21
 -0.874000013      -2.23583971E-21
 -0.866999984      -2.93202933E-21
 -0.860000014      -3.41832590E-21
 -0.852999985      -3.39235978E-21
 -0.846000016      -2.46549017E-21
 -0.838999987      -1.69411590E-22
 -0.832000017       4.03884626E-21
 -0.824999988       1.07496951E-20
 -0.818000019       2.04935855E-20
 -0.810999990       3.34771335E-20
 -0.804000020       4.91164726E-20
 -0.796999991       6.54215079E-20
 -0.790000021       7.84426684E-20
 -0.782999992       8.21487219E-20
 -0.776000023       6.91622448E-20
 -0.768999994       3.26407053E-20
 -0.762000024      -3.07871583E-20
 -0.754999995      -1.17666029E-19
 -0.748000026      -2.15090211E-19
 -0.740999997      -3.00162880E-19
 -0.734000027      -3.42540868E-19
 -0.726999998      -3.10129037E-19
 -0.720000029      -1.76725173E-19
 -0.713000000       7.06337151E-20
 -0.705999970       4.27088653E-19
 -0.699000001       8.69624594E-19
 -0.691999972       1.36046075E-18
 -0.685000002       1.85143328E-18
 -0.677999973       2.28544130E-18
 -0.671000004       2.59194398E-18
 -0.663999975       2.67676391E-18
 -0.657000005       2.41111630E-18
 -0.649999976       1.62864253E-18
 -0.643000007       1.39729301E-19
 -0.635999978      -2.23216736E-18
 -0.629000008      -5.59663661E-18
 -0.621999979      -9.93993743E-18
 -0.615000010      -1.50881747E-17
 -0.607999980      -2.07102418E-17
 -0.601000011      -2.63679024E-17
 -0.593999982      -3.15991497E-17
 -0.587000012      -3.59992874E-17
 -0.579999983      -3.92531148E-17
 -0.573000014      -4.10806645E-17
 -0.565999985      -4.10906403E-17
 -0.559000015      -3.85830125E-17
 -0.551999986      -3.23875984E-17
 -0.545000017      -2.08475885E-17
 -0.537999988      -2.03855850E-18
 -0.531000018       2.57495369E-17
 -0.523999989       6.33329645E-17
 -0.517000020       1.09915369E-16
 -0.509999990       1.62542314E-16
 -0.503000021       2.15930364E-16
 -0.495999992       2.62789140E-16
 -0.488999993       2.94622041E-16
 -0.481999993       3.02855916E-16
 -0.474999994       2.80065515E-16
 -0.467999995       2.21054754E-16
 -0.460999995       1.23642471E-16
 -0.453999996      -1.08721352E-17
 -0.446999997      -1.77478284E-16
 -0.439999998      -3.67341381E-16
 -0.432999998      -5.67772749E-16
 -0.425999999      -7.62400274E-16
 -0.419000000      -9.31813216E-16
 -0.412000000      -1.05500166E-15
 -0.405000001      -1.11177479E-15
 -0.398000002      -1.08602096E-15
 -0.391000003      -9.69250590E-16
 -0.384000003      -7.63504646E-16
 -0.377000004      -4.82608351E-16
 -0.370000005      -1.51003303E-16
 -0.363000005       1.99997303E-16
 -0.356000006       5.37878839E-16
 -0.349000007       8.35151616E-16
 -0.342000008       1.07441407E-15
 -0.335000008       1.25074336E-15
 -0.328000009       1.37065686E-15
 -0.321000010       1.44796545E-15
 -0.314000010       1.49784171E-15
 -0.307000011       1.53099564E-15
 -0.300000012       1.54971401E-15
 -0.293000013       1.54674230E-15
 -0.286000013       1.50685658E-15
 -0.279000014       1.40997623E-15
 -0.272000015       1.23425088E-15
 -0.264999986       9.57930101E-16
 -0.257999986       5.59867655E-16
 -0.250999987       1.97265487E-17
 -0.244000003      -6.80271748E-16
 -0.237000003      -1.55038115E-15
 -0.230000004      -2.58473756E-15
 -0.223000005      -3.75069662E-15
 -0.216000006      -4.97958134E-15
 -0.209000006      -6.16325652E-15
 -0.202000007      -7.16026935E-15
 -0.194999993      -7.81289215E-15
 -0.187999994      -7.97295681E-15
 -0.180999994      -7.53099704E-15
 -0.173999995      -6.44125188E-15
 -0.166999996      -4.73550202E-15
 -0.159999996      -2.52152920E-15
 -0.152999997       3.34895056E-17
 -0.145999998       2.72973795E-15
 -0.138999999       5.36375906E-15
 -0.131999999       7.75154409E-15
 -0.125000000       9.74034018E-15
 -0.118000001       1.12085481E-14
 -0.111000001       1.20580265E-14
 -0.104000002       1.22062267E-14
  -9.70000029E-02   1.15855134E-14
  -9.00000036E-02   1.01536194E-14
  -8.29999968E-02   7.91377123E-15
  -7.59999976E-02   4.93762102E-15
  -6.89999983E-02   1.38124816E-15
  -6.19999990E-02  -2.51460153E-15
  -5.49999997E-02  -6.44403269E-15
  -4.80000004E-02  -1.00723390E-14
  -4.10000011E-02  -1.30797583E-14
  -3.40000018E-02  -1.52000740E-14
  -2.70000007E-02  -1.62431392E-14
  -1.99999996E-02  -1.60966770E-14
  -1.30000003E-02  -1.47113648E-14
  -6.00000005E-03  -1.20807651E-14
   1.00000005E-03  -8.23097151E-15
   8.00000038E-03  -3.23170047E-15
   1.49999997E-02   2.76826948E-15
   2.19999999E-02   9.49023253E-15
   2.89999992E-02   1.64786109E-14
   3.59999985E-02   2.30817613E-14
   4.30000015E-02   2.84805443E-14
   5.00000007E-02   3.17726090E-14
   5.70000000E-02   3.21035618E-14
   6.40000030E-02   2.88201537E-14
   7.10000023E-02   2.16107751E-14
   7.80000016E-02   1.05991342E-14
   8.50000009E-02  -3.63198876E-15
   9.20000002E-02  -2.00915249E-14
   9.89999995E-02  -3.74903220E-14
  0.105999999      -5.43813346E-14
  0.112999998      -6.92964973E-14
  0.119999997      -8.08547294E-14
  0.127000004      -8.78320921E-14
  0.134000003      -8.92035266E-14
  0.141000003      -8.41791169E-14
  0.148000002      -7.22594998E-14
  0.155000001      -5.33244340E-14
  0.162000000      -2.77480167E-14
  0.169000000       3.48811895E-15
  0.175999999       3.87276474E-14
  0.182999998       7.56626004E-14
  0.189999998       1.11474401E-13
  0.196999997       1.43091051E-13
  0.203999996       1.67524347E-13
  0.210999995       1.82225071E-13
  0.217999995       1.85384626E-13
  0.224999994       1.76125106E-13
  0.231999993       1.54550201E-13
  0.238999993       1.21669561E-13
  0.246000007       7.92426563E-14
  0.252999991       2.96035779E-14
  0.259999990      -2.44802669E-14
  0.266999990      -7.98939772E-14
  0.273999989      -1.33224066E-13
  0.280999988      -1.80823753E-13
  0.287999988      -2.18959941E-13
  0.294999987      -2.44089444E-13
  0.301999986      -2.53266971E-13
  0.308999985      -2.44628943E-13
  0.316000015      -2.17847008E-13
  0.323000014      -1.74423830E-13
  0.330000013      -1.17721845E-13
  0.337000012      -5.26744481E-14
  0.344000012       1.47898271E-14
  0.351000011       7.85007774E-14
  0.358000010       1.32818832E-13
  0.365000010       1.73265428E-13
  0.372000009       1.96897782E-13
  0.379000008       2.02396896E-13
  0.386000007       1.89923625E-13
  0.393000007       1.60859715E-13
  0.400000006       1.17563416E-13
  0.407000005       6.32282516E-14
  0.414000005       1.85514530E-15
  0.421000004      -6.17360709E-14
  0.428000003      -1.21984589E-13
  0.435000002      -1.72882718E-13
  0.442000002      -2.08548158E-13
  0.449000001      -2.24028383E-13
  0.456000000      -2.16177580E-13
  0.463000000      -1.84372455E-13
  0.469999999      -1.30833685E-13
  0.476999998      -6.04044538E-14
  0.483999997       2.02151223E-14
  0.490999997       1.03612729E-13
  0.497999996       1.82898239E-13
  0.504999995       2.52698849E-13
  0.512000024       3.09654781E-13
  0.518999994       3.52312770E-13
  0.526000023       3.80510239E-13
  0.532999992       3.94512006E-13
  0.540000021       3.94239003E-13
  0.546999991       3.78888761E-13
  0.554000020       3.47095779E-13
  0.560999990       2.97573435E-13
  0.568000019       2.29989232E-13
  0.574999988       1.45723264E-13
  0.582000017       4.81919734E-14
  0.588999987      -5.74277361E-14
  0.596000016      -1.65012426E-13
  0.602999985      -2.68570919E-13
  0.610000014      -3.63199434E-13
  0.616999984      -4.45557518E-13
  0.624000013      -5.13688376E-13
  0.630999982      -5.66270338E-13
  0.638000011      -6.01635658E-13
  0.644999981      -6.17033334E-13
  0.652000010      -6.08563276E-13
  0.658999979      -5.71991890E-13
  0.666000009      -5.04317020E-13
  0.672999978      -4.05622801E-13
  0.680000007      -2.80563279E-13
  0.686999977      -1.38840965E-13
  0.694000006       5.69602128E-15
  0.700999975       1.37290082E-13
  0.708000004       2.41346006E-13
  0.714999974       3.07525571E-13
  0.722000003       3.31990159E-13
  0.728999972       3.18146036E-13
  0.736000001       2.75701147E-13
  0.742999971       2.18367994E-13
  0.750000000       1.60963202E-13
  0.757000029       1.16805789E-13
  0.763999999       9.61430981E-14
  0.771000028       1.05898824E-13
  0.777999997       1.50495962E-13
  0.785000026       2.33071212E-13
  0.791999996       3.56240563E-13
  0.799000025       5.21774518E-13
  0.805999994       7.29036677E-13
  0.813000023       9.72650671E-13
  0.819999993       1.24034452E-12
  0.827000022       1.51207649E-12
  0.833999991       1.76126952E-12
  0.841000021       1.95833367E-12
  0.847999990       2.07586335E-12
  0.855000019       2.09421543E-12
  0.861999989       2.00589740E-12
  0.869000018       1.81743487E-12
  0.875999987       1.54809444E-12
  0.883000016       1.22580863E-12
  0.889999986       8.81516160E-13
  0.897000015       5.43611055E-13
  0.903999984       2.34094428E-13
  0.911000013      -3.26405027E-14
  0.917999983      -2.48439236E-13
  0.925000012      -4.08438555E-13
  0.931999981      -5.08098012E-13
  0.939000010      -5.41736794E-13
  0.945999980      -5.03425101E-13
  0.953000009      -3.90059621E-13
  0.959999979      -2.05441594E-13
  0.967000008       3.64353289E-14
  0.973999977       3.10573615E-13
  0.981000006       5.83598708E-13
  0.987999976       8.19543977E-13
  0.995000005       9.87324046E-13
   1.00199997       1.06766289E-12
   1.00899994       1.05724099E-12
   1.01600003       9.68626221E-13
   1.02300000       8.25910358E-13
   1.02999997       6.57401163E-13
   1.03699994       4.87740436E-13
   1.04400003       3.31950423E-13
   1.05100000       1.93234290E-13
   1.05799997       6.49345351E-14
   1.06500006      -6.44722990E-14
   1.07200003      -2.05632129E-13
   1.07900000      -3.64458843E-13
   1.08599997      -5.42078914E-13
   1.09300005      -7.39065601E-13
   1.10000002      -9.62822161E-13
   1.10699999      -1.23558433E-12
   1.11399996      -1.60008497E-12
   1.12100005      -2.12066020E-12
   1.12800002      -2.87893299E-12
   1.13499999      -3.96529727E-12
   1.14199996      -5.46872183E-12
   1.14900005      -7.46835493E-12
   1.15600002      -1.00296074E-11
   1.16299999      -1.32059580E-11
   1.16999996      -1.70458977E-11
   1.17700005      -2.16022287E-11
   1.18400002      -2.69404481E-11
   1.19099998      -3.31429849E-11
   1.19799995      -4.03079133E-11
   1.20500004      -4.85425034E-11
   1.21200001      -5.79542178E-11
   1.21899998      -6.86430079E-11
   1.22599995      -8.06982051E-11
   1.23300004      -9.42019379E-11
   1.24000001      -1.09239173E-10
   1.24699998      -1.25911379E-10
   1.25399995      -1.44350365E-10
   1.26100004      -1.64727940E-10
   1.26800001      -1.87258625E-10
   1.27499998      -2.12195636E-10
   1.28199995      -2.39821635E-10
   1.28900003      -2.70438838E-10
   1.29600000      -3.04362258E-10
   1.30299997      -3.41918993E-10
   1.30999994      -3.83454435E-10
   1.31700003      -4.29343339E-10
   1.32400000      -4.80001816E-10
   1.33099997      -5.35895828E-10
   1.33800006      -5.97542904E-10
   1.34500003      -6.65506705E-10
   1.35200000      -7.40385753E-10
   1.35899997      -8.22800938E-10
   1.36600006      -9.13387976E-10
   1.37300003      -1.01279829E-09
   1.38000000      -1.12170928E-09
   1.38699996      -1.24084254E-09
   1.39400005      -1.37098721E-09
   1.40100002      -1.51302015E-09
   1.40799999      -1.66792169E-09
   1.41499996      -1.83677862E-09
   1.42200005      -2.02078021E-09
   1.42900002      -2.22120788E-09
   1.43599999      -2.43942222E-09
   1.44299996      -2.67685918E-09
   1.45000005      -2.93502733E-09
   1.45700002      -3.21551563E-09
   1.46399999      -3.52000495E-09
   1.47099996      -3.85027610E-09
   1.47800004      -4.20821333E-09
   1.48500001      -4.59579885E-09
   1.49199998      -5.01509367E-09
   1.49899995      -5.46821965E-09
   1.50600004      -5.95733907E-09
   1.51300001      -6.48464171E-09
   1.51999998      -7.05233960E-09
   1.52699995      -7.66267672E-09
   1.53400004      -8.31794189E-09
   1.54100001      -9.02048036E-09
   1.54799998      -9.77270265E-09
   1.55499995      -1.05770823E-08
   1.56200004      -1.14361338E-08
   1.56900001      -1.23523920E-08
   1.57599998      -1.33283748E-08
   1.58299994      -1.43665533E-08
   1.59000003      -1.54693307E-08
   1.59700000      -1.66390315E-08
   1.60399997      -1.78779054E-08
   1.61099994      -1.91881160E-08
   1.61800003      -2.05717505E-08
   1.62500000      -2.20308003E-08
   1.63199997      -2.35671465E-08
   1.63900006      -2.51825298E-08
   1.64600003      -2.68785207E-08
   1.65300000      -2.86564763E-08
   1.65999997      -3.05175263E-08
   1.66700006      -3.24625731E-08
   1.67400002      -3.44922491E-08
   1.68099999      -3.66069557E-08
   1.68799996      -3.88068599E-08
   1.69500005      -4.10918553E-08
   1.70200002      -4.34615544E-08
   1.70899999      -4.59152538E-08
   1.71599996      -4.84519092E-08
   1.72300005      -5.10700993E-08
   1.73000002      -5.37679945E-08
   1.73699999      -5.65433567E-08
   1.74399996      -5.93935283E-08
   1.75100005      -6.23154506E-08
   1.75800002      -6.53056986E-08
   1.76499999      -6.83604569E-08
   1.77199996      -7.14755330E-08
   1.77900004      -7.46463868E-08
   1.78600001      -7.78680445E-08
   1.79299998      -8.11351271E-08
   1.79999995      -8.44418437E-08
   1.80700004      -8.77820199E-08
   1.81400001      -9.11490332E-08
   1.82099998      -9.45358636E-08
   1.82799995      -9.79351213E-08
   1.83500004      -1.01339083E-07
   1.84200001      -1.04739676E-07
   1.84899998      -1.08128489E-07
   1.85599995      -1.11496774E-07
   1.86300004      -1.14835458E-07
   1.87000000      -1.18135127E-07
   1.87699997      -1.21386066E-07
   1.88399994      -1.24578278E-07
   1.89100003      -1.27701497E-07
   1.89800000      -1.30745264E-07
   1.90499997      -1.33698961E-07
   1.91199994      -1.36551762E-07
   1.91900003      -1.39292709E-07
   1.92600000      -1.41910775E-07
   1.93299997      -1.44394818E-07
   1.94000006      -1.46733569E-07
   1.94700003      -1.48915660E-07
   1.95400000      -1.50929736E-07
   1.96099997      -1.52764358E-07
   1.96800005      -1.54408212E-07
   1.97500002      -1.55850074E-07
   1.98199999      -1.57078873E-07
   1.98899996      -1.58083651E-07
   1.99600005      -1.58853695E-07
   2.00300002      -1.59378502E-07
   2.00999999      -1.59647854E-07
   2.01699996      -1.59651918E-07
   2.02399993      -1.59381145E-07
   2.03099990      -1.58826467E-07
   2.03800011      -1.57979159E-07
   2.04500008      -1.56831035E-07
   2.05200005      -1.55374480E-07
   2.05900002      -1.53602443E-07
   2.06599998      -1.51508459E-07
   2.07299995      -1.49086574E-07
   2.07999992      -1.46331402E-07
   2.08699989      -1.43238225E-07
   2.09400010      -1.39803063E-07
   2.10100007      -1.36022720E-07
   2.10800004      -1.31894723E-07
   2.11500001      -1.27417479E-07
   2.12199998      -1.22590180E-07
   2.12899995      -1.17412888E-07
   2.13599992      -1.11886543E-07
   2.14299989      -1.06012983E-07
   2.15000010      -9.97949527E-08
   2.15700006      -9.32360606E-08
   2.16400003      -8.63408047E-08
   2.17100000      -7.91146775E-08
   2.17799997      -7.15641590E-08
   2.18499994      -6.36967812E-08
   2.19199991      -5.55209994E-08
   2.19899988      -4.70461501E-08
   2.20600009      -3.82824688E-08
   2.21300006      -2.92410469E-08
   2.22000003      -1.99338555E-08
   2.22700000      -1.03737152E-08
   2.23399997      -5.74205739E-10
   2.24099994       9.45034362E-09
   2.24799991       1.96848600E-08
   2.25500011       3.01135330E-08
   2.26200008       4.07199252E-08
   2.26900005       5.14870706E-08
   2.27600002       6.23975609E-08
   2.28299999       7.34336680E-08
   2.28999996       8.45774295E-08
   2.29699993       9.58106483E-08
   2.30399990       1.07114921E-07
   2.31100011       1.18471696E-07
   2.31800008       1.29862329E-07
   2.32500005       1.41268160E-07
   2.33200002       1.52670580E-07
   2.33899999       1.64051116E-07
   2.34599996       1.75391577E-07
   2.35299993       1.86674100E-07
   2.35999990       1.97881334E-07
   2.36700010       2.08996354E-07
   2.37400007       2.20002917E-07
   2.38100004       2.30885291E-07
   2.38800001       2.41628243E-07
   2.39499998       2.52217319E-07
   2.40199995       2.62638849E-07
   2.40899992       2.72879873E-07
   2.41599989       2.82928482E-07
   2.42300010       2.92773791E-07
   2.43000007       3.02405795E-07
   2.43700004       3.11815654E-07
   2.44400001       3.20995582E-07
   2.45099998       3.29938729E-07
   2.45799994       3.38639182E-07
   2.46499991       3.47092168E-07
   2.47199988       3.55293651E-07
   2.47900009       3.63240758E-07
   2.48600006       3.70931588E-07
   2.49300003       3.78365343E-07
   2.50000000       3.85542165E-07
   2.50699997       3.92463420E-07
   2.51399994       3.99131125E-07
   2.52099991       4.05548235E-07
   2.52800012       4.11718304E-07
   2.53500009       4.17645680E-07
   2.54200006       4.23335166E-07
   2.54900002       4.28792134E-07
   2.55599999       4.34022525E-07
   2.56299996       4.39032760E-07
   2.56999993       4.43829776E-07
   2.57699990       4.48420849E-07
   2.58400011       4.52813623E-07
   2.59100008       4.57015943E-07
   2.59800005       4.61035739E-07
   2.60500002       4.64880884E-07
   2.61199999       4.68559136E-07
   2.61899996       4.72078256E-07
   2.62599993       4.75445887E-07
   2.63299990       4.78669619E-07
   2.64000010       4.81757013E-07
   2.64700007       4.84715486E-07
   2.65400004       4.87552313E-07
   2.66100001       4.90274317E-07
   2.66799998       4.92888319E-07
   2.67499995       4.95400514E-07
   2.68199992       4.97816643E-07
   2.68899989       5.00142164E-07
   2.69600010       5.02382022E-07
   2.70300007       5.04540992E-07
   2.71000004       5.06623564E-07
   2.71700001       5.08634116E-07
   2.72399998       5.10576967E-07
   2.73099995       5.12455870E-07
   2.73799992       5.14274632E-07
   2.74499989       5.16036380E-07
   2.75200009       5.17744468E-07
   2.75900006       5.19401794E-07
   2.76600003       5.21011088E-07
   2.77300000       5.22574965E-07
   2.77999997       5.24096038E-07
   2.78699994       5.25577150E-07
   2.79399991       5.27021314E-07
   2.80100012       5.28431656E-07
   2.80800009       5.29811359E-07
   2.81500006       5.31163721E-07
   2.82200003       5.32492095E-07
   2.82900000       5.33799891E-07
   2.83599997       5.35090692E-07
   2.84299994       5.36368248E-07
   2.84999990       5.37636765E-07
   2.85700011       5.38900338E-07
   2.86400008       5.40163626E-07
   2.87100005       5.41431575E-07
   2.87800002       5.42709301E-07
   2.88499999       5.44001921E-07
   2.89199996       5.45314890E-07
   2.89899993       5.46653382E-07
   2.90599990       5.48022513E-07
   2.91300011       5.49427455E-07
   2.92000008       5.50873096E-07
   2.92700005       5.52364440E-07
   2.93400002       5.53906204E-07
   2.94099998       5.55502822E-07
   2.94799995       5.57158387E-07
   2.95499992       5.58876309E-07
   2.96199989       5.60659487E-07
   2.96900010       5.62509797E-07
   2.97600007       5.64428376E-07
   2.98300004       5.66415167E-07
   2.99000001       5.68469147E-07
   2.99699998       5.70588043E-07
   3.00399995       5.72768784E-07
   3.01099992       5.75006709E-07
   3.01799989       5.77296078E-07
   3.02500010       5.79629557E-07
   3.03200006       5.81998393E-07
   3.03900003       5.84391898E-07
   3.04600000       5.86797626E-07
   3.05299997       5.89201363E-07
   3.05999994       5.91586740E-07
   3.06699991       5.93935681E-07
   3.07399988       5.96227778E-07
   3.08100009       5.98440863E-07
   3.08800006       6.00550550E-07
   3.09500003       6.02530520E-07
   3.10200000       6.04352351E-07
   3.10899997       6.05985235E-07
   3.11599994       6.07396260E-07
   3.12299991       6.08550181E-07
   3.13000011       6.09409597E-07
   3.13700008       6.09934943E-07
   3.14400005       6.10084953E-07
   3.15100002       6.09815913E-07
   3.15799999       6.09082463E-07
   3.16499996       6.07837649E-07
   3.17199993       6.06032586E-07
   3.17899990       6.03617025E-07
   3.18600011       6.00538840E-07
   3.19300008       5.96744428E-07
   3.20000005       5.92178822E-07
   3.20700002       5.86785518E-07
   3.21399999       5.80506821E-07
   3.22099996       5.73284353E-07
   3.22799993       5.65058599E-07
   3.23499990       5.55769702E-07
   3.24200010       5.45357125E-07
   3.24900007       5.33760499E-07
   3.25600004       5.20918832E-07
   3.26300001       5.06771755E-07
   3.26999998       4.91258788E-07
   3.27699995       4.74320018E-07
   3.28399992       4.55895616E-07
   3.29099989       4.35926694E-07
   3.29800010       4.14355441E-07
   3.30500007       3.91125184E-07
   3.31200004       3.66180814E-07
   3.31900001       3.39468812E-07
   3.32599998       3.10937452E-07
   3.33299994       2.80537051E-07
   3.33999991       2.48220061E-07
   3.34699988       2.13941334E-07
   3.35400009       1.77658194E-07
   3.36100006       1.39330538E-07
   3.36800003       9.89211912E-08
   3.37500000       5.63962317E-08
   3.38199997       1.17252119E-08
   3.38899994      -3.51186245E-08
   3.39599991      -8.41582022E-08
   3.40300012      -1.35412463E-07
   3.41000009      -1.88896294E-07
   3.41700006      -2.44620196E-07
   3.42400002      -3.02590394E-07
   3.43099999      -3.62808350E-07
   3.43799996      -4.25270827E-07
   3.44499993      -4.89969750E-07
   3.45199990      -5.56891905E-07
   3.45900011      -6.26018448E-07
   3.46600008      -6.97325561E-07
   3.47300005      -7.70783345E-07
   3.48000002      -8.46356556E-07
   3.48699999      -9.24004382E-07
   3.49399996      -1.00368015E-06
   3.50099993      -1.08533175E-06
   3.50799990      -1.16890112E-06
   3.51500010      -1.25432450E-06
   3.52200007      -1.34153197E-06
   3.52900004      -1.43044815E-06
   3.53600001      -1.52099153E-06
   3.54299998      -1.61307491E-06
   3.54999995      -1.70660542E-06
   3.55699992      -1.80148470E-06
   3.56399989      -1.89760885E-06
   3.57100010      -1.99486863E-06
   3.57800007      -2.09314953E-06
   3.58500004      -2.19233220E-06
   3.59200001      -2.29229227E-06
   3.59899998      -2.39289966E-06
   3.60599995      -2.49402092E-06
   3.61299992      -2.59551712E-06
   3.61999989      -2.69724569E-06
   3.62700009      -2.79906044E-06
   3.63400006      -2.90081061E-06
   3.64100003      -3.00234547E-06
   3.64800000      -3.10350811E-06
   3.65499997      -3.20414119E-06
   3.66199994      -3.30408534E-06
   3.66899991      -3.40317933E-06
   3.67600012      -3.50126061E-06
   3.68300009      -3.59816568E-06
   3.69000006      -3.69373129E-06
   3.69700003      -3.78779418E-06
   3.70400000      -3.88019134E-06
   3.71099997      -3.97076110E-06
   3.71799994      -4.05934406E-06
   3.72499990      -4.14578062E-06
   3.73200011      -4.22991707E-06
   3.73900008      -4.31159833E-06
   3.74600005      -4.39067617E-06
   3.75300002      -4.46700551E-06
   3.75999999      -4.54044448E-06
   3.76699996      -4.61085710E-06
   3.77399993      -4.67811242E-06
   3.78099990      -4.74208628E-06
   3.78800011      -4.80265908E-06
   3.79500008      -4.85971896E-06
   3.80200005      -4.91315950E-06
   3.80900002      -4.96288430E-06
   3.81599998      -5.00880242E-06
   3.82299995      -5.05083108E-06
   3.82999992      -5.08889661E-06
   3.83699989      -5.12293218E-06
   3.84400010      -5.15288184E-06
   3.85100007      -5.17869830E-06
   3.85800004      -5.20034337E-06
   3.86500001      -5.21778793E-06
   3.87199998      -5.23101244E-06
   3.87899995      -5.24000734E-06
   3.88599992      -5.24477309E-06
   3.89299989      -5.24531879E-06
   3.90000010      -5.24166489E-06
   3.90700006      -5.23384006E-06
   3.91400003      -5.22188293E-06
   3.92100000      -5.20584308E-06
   3.92799997      -5.18577826E-06
   3.93499994      -5.16175669E-06
   3.94199991      -5.13385476E-06
   3.94899988      -5.10215659E-06
   3.95600009      -5.06675678E-06
   3.96300006      -5.02775720E-06
   3.97000003      -4.98526651E-06
   3.97700000      -4.93940524E-06
   3.98399997      -4.89029844E-06
   3.99099994      -4.83807798E-06
   3.99799991      -4.78288121E-06
   4.00500011      -4.72485635E-06
   4.01200008      -4.66415349E-06
   4.01900005      -4.60093042E-06
   4.02600002      -4.53534767E-06
   4.03299999      -4.46757031E-06
   4.03999996      -4.39776841E-06
   4.04699993      -4.32611523E-06
   4.05399990      -4.25278677E-06
   4.06099987      -4.17796218E-06
   4.06799984      -4.10182110E-06
   4.07499981      -4.02454452E-06
   4.08199978      -3.94631479E-06
   4.08900023      -3.86731381E-06
   4.09600019      -3.78772393E-06
   4.10300016      -3.70772705E-06
   4.11000013      -3.62750279E-06
   4.11700010      -3.54722965E-06
   4.12400007      -3.46708521E-06
   4.13100004      -3.38724385E-06
   4.13800001      -3.30787793E-06
   4.14499998      -3.22915571E-06
   4.15199995      -3.15124180E-06
   4.15899992      -3.07429514E-06
   4.16599989      -2.99847079E-06
   4.17299986      -2.92391860E-06
   4.17999983      -2.85078272E-06
   4.18699980      -2.77920049E-06
   4.19399977      -2.70930354E-06
   4.20100021      -2.64121718E-06
   4.20800018      -2.57505940E-06
   4.21500015      -2.51094275E-06
   4.22200012      -2.44897092E-06
   4.22900009      -2.38924031E-06
   4.23600006      -2.33183937E-06
   4.24300003      -2.27684882E-06
   4.25000000      -2.22434119E-06
   4.25699997      -2.17438219E-06
   4.26399994      -2.12702844E-06
   4.27099991      -2.08232746E-06
   4.27799988      -2.04031994E-06
   4.28499985      -2.00103682E-06
   4.29199982      -1.96450219E-06
   4.29899979      -1.93073129E-06
   4.30600023      -1.89973002E-06
   4.31300020      -1.87149601E-06
   4.32000017      -1.84601834E-06
   4.32700014      -1.82327869E-06
   4.33400011      -1.80325128E-06
   4.34100008      -1.78590244E-06
   4.34800005      -1.77119091E-06
   4.35500002      -1.75906860E-06
   4.36199999      -1.74947991E-06
   4.36899996      -1.74236334E-06
   4.37599993      -1.73765113E-06
   4.38299990      -1.73526882E-06
   4.38999987      -1.73513536E-06
   4.39699984      -1.73716376E-06
   4.40399981      -1.74126239E-06
   4.41099977      -1.74733509E-06
   4.41800022      -1.75528123E-06
   4.42500019      -1.76499657E-06
   4.43200016      -1.77637241E-06
   4.43900013      -1.78929622E-06
   4.44600010      -1.80365362E-06
   4.45300007      -1.81932774E-06
   4.46000004      -1.83619954E-06
   4.46700001      -1.85414865E-06
   4.47399998      -1.87305329E-06
   4.48099995      -1.89279137E-06
   4.48799992      -1.91324216E-06
   4.49499989      -1.93428536E-06
   4.50199986      -1.95580242E-06
   4.50899982      -1.97767486E-06
   4.51599979      -1.99978558E-06
   4.52299976      -2.02201909E-06
   4.53000021      -2.04426215E-06
   4.53700018      -2.06640607E-06
   4.54400015      -2.08834331E-06
   4.55100012      -2.10997064E-06
   4.55800009      -2.13118869E-06
   4.56500006      -2.15190244E-06
   4.57200003      -2.17202250E-06
   4.57900000      -2.19146455E-06
   4.58599997      -2.21014807E-06
   4.59299994      -2.22799849E-06
   4.59999990      -2.24494624E-06
   4.60699987      -2.26092789E-06
   4.61399984      -2.27588566E-06
   4.62099981      -2.28976955E-06
   4.62799978      -2.30253659E-06
   4.63500023      -2.31414879E-06
   4.64200020      -2.32457569E-06
   4.64900017      -2.33379410E-06
   4.65600014      -2.34178674E-06
   4.66300011      -2.34854406E-06
   4.67000008      -2.35406173E-06
   4.67700005      -2.35834136E-06
   4.68400002      -2.36139113E-06
   4.69099998      -2.36322671E-06
   4.69799995      -2.36386950E-06
   4.70499992      -2.36334859E-06
   4.71199989      -2.36169785E-06
   4.71899986      -2.35895709E-06
   4.72599983      -2.35517064E-06
   4.73299980      -2.35038942E-06
   4.73999977      -2.34467029E-06
   4.74700022      -2.33807395E-06
   4.75400019      -2.33066658E-06
   4.76100016      -2.32251773E-06
   4.76800013      -2.31370154E-06
   4.77500010      -2.30429691E-06
   4.78200006      -2.29438592E-06
   4.78900003      -2.28405406E-06
   4.79600000      -2.27338796E-06
   4.80299997      -2.26247721E-06
   4.80999994      -2.25141162E-06
   4.81699991      -2.24028486E-06
   4.82399988      -2.22919130E-06
   4.83099985      -2.21822734E-06
   4.83799982      -2.20748848E-06
   4.84499979      -2.19707067E-06
   4.85200024      -2.18707100E-06
   4.85900021      -2.17758566E-06
   4.86600018      -2.16871058E-06
   4.87300014      -2.16054013E-06
   4.88000011      -2.15316732E-06
   4.88700008      -2.14668307E-06
   4.89400005      -2.14117586E-06
   4.90100002      -2.13673457E-06
   4.90799999      -2.13344561E-06
   4.91499996      -2.13139197E-06
   4.92199993      -2.13065300E-06
   4.92899990      -2.13130443E-06
   4.93599987      -2.13341855E-06
   4.94299984      -2.13706448E-06
   4.94999981      -2.14230749E-06
   4.95699978      -2.14920851E-06
   4.96400023      -2.15782347E-06
   4.97100019      -2.16820536E-06
   4.97800016      -2.18040259E-06
   4.98500013      -2.19446019E-06
   4.99200010      -2.21041842E-06