  -1.00000000       0.00000000    
 -0.992999971       0.00000000    
 -0.986000001       1.99448441E-33
 -0.978999972       1.87481146E-31
 -0.972000003       4.53159053E-30
 -0.964999974       5.43637843E-29
 -0.958000004       4.15267233E-28
 -0.950999975       2.29713330E-27
 -0.944000006       9.94009037E-27
 -0.936999977       3.53757493E-26
 -0.930000007       1.07078093E-25
 -0.922999978       2.81735756E-25
 -0.916000009       6.52222653E-25
 -0.908999979       1.33202852E-24
 -0.902000010       2.37788906E-24
 -0.894999981       3.59974547E-24
 -0.888000011       4.22865733E-24
 -0.880999982       2.50636867E-24
 -0.874000013      -4.56121900E-24
 -0.866999984      -2.08426486E-23
 -0.860000014      -4.96162523E-23
 -0.852999985      -9.08468374E-23
 -0.846000016      -1.37923178E-22
 -0.838999987      -1.75793790E-22
 -0.832000017      -1.83309565E-22
 -0.824999988      -1.42059384E-22
 -0.818000019      -5.12183815E-23
 -0.810999990       5.68978613E-23
 -0.804000020       1.10864088E-22
 -0.796999991       1.57277392E-23
 -0.790000021      -3.03179415E-22
 -0.782999992      -8.35141166E-22
 -0.776000023      -1.42315081E-21
 -0.768999994      -1.74714924E-21
 -0.762000024      -1.38967827E-21
 -0.754999995       4.64758310E-24
 -0.748000026       2.51480031E-21
 -0.740999997       5.76917320E-21
 -0.734000027       8.93688519E-21
 -0.726999998       1.09809858E-20
 -0.720000029       1.11669358E-20
 -0.713000000       9.66448747E-21
 -0.705999970       7.93841841E-21
 -0.699000001       8.58329375E-21
 -0.691999972       1.43934419E-20
 -0.685000002       2.67783907E-20
 -0.677999973       4.40410345E-20
 -0.671000004       6.03434590E-20
 -0.663999975       6.61801100E-20
 -0.657000005       5.07315072E-20
 -0.649999976       5.64956482E-21
 -0.643000007      -7.10704858E-20
 -0.635999978      -1.72980087E-19
 -0.629000008      -2.86353488E-19
 -0.621999979      -3.94875862E-19
 -0.615000010      -4.86139371E-19
 -0.607999980      -5.56516518E-19
 -0.601000011      -6.10525932E-19
 -0.593999982      -6.52423819E-19
 -0.587000012      -6.71441787E-19
 -0.579999983      -6.26714839E-19
 -0.573000014      -4.41396810E-19
 -0.565999985      -1.53944274E-20
 -0.559000015       7.38899296E-19
 -0.551999986       1.84306945E-18
 -0.545000017       3.19773880E-18
 -0.537999988       4.55068492E-18
 -0.531000018       5.51251110E-18
 -0.523999989       5.63343663E-18
 -0.517000020       4.53421410E-18
 -0.509999990       2.05982986E-18
 -0.503000021      -1.59405676E-18
 -0.495999992      -5.83566534E-18
 -0.488999993      -9.74967513E-18
 -0.481999993      -1.22899178E-17
 -0.474999994      -1.25514260E-17
 -0.467999995      -1.00460457E-17
 -0.460999995      -4.89430981E-18
 -0.453999996       2.13377319E-18
 -0.446999997       9.74867011E-18
 -0.439999998       1.64028890E-17
 -0.432999998       2.05991067E-17
 -0.425999999       2.11480453E-17
 -0.419000000       1.73104600E-17
 -0.412000000       8.82105488E-18
 -0.405000001      -4.14042485E-18
 -0.398000002      -2.09298036E-17
 -0.391000003      -4.02926161E-17
 -0.384000003      -6.00978016E-17
 -0.377000004      -7.70743204E-17
 -0.370000005      -8.67707102E-17
 -0.363000005      -8.39742177E-17
 -0.356000006      -6.37252135E-17
 -0.349000007      -2.28516469E-17
 -0.342000008       3.83126469E-17
 -0.335000008       1.14572482E-16
 -0.328000009       1.95481321E-16
 -0.321000010       2.66355254E-16
 -0.314000010       3.10757118E-16
 -0.307000011       3.14035506E-16
 -0.300000012       2.67073909E-16
 -0.293000013       1.69199834E-16
 -0.286000013       2.93334590E-17
 -0.279000014      -1.35085410E-16
 -0.272000015      -3.01190861E-16
 -0.264999986      -4.44973830E-16
 -0.257999986      -5.45556981E-16
 -0.250999987      -5.88323674E-16
 -0.244000003      -5.66244807E-16
 -0.237000003      -4.79475494E-16
 -0.230000004      -3.33967912E-16
 -0.223000005      -1.40171710E-16
 -0.216000006       8.73223537E-17
 -0.209000006       3.29033019E-16
 -0.202000007       5.59479979E-16
 -0.194999993       7.47154740E-16
 -0.187999994       8.57088975E-16
 -0.180999994       8.56816178E-16
 -0.173999995       7.25135377E-16
 -0.166999996       4.61511195E-16
 -0.159999996       9.28373323E-17
 -0.152999997      -3.25752540E-16
 -0.145999998      -7.18056829E-16
 -0.138999999      -1.00160968E-15
 -0.131999999      -1.10701732E-15
 -0.125000000      -9.96608272E-16
 -0.118000001      -6.76614842E-16
 -0.111000001      -1.98516187E-16
 -0.104000002       3.51673495E-16
  -9.70000029E-02   8.73496215E-16
  -9.00000036E-02   1.27557974E-15
  -8.29999968E-02   1.49532348E-15
  -7.59999976E-02   1.50871698E-15
  -6.89999983E-02   1.32783807E-15
  -6.19999990E-02   9.88238104E-16
  -5.49999997E-02   5.32368519E-16
  -4.80000004E-02  -3.21938219E-18
  -4.10000011E-02  -5.90848574E-16
  -3.40000018E-02  -1.20332010E-15
  -2.70000007E-02  -1.79831215E-15
  -1.99999996E-02  -2.30427584E-15
  -1.30000003E-02  -2.61775045E-15
  -6.00000005E-03  -2.61885160E-15
   1.00000005E-03  -2.20480347E-15
   8.00000038E-03  -1.33314081E-15
   1.49999997E-02  -5.98016246E-17
   2.19999999E-02   1.44421246E-15
   2.89999992E-02   2.90921428E-15
   3.59999985E-02   4.01779829E-15
   4.30000015E-02   4.47968494E-15
   5.00000007E-02   4.10975643E-15
   5.70000000E-02   2.88499337E-15
   6.40000030E-02   9.60896410E-16
   7.10000023E-02  -1.35967815E-15
   7.80000016E-02  -3.69649075E-15
   8.50000009E-02  -5.67836361E-15
   9.20000002E-02  -7.01784669E-15
   9.89999995E-02  -7.55044153E-15
  0.105999999      -7.22870707E-15
  0.112999998      -6.08000207E-15
  0.119999997      -4.15225588E-15
  0.127000004      -1.47832120E-15
  0.134000003       1.91746999E-15
  0.141000003       5.96527951E-15
  0.148000002       1.04664355E-14
  0.155000001       1.50180382E-14
  0.162000000       1.89888846E-14
  0.169000000       2.15786522E-14
  0.175999999       2.19655769E-14
  0.182999998       1.95139450E-14
  0.189999998       1.39844369E-14
  0.196999997       5.67884515E-15
  0.203999996      -4.53722600E-15
  0.210999995      -1.53564143E-14
  0.217999995      -2.52740638E-14
  0.224999994      -3.28916581E-14
  0.231999993      -3.71939689E-14
  0.238999993      -3.77210741E-14
  0.246000007      -3.45906605E-14
  0.252999991      -2.83762814E-14
  0.259999990      -1.98962567E-14
  0.266999990      -9.99651259E-15
  0.273999989       5.92101600E-16
  0.280999988       1.12763319E-14
  0.287999988       2.15110522E-14
  0.294999987       3.06585845E-14
  0.301999986       3.78869570E-14
  0.308999985       4.21894202E-14
  0.316000015       4.25624773E-14
  0.323000014       3.83119236E-14
  0.330000013       2.93913114E-14
  0.337000012       1.66416157E-14
  0.344000012       1.81255882E-15
  0.351000011      -1.26936866E-14
  0.358000010      -2.43237861E-14
  0.365000010      -3.09948464E-14
  0.372000009      -3.16531977E-14
  0.379000008      -2.65876747E-14
  0.386000007      -1.73793509E-14
  0.393000007      -6.48079773E-15
  0.400000006       3.45990026E-15
  0.407000005       1.03252147E-14
  0.414000005       1.30749107E-14
  0.421000004       1.19381510E-14
  0.428000003       8.19310745E-15
  0.435000002       3.61814104E-15
  0.442000002      -1.85066892E-16
  0.449000001      -2.34863390E-15
  0.456000000      -2.97019811E-15
  0.463000000      -2.93397983E-15
  0.469999999      -3.39339483E-15
  0.476999998      -5.12460778E-15
  0.483999997      -8.02365766E-15
  0.490999997      -1.09797840E-14
  0.497999996      -1.22221332E-14
  0.504999995      -1.00507413E-14
  0.512000024      -3.69344185E-15
  0.518999994       6.05459913E-15
  0.526000023       1.67113790E-14
  0.532999992       2.46475559E-14
  0.540000021       2.61866470E-14
  0.546999991       1.89389571E-14
  0.554000020       2.90926383E-15
  0.560999990      -1.90587868E-14
  0.568000019      -4.17516668E-14
  0.574999988      -5.89196931E-14
  0.582000017      -6.51140790E-14
  0.588999987      -5.74520629E-14
  0.596000016      -3.67067759E-14
  0.602999985      -7.30233287E-15
  0.610000014       2.38576215E-14
  0.616999984       4.94005437E-14
  0.624000013       6.36974943E-14
  0.630999982       6.45371818E-14
  0.638000011       5.36771826E-14
  0.644999981       3.60628343E-14
  0.652000010       1.79749285E-14
  0.658999979       4.76588255E-15
  0.666000009      -9.81528968E-16
  0.672999978      -1.68721340E-16
  0.680000007       3.53126384E-15
  0.686999977       5.57007257E-15
  0.694000006       2.87597861E-15
  0.700999975      -4.30203714E-15
  0.708000004      -1.18967031E-14
  0.714999974      -1.32433542E-14
  0.722000003      -1.73386120E-15
  0.728999972       2.59931745E-14
  0.736000001       6.75472929E-14
  0.742999971       1.14073383E-13
  0.750000000       1.51886668E-13
  0.757000029       1.66189179E-13
  0.763999999       1.45793398E-13
  0.771000028       8.72902824E-14
  0.777999997      -2.86097109E-15
  0.785000026      -1.09243086E-13
  0.791999996      -2.11325721E-13
  0.799000025      -2.89140917E-13
  0.805999994      -3.28968921E-13
  0.813000023      -3.27107482E-13
  0.819999993      -2.90381190E-13
  0.827000022      -2.33149248E-13
  0.833999991      -1.71820254E-13
  0.841000021      -1.18826010E-13
  0.847999990      -7.82791732E-14
  0.855000019      -4.49963688E-14
  0.861999989      -7.36907229E-15
  0.869000018       4.68849914E-14
  0.875999987       1.24223806E-13
  0.883000016       2.20597737E-13
  0.889999986       3.20619724E-13
  0.897000015       4.01289299E-13
  0.903999984       4.39266923E-13
  0.911000013       4.19246533E-13
  0.917999983       3.40344831E-13
  0.925000012       2.17916126E-13
  0.931999981       7.97044586E-14
  0.939000010      -4.27222311E-14
  0.945999980      -1.24482659E-13
  0.953000009      -1.56128447E-13
  0.959999979      -1.47294760E-13
  0.967000008      -1.23563947E-13
  0.973999977      -1.17234645E-13
  0.981000006      -1.54980399E-13
  0.987999976      -2.46729828E-13
  0.995000005      -3.79938810E-13
   1.00199997      -5.21721067E-13
   1.00899994      -6.28583069E-13
   1.01600003      -6.60716599E-13
   1.02300000      -5.95962678E-13
   1.02999997      -4.38406147E-13
   1.03699994      -2.18256931E-13
   1.04400003       1.73175666E-14
   1.05100000       2.19443617E-13
   1.05799997       3.53542038E-13
   1.06500006       4.10230714E-13
   1.07200003       4.06918694E-13
   1.07900000       3.79180276E-13
   1.08599997       3.64816467E-13
   1.09300005       3.86445812E-13
   1.10000002       4.39370545E-13
   1.10699999       4.89864442E-13
   1.11399996       4.85387501E-13
   1.12100005       3.73777886E-13
   1.12800002       1.24836678E-13
   1.13499999      -2.53689078E-13
   1.14199996      -7.12229104E-13
   1.14900005      -1.17010937E-12
   1.15600002      -1.53815675E-12
   1.16299999      -1.74595689E-12
   1.16999996      -1.76438909E-12
   1.17700005      -1.61525090E-12
   1.18400002      -1.36402987E-12
   1.19099998      -1.09779124E-12
   1.19799995      -8.95631334E-13
   1.20500004      -8.02147194E-13
   1.21200001      -8.13650525E-13
   1.21899998      -8.82512975E-13
   1.22599995      -9.38494291E-13
   1.23300004      -9.19491154E-13
   1.24000001      -8.00265615E-13
   1.24699998      -6.07931348E-13
   1.25399995      -4.17407862E-13
   1.26100004      -3.27256587E-13
   1.26800001      -4.23755649E-13
   1.27499998      -7.45947737E-13
   1.28199995      -1.26478808E-12
   1.28900003      -1.88505049E-12
   1.29600000      -2.47072198E-12
   1.30299997      -2.88599223E-12
   1.30999994      -3.03783821E-12
   1.31700003      -2.90493974E-12
   1.32400000      -2.54194192E-12
   1.33099997      -2.05667970E-12
   1.33800006      -1.56769248E-12
   1.34500003      -1.15693447E-12
   1.35200000      -8.34853183E-13
   1.35899997      -5.31106084E-13
   1.36600006      -1.15178673E-13
   1.37300003       5.59727340E-13
   1.38000000       1.60515015E-12
   1.38699996       3.05719339E-12
   1.39400005       4.86341783E-12
   1.40100002       6.90313475E-12
   1.40799999       9.03525605E-12
   1.41499996       1.11575168E-11
   1.42200005       1.32560464E-11
   1.42900002       1.54268300E-11
   1.43599999       1.78603850E-11
   1.44299996       2.07942257E-11
   1.45000005       2.44496576E-11
   1.45700002       2.89760473E-11
   1.46399999       3.44237312E-11
   1.47099996       4.07570019E-11
   1.47800004       4.79043853E-11
   1.48500001       5.58296846E-11
   1.49199998       6.45985349E-11
   1.49899995       7.44163897E-11
   1.50600004       8.56230850E-11
   1.51300001       9.86448145E-11
   1.51999998       1.13920220E-10
   1.52699995       1.31826702E-10
   1.53400004       1.52635057E-10
   1.54100001       1.76510556E-10
   1.54799998       2.03562764E-10
   1.55499995       2.33928404E-10
   1.56200004       2.67859707E-10
   1.56900001       3.05787284E-10
   1.57599998       3.48336582E-10
   1.58299994       3.96291888E-10
   1.59000003       4.50522286E-10
   1.59700000       5.11898246E-10
   1.60399997       5.81231785E-10
   1.61099994       6.59265365E-10
   1.61800003       7.46720019E-10
   1.62500000       8.44385950E-10
   1.63199997       9.53230384E-10
   1.63900006       1.07448150E-09
   1.64600003       1.20966370E-09
   1.65300000       1.36057010E-09
   1.65999997       1.52918089E-09
   1.66700006       1.71756243E-09
   1.67400002       1.92778349E-09
   1.68099999       2.16188467E-09
   1.68799996       2.42191689E-09
   1.69500005       2.71004175E-09
   1.70200002       3.02866221E-09
   1.70899999       3.38054007E-09
   1.71599996       3.76886655E-09
   1.72300005       4.19725898E-09
   1.73000002       4.66969441E-09
   1.73699999       5.19040144E-09
   1.74399996       5.76376191E-09
   1.75100005       6.39425801E-09
   1.75800002       7.08649672E-09
   1.76499999       7.84530041E-09
   1.77199996       8.67584937E-09
   1.77900004       9.58381374E-09
   1.78600001       1.05754436E-08
   1.79299998       1.16575833E-08
   1.79999995       1.28375941E-08
   1.80700004       1.41232412E-08
   1.81400001       1.55225504E-08
   1.82099998       1.70437282E-08
   1.82799995       1.86951414E-08
   1.83500004       2.04854107E-08
   1.84200001       2.24235475E-08
   1.84899998       2.45190943E-08
   1.85599995       2.67822529E-08
   1.86300004       2.92239086E-08
   1.87000000       3.18555635E-08
   1.87699997       3.46891760E-08
   1.88399994       3.77370348E-08
   1.89100003       4.10115888E-08
   1.89800000       4.45254003E-08
   1.90499997       4.82911453E-08
   1.91199994       5.23217771E-08
   1.91900003       5.66306220E-08
   1.92600000       6.12315034E-08
   1.93299997       6.61387674E-08
   1.94000006       7.13672392E-08
   1.94700003       7.69319541E-08
   1.95400000       8.28480182E-08
   1.96099997       8.91304310E-08
   1.96800005       9.57938582E-08
   1.97500002       1.02852745E-07
   1.98199999       1.10321302E-07
   1.98899996       1.18213656E-07
   1.99600005       1.26544009E-07
   2.00300002       1.35326601E-07
   2.00999999       1.44575679E-07
   2.01699996       1.54305255E-07
   2.02399993       1.64528956E-07
   2.03099990       1.75259672E-07
   2.03800011       1.86509396E-07
   2.04500008       1.98289072E-07
   2.05200005       2.10608789E-07
   2.05900002       2.23477770E-07
   2.06599998       2.36904469E-07
   2.07299995       2.50896676E-07
   2.07999992       2.65461466E-07
   2.08699989       2.80605008E-07
   2.09400010       2.96332189E-07
   2.10100007       3.12646563E-07
   2.10800004       3.29549920E-07
   2.11500001       3.47042459E-07
   2.12199998       3.65122503E-07
   2.12899995       3.83786926E-07
   2.13599992       4.03031152E-07
   2.14299989       4.22849297E-07
   2.15000010       4.43234200E-07
   2.15700006       4.64177248E-07
   2.16400003       4.85668295E-07
   2.17100000       5.07695290E-07
   2.17799997       5.30244108E-07
   2.18499994       5.53298435E-07
   2.19199991       5.76839739E-07
   2.19899988       6.00847670E-07
   2.20600009       6.25300174E-07
   2.21300006       6.50173547E-07
   2.22000003       6.75443118E-07
   2.22700000       7.01082513E-07
   2.23399997       7.27063991E-07
   2.24099994       7.53357995E-07
   2.24799991       7.79933373E-07
   2.25500011       8.06757214E-07
   2.26200008       8.33794616E-07
   2.26900005       8.61009482E-07
   2.27600002       8.88364298E-07
   2.28299999       9.15820976E-07
   2.28999996       9.43340581E-07
   2.29699993       9.70883775E-07
   2.30399990       9.98410883E-07
   2.31100011       1.02588160E-06
   2.31800008       1.05325455E-06
   2.32500005       1.08048800E-06
   2.33200002       1.10753899E-06
   2.33899999       1.13436488E-06
   2.34599996       1.16092258E-06
   2.35299993       1.18716991E-06
   2.35999990       1.21306448E-06
   2.36700010       1.23856523E-06
   2.37400007       1.26363204E-06
   2.38100004       1.28822592E-06
   2.38800001       1.31230831E-06
   2.39499998       1.33584149E-06
   2.40199995       1.35878895E-06
   2.40899992       1.38111488E-06
   2.41599989       1.40278519E-06
   2.42300010       1.42376746E-06
   2.43000007       1.44403066E-06
   2.43700004       1.46354671E-06
   2.44400001       1.48228889E-06
   2.45099998       1.50023345E-06
   2.45799994       1.51735867E-06
   2.46499991       1.53364454E-06
   2.47199988       1.54907286E-06
   2.47900009       1.56362830E-06
   2.48600006       1.57729710E-06
   2.49300003       1.59006777E-06
   2.50000000       1.60193201E-06
   2.50699997       1.61288415E-06
   2.51399994       1.62292156E-06
   2.52099991       1.63204470E-06
   2.52800012       1.64025664E-06
   2.53500009       1.64756341E-06
   2.54200006       1.65397330E-06
   2.54900002       1.65949643E-06
   2.55599999       1.66414577E-06
   2.56299996       1.66793620E-06
   2.56999993       1.67088592E-06
   2.57699990       1.67301482E-06
   2.58400011       1.67434632E-06
   2.59100008       1.67490634E-06
   2.59800005       1.67472365E-06
   2.60500002       1.67382825E-06
   2.61199999       1.67225278E-06
   2.61899996       1.67003134E-06
   2.62599993       1.66719951E-06
   2.63299990       1.66379459E-06
   2.64000010       1.65985523E-06
   2.64700007       1.65542235E-06
   2.65400004       1.65053893E-06
   2.66100001       1.64524886E-06
   2.66799998       1.63959828E-06
   2.67499995       1.63363472E-06
   2.68199992       1.62740571E-06
   2.68899989       1.62095932E-06
   2.69600010       1.61434434E-06
   2.70300007       1.60760885E-06
   2.71000004       1.60080174E-06
   2.71700001       1.59397132E-06
   2.72399998       1.58716705E-06
   2.73099995       1.58043758E-06
   2.73799992       1.57383249E-06
   2.74499989       1.56740055E-06
   2.75200009       1.56119017E-06
   2.75900006       1.55524856E-06
   2.76600003       1.54962083E-06
   2.77300000       1.54435145E-06
   2.77999997       1.53948270E-06
   2.78699994       1.53505584E-06
   2.79399991       1.53111057E-06
   2.80100012       1.52768473E-06
   2.80800009       1.52481550E-06
   2.81500006       1.52253756E-06
   2.82200003       1.52088353E-06
   2.82900000       1.51988286E-06
   2.83599997       1.51956192E-06
   2.84299994       1.51994413E-06
   2.84999990       1.52104974E-06
   2.85700011       1.52289658E-06
   2.86400008       1.52550001E-06
   2.87100005       1.52887264E-06
   2.87800002       1.53302472E-06
   2.88499999       1.53796373E-06
   2.89199996       1.54369411E-06
   2.89899993       1.55021655E-06
   2.90599990       1.55752866E-06
   2.91300011       1.56562430E-06
   2.92000008       1.57449358E-06
   2.92700005       1.58412411E-06
   2.93400002       1.59449996E-06
   2.94099998       1.60560330E-06
   2.94799995       1.61741366E-06
   2.95499992       1.62990807E-06
   2.96199989       1.64306073E-06
   2.96900010       1.65684298E-06
   2.97600007       1.67122334E-06
   2.98300004       1.68616782E-06
   2.99000001       1.70163980E-06
   2.99699998       1.71760087E-06
   3.00399995       1.73401031E-06
   3.01099992       1.75082687E-06
   3.01799989       1.76800768E-06
   3.02500010       1.78551011E-06
   3.03200006       1.80328982E-06
   3.03900003       1.82130248E-06
   3.04600000       1.83950283E-06
   3.05299997       1.85784484E-06
   3.05999994       1.87628166E-06
   3.06699991       1.89476577E-06
   3.07399988       1.91325012E-06
   3.08100009       1.93168808E-06
   3.08800006       1.95003554E-06
   3.09500003       1.96824817E-06
   3.10200000       1.98628436E-06
   3.10899997       2.00410204E-06
   3.11599994       2.02166234E-06
   3.12299991       2.03892660E-06
   3.13000011       2.05585798E-06
   3.13700008       2.07242101E-06
   3.14400005       2.08858228E-06
   3.15100002       2.10431131E-06
   3.15799999       2.11957990E-06
   3.16499996       2.13436329E-06
   3.17199993       2.14863849E-06
   3.17899990       2.16238664E-06
   3.18600011       2.17559113E-06
   3.19300008       2.18823698E-06
   3.20000005       2.20031279E-06
   3.20700002       2.21180881E-06
   3.21399999       2.22271728E-06
   3.22099996       2.23303323E-06
   3.22799993       2.24275527E-06
   3.23499990       2.25188455E-06
   3.24200010       2.26042698E-06
   3.24900007       2.26838915E-06
   3.25600004       2.27578153E-06
   3.26300001       2.28261570E-06
   3.26999998       2.28890644E-06
   3.27699995       2.29466877E-06
   3.28399992       2.29992020E-06
   3.29099989       2.30468140E-06
   3.29800010       2.30897376E-06
   3.30500007       2.31282161E-06
   3.31200004       2.31625131E-06
   3.31900001       2.31929039E-06
   3.32599998       2.32196658E-06
   3.33299994       2.32431034E-06
   3.33999991       2.32635125E-06
   3.34699988       2.32811999E-06
   3.35400009       2.32964658E-06
   3.36100006       2.33096284E-06
   3.36800003       2.33209971E-06
   3.37500000       2.33308856E-06
   3.38199997       2.33396190E-06
   3.38899994       2.33475134E-06
   3.39599991       2.33548985E-06
   3.40300012       2.33620813E-06
   3.41000009       2.33693618E-06
   3.41700006       2.33770425E-06
   3.42400002       2.33853939E-06
   3.43099999       2.33946776E-06
   3.43799996       2.34051367E-06
   3.44499993       2.34170034E-06
   3.45199990       2.34305003E-06
   3.45900011       2.34458298E-06
   3.46600008       2.34631898E-06
   3.47300005       2.34827439E-06
   3.48000002       2.35046377E-06
   3.48699999       2.35289849E-06
   3.49399996       2.35558764E-06
   3.50099993       2.35853804E-06
   3.50799990       2.36175333E-06
   3.51500010       2.36523420E-06
   3.52200007       2.36898018E-06
   3.52900004       2.37298809E-06
   3.53600001       2.37725271E-06
   3.54299998       2.38176631E-06
   3.54999995       2.38651751E-06
   3.55699992       2.39149085E-06
   3.56399989       2.39666861E-06
   3.57100010       2.40202871E-06
   3.57800007       2.40754707E-06
   3.58500004       2.41319617E-06
   3.59200001       2.41894782E-06
   3.59899998       2.42476949E-06
   3.60599995       2.43062846E-06
   3.61299992       2.43649015E-06
   3.61999989       2.44231728E-06
   3.62700009       2.44807006E-06
   3.63400006       2.45370597E-06
   3.64100003       2.45918022E-06
   3.64800000       2.46444415E-06
   3.65499997       2.46944910E-06
   3.66199994       2.47414368E-06
   3.66899991       2.47847652E-06
   3.67600012       2.48239508E-06
   3.68300009       2.48584661E-06
   3.69000006       2.48877882E-06
   3.69700003       2.49113691E-06
   3.70400000       2.49286518E-06
   3.71099997       2.49390723E-06
   3.71799994       2.49420646E-06
   3.72499990       2.49370669E-06
   3.73200011       2.49235222E-06
   3.73900008       2.49008826E-06
   3.74600005       2.48686251E-06
   3.75300002       2.48262359E-06
   3.75999999       2.47732282E-06
   3.76699996       2.47091134E-06
   3.77399993       2.46334162E-06
   3.78099990       2.45456704E-06
   3.78800011       2.44454100E-06
   3.79500008       2.43322074E-06
   3.80200005       2.42056376E-06
   3.80900002       2.40653117E-06
   3.81599998       2.39108772E-06
   3.82299995       2.37420113E-06
   3.82999992       2.35584298E-06
   3.83699989       2.33598689E-06
   3.84400010       2.31460990E-06
   3.85100007       2.29169041E-06
   3.85800004       2.26721022E-06
   3.86500001       2.24115342E-06
   3.87199998       2.21350638E-06
   3.87899995       2.18426067E-06
   3.88599992       2.15341015E-06
   3.89299989       2.12095324E-06
   3.90000010       2.08689198E-06
   3.90700006       2.05123183E-06
   3.91400003       2.01398257E-06
   3.92100000       1.97515692E-06
   3.92799997       1.93476899E-06
   3.93499994       1.89283651E-06
   3.94199991       1.84937903E-06
   3.94899988       1.80441998E-06
   3.95600009       1.75798652E-06
   3.96300006       1.71010947E-06
   3.97000003       1.66082441E-06
   3.97700000       1.61016987E-06
   3.98399997       1.55818839E-06
   3.99099994       1.50492554E-06
   3.99799991       1.45042952E-06
   4.00500011       1.39475060E-06
   4.01200008       1.33794117E-06
   4.01900005       1.28005627E-06
   4.02600002       1.22115421E-06
   4.03299999       1.16129672E-06
   4.03999996       1.10054907E-06
   4.04699993       1.03898071E-06
   4.05399990       9.76664182E-07
   4.06099987       9.13675251E-07
   4.06799984       8.50092135E-07
   4.07499981       7.85995780E-07
   4.08199978       7.21468268E-07
   4.08900023       6.56593727E-07
   4.09600019       5.91457990E-07
   4.10300016       5.26149790E-07
   4.11000013       4.60761129E-07
   4.11700010       3.95387332E-07
   4.12400007       3.30127023E-07
   4.13100004       2.65080985E-07
   4.13800001       2.00352076E-07
   4.14499998       1.36043809E-07
   4.15199995       7.22605620E-08
   4.15899992       9.10729980E-09
   4.16599989      -5.33099147E-08
   4.17299986      -1.14883896E-07
   4.17999983      -1.75505605E-07
   4.18699980      -2.35064320E-07
   4.19399977      -2.93447584E-07
   4.20100021      -3.50542081E-07
   4.20800018      -4.06234676E-07
   4.21500015      -4.60413645E-07
   4.22200012      -5.12969052E-07
   4.22900009      -5.63792014E-07
   4.23600006      -6.12775409E-07
   4.24300003      -6.59812827E-07
   4.25000000      -7.04798310E-07
   4.25699997      -7.47627098E-07
   4.26399994      -7.88195393E-07
   4.27099991      -8.26402186E-07
   4.27799988      -8.62149761E-07
   4.28499985      -8.95344897E-07
   4.29199982      -9.25898860E-07
   4.29899979      -9.53727636E-07
   4.30600023      -9.78751586E-07
   4.31300020      -1.00089540E-06
   4.32000017      -1.02008710E-06
   4.32700014      -1.03625860E-06
   4.33400011      -1.04934566E-06
   4.34100008      -1.05929007E-06
   4.34800005      -1.06604011E-06
   4.35500002      -1.06955144E-06
   4.36199999      -1.06978666E-06
   4.36899996      -1.06671553E-06
   4.37599993      -1.06031428E-06
   4.38299990      -1.05056563E-06
   4.38999987      -1.03745958E-06
   4.39699984      -1.02099193E-06
   4.40399981      -1.00116529E-06
   4.41099977      -9.77989430E-07
   4.41800022      -9.51482207E-07
   4.42500019      -9.21670392E-07
   4.43200016      -8.88589057E-07
   4.43900013      -8.52282369E-07
   4.44600010      -8.12801886E-07
   4.45300007      -7.70205816E-07
   4.46000004      -7.24559186E-07
   4.46700001      -6.75933620E-07
   4.47399998      -6.24408244E-07
   4.48099995      -5.70068948E-07
   4.48799992      -5.13008729E-07
   4.49499989      -4.53327743E-07
   4.50199986      -3.91134250E-07
   4.50899982      -3.26544040E-07
   4.51599979      -2.59679354E-07
   4.52299976      -1.90668729E-07
   4.53000021      -1.19646145E-07
   4.53700018      -4.67505785E-08
   4.54400015       2.78735897E-08
   4.55100012       1.04077159E-07
   4.55800009       1.81706056E-07
   4.56500006       2.60601666E-07
   4.57200003       3.40602014E-07
   4.57900000       4.21541273E-07
   4.58599997       5.03250703E-07
   4.59299994       5.85558837E-07
   4.59999990       6.68292557E-07
   4.60699987       7.51277128E-07
   4.61399984       8.34336959E-07
   4.62099981       9.17295608E-07
   4.62799978       9.99975327E-07
   4.63500023       1.08219717E-06
   4.64200020       1.16378214E-06
   4.64900017       1.24455164E-06
   4.65600014       1.32432967E-06
   4.66300011       1.40294310E-06
   4.67000008       1.48022116E-06
   4.67700005       1.55599707E-06
   4.68400002       1.63010861E-06
   4.69099998       1.70239718E-06
   4.69799995       1.77270772E-06
   4.70499992       1.84088958E-06
   4.71199989       1.90679657E-06
   4.71899986       1.97028839E-06
   4.72599983       2.03123250E-06
   4.73299980       2.08950496E-06
   4.73999977       2.14498982E-06
   4.74700022       2.19757953E-06
   4.75400019       2.24717292E-06
   4.76100016       2.29367720E-06
   4.76800013       2.33700484E-06
   4.77500010       2.37707809E-06
   4.78200006       2.41382645E-06
   4.78900003       2.44718876E-06
   4.79600000       2.47711455E-06
   4.80299997       2.50356425E-06
   4.80999994       2.52651148E-06
   4.81699991       2.54594079E-06
   4.82399988       2.56184558E-06
   4.83099985       2.57422903E-06
   4.83799982       2.58310001E-06
   4.84499979       2.58847695E-06
   4.85200024       2.59038620E-06
   4.85900021       2.58886598E-06
   4.86600018       2.58396472E-06
   4.87300014       2.57574129E-06
   4.88000011       2.56426529E-06
   4.88700008       2.54961515E-06
   4.89400005       2.53187659E-06
   4.90100002       2.51114216E-06
   4.90799999       2.48750848E-06
   4.91499996       2.46107606E-06
   4.92199993       2.43195041E-06
   4.92899990       2.40024497E-06
   4.93599987       2.36608116E-06
   4.94299984       2.32958928E-06
   4.94999981       2.29090415E-06
   4.95699978       2.25016606E-06
   4.96400023       2.20751554E-06
   4.97100019       2.16309536E-06
   4.97800016       2.11704764E-06
   4.98500013       2.06951449E-06
   4.99200010       2.02063779E-06