  -1.00000000      -3.55496585E-17
 -0.992999971      -7.59723067E-16
 -0.986000001      -3.71758779E-15
 -0.978999972      -1.04815677E-14
 -0.972000003      -2.16362708E-14
 -0.964999974      -3.64734251E-14
 -0.958000004      -5.39554126E-14
 -0.950999975      -7.45589232E-14
 -0.944000006      -1.01471979E-13
 -0.936999977      -1.39277736E-13
 -0.930000007      -1.89434189E-13
 -0.922999978      -2.44191223E-13
 -0.916000009      -2.82589029E-13
 -0.908999979      -2.72225845E-13
 -0.902000010      -1.78041894E-13
 -0.894999981       2.43997954E-14
 -0.888000011       3.36594901E-13
 -0.880999982       7.31532239E-13
 -0.874000013       1.15808058E-12
 -0.866999984       1.55424295E-12
 -0.860000014       1.86421343E-12
 -0.852999985       2.05223121E-12
 -0.846000016       2.10724905E-12
 -0.838999987       2.03615076E-12
 -0.832000017       1.84845542E-12
 -0.824999988       1.53995946E-12
 -0.818000019       1.08438855E-12
 -0.810999990       4.39391552E-13
 -0.804000020      -4.33243963E-13
 -0.796999991      -1.54079473E-12
 -0.790000021      -2.83858245E-12
 -0.782999992      -4.22620966E-12
 -0.776000023      -5.56580563E-12
 -0.768999994      -6.71733242E-12
 -0.762000024      -7.57770929E-12
 -0.754999995      -8.10770114E-12
 -0.748000026      -8.33471573E-12
 -0.740999997      -8.32942656E-12
 -0.734000027      -8.16542493E-12
 -0.726999998      -7.87935082E-12
 -0.720000029      -7.45005186E-12
 -0.713000000      -6.80833775E-12
 -0.705999970      -5.87600281E-12
 -0.699000001      -4.61904863E-12
 -0.691999972      -3.09166126E-12
 -0.685000002      -1.44890610E-12
 -0.677999973       8.23577656E-14
 -0.671000004       1.26730592E-12
 -0.663999975       1.93837221E-12
 -0.657000005       2.05097116E-12
 -0.649999976       1.69377067E-12
 -0.643000007       1.04407596E-12
 -0.635999978       2.80989424E-13
 -0.629000008      -5.12220691E-13
 -0.621999979      -1.41735603E-12
 -0.615000010      -2.69051730E-12
 -0.607999980      -4.70070293E-12
 -0.601000011      -7.81441231E-12
 -0.593999982      -1.22656026E-11
 -0.587000012      -1.80600413E-11
 -0.579999983      -2.49535895E-11
 -0.573000014      -3.25187169E-11
 -0.565999985      -4.02805428E-11
 -0.559000015      -4.78758075E-11
 -0.551999986      -5.51760929E-11
 -0.545000017      -6.23272198E-11
 -0.537999988      -6.96855074E-11
 -0.531000018      -7.76715567E-11
 -0.523999989      -8.65947522E-11
 -0.517000020      -9.65173427E-11
 -0.509999990      -1.07215528E-10
 -0.503000021      -1.18260873E-10
 -0.495999992      -1.29198541E-10
 -0.488999993      -1.39758843E-10
 -0.481999993      -1.50018387E-10
 -0.474999994      -1.60439592E-10
 -0.467999995      -1.71756928E-10
 -0.460999995      -1.84736851E-10
 -0.453999996      -1.99889189E-10
 -0.446999997      -2.17237034E-10
 -0.439999998      -2.36238057E-10
 -0.432999998      -2.55904492E-10
 -0.425999999      -2.75094753E-10
 -0.419000000      -2.92884578E-10
 -0.412000000      -3.08885945E-10
 -0.405000001      -3.23391619E-10
 -0.398000002      -3.37276068E-10
 -0.391000003      -3.51674662E-10
 -0.384000003      -3.67537889E-10
 -0.377000004      -3.85217885E-10
 -0.370000005      -4.04237227E-10
 -0.363000005      -4.23333146E-10
 -0.356000006      -4.40771947E-10
 -0.349000007      -4.54823151E-10
 -0.342000008      -4.64220773E-10
 -0.335000008      -4.68433736E-10
 -0.328000009      -4.67631323E-10
 -0.321000010      -4.62343525E-10
 -0.314000010      -4.52937188E-10
 -0.307000011      -4.39102615E-10
 -0.300000012      -4.19545898E-10
 -0.293000013      -3.92033100E-10
 -0.286000013      -3.53790580E-10
 -0.279000014      -3.02119579E-10
 -0.272000015      -2.35019115E-10
 -0.264999986      -1.51569646E-10
 -0.257999986      -5.19160270E-11
 -0.250999987       6.31688382E-11
 -0.244000003       1.93009275E-10
 -0.237000003       3.37790990E-10
 -0.230000004       4.99113528E-10
 -0.223000005       6.80103696E-10
 -0.216000006       8.85091500E-10
 -0.209000006       1.11890186E-09
 -0.202000007       1.38605416E-09
 -0.194999993       1.69014358E-09
 -0.187999994       2.03361972E-09
 -0.180999994       2.41803377E-09
 -0.173999995       2.84466140E-09
 -0.166999996       3.31525474E-09
 -0.159999996       3.83263643E-09
 -0.152999997       4.40095027E-09
 -0.145999998       5.02545694E-09
 -0.138999999       5.71196956E-09
 -0.131999999       6.46612675E-09
 -0.125000000       7.29280725E-09
 -0.118000001       8.19595769E-09
 -0.111000001       9.17884968E-09
 -0.104000002       1.02447419E-08
  -9.70000029E-02   1.13976872E-08
  -9.00000036E-02   1.26432189E-08
  -8.29999968E-02   1.39887142E-08
  -7.59999976E-02   1.54433444E-08
  -6.89999983E-02   1.70175198E-08
  -6.19999990E-02   1.87221936E-08
  -5.49999997E-02   2.05682298E-08
  -4.80000004E-02   2.25659935E-08
  -4.10000011E-02   2.47255372E-08
  -3.40000018E-02   2.70570393E-08
  -2.70000007E-02   2.95715719E-08
  -1.99999996E-02   3.22819851E-08
  -1.30000003E-02   3.52034917E-08
  -6.00000005E-03   3.83539458E-08
   1.00000005E-03   4.17537507E-08
   8.00000038E-03   4.54254518E-08
   1.49999997E-02   4.93932255E-08
   2.19999999E-02   5.36826121E-08
   2.89999992E-02   5.83204987E-08
   3.59999985E-02   6.33354418E-08
   4.30000015E-02   6.87582684E-08
   5.00000007E-02   7.46229318E-08
   5.70000000E-02   8.09671974E-08
   6.40000030E-02   8.78330439E-08
   7.10000023E-02   9.52669481E-08
   7.80000016E-02   1.03319614E-07
   8.50000009E-02   1.12045640E-07
   9.20000002E-02   1.21503220E-07
   9.89999995E-02   1.31753950E-07
  0.105999999       1.42862916E-07
  0.112999998       1.54899311E-07
  0.119999997       1.67937031E-07
  0.127000004       1.82055274E-07
  0.134000003       1.97339276E-07
  0.141000003       2.13880583E-07
  0.148000002       2.31777420E-07
  0.155000001       2.51134196E-07
  0.162000000       2.72060930E-07
  0.169000000       2.94672702E-07
  0.175999999       3.19089338E-07
  0.182999998       3.45435552E-07
  0.189999998       3.73840862E-07
  0.196999997       4.04440186E-07
  0.203999996       4.37374013E-07
  0.210999995       4.72788827E-07
  0.217999995       5.10836514E-07
  0.224999994       5.51674304E-07
  0.231999993       5.95464257E-07
  0.238999993       6.42371788E-07
  0.246000007       6.92564981E-07
  0.252999991       7.46214425E-07
  0.259999990       8.03492412E-07
  0.266999990       8.64573224E-07
  0.273999989       9.29632279E-07
  0.280999988       9.98846872E-07
  0.287999988       1.07239430E-06
  0.294999987       1.15045100E-06
  0.301999986       1.23319171E-06
  0.308999985       1.32078821E-06
  0.316000015       1.41340740E-06
  0.323000014       1.51120935E-06
  0.330000013       1.61434764E-06
  0.337000012       1.72296859E-06
  0.344000012       1.83720965E-06
  0.351000011       1.95720008E-06
  0.358000010       2.08305937E-06
  0.365000010       2.21489699E-06
  0.372000009       2.35281004E-06
  0.379000008       2.49688151E-06
  0.386000007       2.64718005E-06
  0.393000007       2.80375798E-06
  0.400000006       2.96664871E-06
  0.407000005       3.13586838E-06
  0.414000005       3.31141314E-06
  0.421000004       3.49325933E-06
  0.428000003       3.68136375E-06
  0.435000002       3.87566115E-06
  0.442000002       4.07606422E-06
  0.449000001       4.28246085E-06
  0.456000000       4.49471736E-06
  0.463000000       4.71267367E-06
  0.469999999       4.93614425E-06
  0.476999998       5.16491809E-06
  0.483999997       5.39876009E-06
  0.490999997       5.63741150E-06
  0.497999996       5.88058765E-06
  0.504999995       6.12798158E-06
  0.512000024       6.37926223E-06
  0.518999994       6.63407354E-06
  0.526000023       6.89203716E-06
  0.532999992       7.15274928E-06
  0.540000021       7.41578515E-06
  0.546999991       7.68069640E-06
  0.554000020       7.94701282E-06
  0.560999990       8.21424692E-06
  0.568000019       8.48189484E-06
  0.574999988       8.74943635E-06
  0.582000017       9.01633757E-06
  0.588999987       9.28205282E-06
  0.596000016       9.54601728E-06
  0.602999985       9.80766708E-06
  0.610000014       1.00664201E-05
  0.616999984       1.03216935E-05
  0.624000013       1.05728986E-05
  0.630999982       1.08194481E-05
  0.638000011       1.10607516E-05
  0.644999981       1.12962271E-05
  0.652000010       1.15252969E-05
  0.658999979       1.17473919E-05
  0.666000009       1.19619554E-05
  0.672999978       1.21684316E-05
  0.680000007       1.23662794E-05
  0.686999977       1.25549723E-05
  0.694000006       1.27339981E-05
  0.700999975       1.29028695E-05
  0.708000004       1.30611179E-05
  0.714999974       1.32083042E-05
  0.722000003       1.33440171E-05
  0.728999972       1.34678749E-05
  0.736000001       1.35795244E-05
  0.742999971       1.36786439E-05
  0.750000000       1.37649367E-05
  0.757000029       1.38381383E-05
  0.763999999       1.38980195E-05
  0.771000028       1.39443891E-05
  0.777999997       1.39770973E-05
  0.785000026       1.39960293E-05
  0.791999996       1.40011134E-05
  0.799000025       1.39923204E-05
  0.805999994       1.39696549E-05
  0.813000023       1.39331614E-05
  0.819999993       1.38829200E-05
  0.827000022       1.38190480E-05
  0.833999991       1.37416964E-05
  0.841000021       1.36510598E-05
  0.847999990       1.35473738E-05
  0.855000019       1.34309184E-05
  0.861999989       1.33020103E-05
  0.869000018       1.31610077E-05
  0.875999987       1.30082981E-05
  0.883000016       1.28443025E-05
  0.889999986       1.26694758E-05
  0.897000015       1.24842909E-05
  0.903999984       1.22892479E-05
  0.911000013       1.20848799E-05
  0.917999983       1.18717389E-05
  0.925000012       1.16504052E-05
  0.931999981       1.14214872E-05
  0.939000010       1.11856189E-05
  0.945999980       1.09434486E-05
  0.953000009       1.06956377E-05
  0.959999979       1.04428555E-05
  0.967000008       1.01857768E-05
  0.973999977       9.92507921E-06
  0.981000006       9.66143944E-06
  0.987999976       9.39554502E-06
  0.995000005       9.12808355E-06
   1.00199997       8.85975169E-06
   1.00899994       8.59124248E-06
   1.01600003       8.32324713E-06
   1.02300000       8.05644868E-06
   1.02999997       7.79151196E-06
   1.03699994       7.52908045E-06
   1.04400003       7.26977896E-06
   1.05100000       7.01420868E-06
   1.05799997       6.76295031E-06
   1.06500006       6.51656728E-06
   1.07200003       6.27560530E-06
   1.07900000       6.04059460E-06
   1.08599997       5.81204222E-06
   1.09300005       5.59042792E-06
   1.10000002       5.37619735E-06
   1.10699999       5.16976070E-06
   1.11399996       4.97148949E-06
   1.12100005       4.78172115E-06
   1.12800002       4.60075307E-06
   1.13499999       4.42885312E-06
   1.14199996       4.26626093E-06
   1.14900005       4.11319115E-06
   1.15600002       3.96982978E-06
   1.16299999       3.83632960E-06
   1.16999996       3.71280589E-06
   1.17700005       3.59933028E-06
   1.18400002       3.49593211E-06
   1.19099998       3.40259930E-06
   1.19799995       3.31928436E-06
   1.20500004       3.24590724E-06
   1.21200001       3.18235993E-06
   1.21899998       3.12851307E-06
   1.22599995       3.08421704E-06
   1.23300004       3.04929927E-06
   1.24000001       3.02355966E-06
   1.24699998       3.00676652E-06
   1.25399995       2.99865314E-06
   1.26100004       2.99892190E-06
   1.26800001       3.00724810E-06
   1.27499998       3.02328749E-06
   1.28199995       3.04668151E-06
   1.28900003       3.07706159E-06
   1.29600000       3.11405324E-06
   1.30299997       3.15727584E-06
   1.30999994       3.20634308E-06
   1.31700003       3.26085706E-06
   1.32400000       3.32040258E-06
   1.33099997       3.38454947E-06
   1.33800006       3.45285480E-06
   1.34500003       3.52486882E-06
   1.35200000       3.60014633E-06
   1.35899997       3.67825191E-06
   1.36600006       3.75876266E-06
   1.37300003       3.84126815E-06
   1.38000000       3.92537095E-06
   1.38699996       4.01068064E-06
   1.39400005       4.09681434E-06
   1.40100002       4.18338823E-06
   1.40799999       4.27002078E-06
   1.41499996       4.35633592E-06
   1.42200005       4.44196985E-06
   1.42900002       4.52658378E-06
   1.43599999       4.60986621E-06
   1.44299996       4.69153747E-06
   1.45000005       4.77134108E-06
   1.45700002       4.84903785E-06
   1.46399999       4.92440313E-06
   1.47099996       4.99722137E-06
   1.47800004       5.06729066E-06
   1.48500001       5.13442274E-06
   1.49199998       5.19844480E-06
   1.49899995       5.25920677E-06
   1.50600004       5.31658861E-06
   1.51300001       5.37050710E-06
   1.51999998       5.42091084E-06
   1.52699995       5.46777255E-06
   1.53400004       5.51107996E-06
   1.54100001       5.55082624E-06
   1.54799998       5.58701004E-06
   1.55499995       5.61964225E-06
   1.56200004       5.64874972E-06
   1.56900001       5.67437792E-06
   1.57599998       5.69658869E-06
   1.58299994       5.71547298E-06
   1.59000003       5.73114266E-06
   1.59700000       5.74373553E-06
   1.60399997       5.75340209E-06
   1.61099994       5.76029470E-06
   1.61800003       5.76456205E-06
   1.62500000       5.76634829E-06
   1.63199997       5.76579851E-06
   1.63900006       5.76307139E-06
   1.64600003       5.75833974E-06
   1.65300000       5.75179365E-06
   1.65999997       5.74363094E-06
   1.66700006       5.73405623E-06
   1.67400002       5.72327644E-06
   1.68099999       5.71149758E-06
   1.68799996       5.69891745E-06
   1.69500005       5.68572159E-06
   1.70200002       5.67207871E-06
   1.70899999       5.65815253E-06
   1.71599996       5.64411175E-06
   1.72300005       5.63013327E-06
   1.73000002       5.61640309E-06
   1.73699999       5.60310582E-06
   1.74399996       5.59041746E-06
   1.75100005       5.57849944E-06
   1.75800002       5.56750138E-06
   1.76499999       5.55756060E-06
   1.77199996       5.54880262E-06
   1.77900004       5.54133703E-06
   1.78600001       5.53526297E-06
   1.79299998       5.53067594E-06
   1.79999995       5.52767597E-06
   1.80700004       5.52636811E-06
   1.81400001       5.52685060E-06
   1.82099998       5.52920892E-06
   1.82799995       5.53350492E-06
   1.83500004       5.53978452E-06
   1.84200001       5.54808048E-06
   1.84899998       5.55841689E-06
   1.85599995       5.57081376E-06
   1.86300004       5.58528154E-06
   1.87000000       5.60182707E-06
   1.87699997       5.62045761E-06
   1.88399994       5.64118318E-06
   1.89100003       5.66400922E-06
   1.89800000       5.68893074E-06
   1.90499997       5.71592182E-06
   1.91199994       5.74494425E-06
   1.91900003       5.77594801E-06
   1.92600000       5.80888445E-06
   1.93299997       5.84370855E-06
   1.94000006       5.88037801E-06
   1.94700003       5.91884645E-06
   1.95400000       5.95906386E-06
   1.96099997       6.00097974E-06
   1.96800005       6.04454226E-06
   1.97500002       6.08969503E-06
   1.98199999       6.13637440E-06
   1.98899996       6.18450895E-06
   1.99600005       6.23402275E-06
   2.00300002       6.28484258E-06
   2.00999999       6.33690661E-06
   2.01699996       6.39016116E-06
   2.02399993       6.44455031E-06
   2.03099990       6.50001539E-06
   2.03800011       6.55649183E-06
   2.04500008       6.61391641E-06
   2.05200005       6.67223094E-06
   2.05900002       6.73137856E-06
   2.06599998       6.79130335E-06
   2.07299995       6.85194937E-06
   2.07999992       6.91326704E-06
   2.08699989       6.97521182E-06
   2.09400010       7.03775049E-06
   2.10100007       7.10084760E-06
   2.10800004       7.16446766E-06
   2.11500001       7.22856885E-06
   2.12199998       7.29311250E-06
   2.12899995       7.35806407E-06
   2.13599992       7.42340035E-06
   2.14299989       7.48910134E-06
   2.15000010       7.55514793E-06
   2.15700006       7.62152104E-06
   2.16400003       7.68820064E-06
   2.17100000       7.75517219E-06
   2.17799997       7.82241932E-06
   2.18499994       7.88992929E-06
   2.19199991       7.95768392E-06
   2.19899988       8.02566774E-06
   2.20600009       8.09387257E-06
   2.21300006       8.16229203E-06
   2.22000003       8.23093069E-06
   2.22700000       8.29979217E-06
   2.23399997       8.36886829E-06
   2.24099994       8.43814632E-06
   2.24799991       8.50760807E-06
   2.25500011       8.57723535E-06
   2.26200008       8.64700996E-06
   2.26900005       8.71691645E-06
   2.27600002       8.78693572E-06
   2.28299999       8.85705140E-06
   2.28999996       8.92724984E-06
   2.29699993       8.99751740E-06
   2.30399990       9.06783771E-06
   2.31100011       9.13818531E-06
   2.31800008       9.20852290E-06
   2.32500005       9.27880592E-06
   2.33200002       9.34899072E-06
   2.33899999       9.41902999E-06
   2.34599996       9.48888191E-06
   2.35299993       9.55851010E-06
   2.35999990       9.62786726E-06
   2.36700010       9.69690700E-06
   2.37400007       9.76558022E-06
   2.38100004       9.83383234E-06
   2.38800001       9.90160152E-06
   2.39499998       9.96882045E-06
   2.40199995       1.00354155E-05
   2.40899992       1.01013111E-05
   2.41599989       1.01664327E-05
   2.42300010       1.02307185E-05
   2.43000007       1.02941094E-05
   2.43700004       1.03565444E-05
   2.44400001       1.04179662E-05
   2.45099998       1.04783103E-05
   2.45799994       1.05375138E-05
   2.46499991       1.05955096E-05
   2.47199988       1.06522348E-05
   2.47900009       1.07076230E-05
   2.48600006       1.07616088E-05
   2.49300003       1.08141367E-05
   2.50000000       1.08651566E-05
   2.50699997       1.09146349E-05
   2.51399994       1.09625371E-05
   2.52099991       1.10088358E-05
   2.52800012       1.10534993E-05
   2.53500009       1.10965002E-05
   2.54200006       1.11378104E-05
   2.54900002       1.11774089E-05
   2.55599999       1.12152829E-05
   2.56299996       1.12514244E-05
   2.56999993       1.12858352E-05
   2.57699990       1.13185279E-05
   2.58400011       1.13495234E-05
   2.59100008       1.13788501E-05
   2.59800005       1.14065451E-05
   2.60500002       1.14326422E-05
   2.61199999       1.14571776E-05
   2.61899996       1.14801878E-05
   2.62599993       1.15017128E-05
   2.63299990       1.15218045E-05
   2.64000010       1.15405210E-05
   2.64700007       1.15579287E-05
   2.65400004       1.15741004E-05
   2.66100001       1.15891125E-05
   2.66799998       1.16030524E-05
   2.67499995       1.16160036E-05
   2.68199992       1.16280489E-05
   2.68899989       1.16392721E-05
   2.69600010       1.16497376E-05
   2.70300007       1.16595147E-05
   2.71000004       1.16686742E-05
   2.71700001       1.16772944E-05
   2.72399998       1.16854590E-05
   2.73099995       1.16932551E-05
   2.73799992       1.17007712E-05
   2.74499989       1.17080936E-05
   2.75200009       1.17153086E-05
   2.75900006       1.17224972E-05
   2.76600003       1.17297350E-05
   2.77300000       1.17370819E-05
   2.77999997       1.17445888E-05
   2.78699994       1.17523041E-05
   2.79399991       1.17602740E-05
   2.80100012       1.17685495E-05
   2.80800009       1.17771860E-05
   2.81500006       1.17862301E-05
   2.82200003       1.17957161E-05
   2.82900000       1.18056723E-05
   2.83599997       1.18161188E-05
   2.84299994       1.18270727E-05
   2.84999990       1.18385396E-05
   2.85700011       1.18505186E-05
   2.86400008       1.18630060E-05
   2.87100005       1.18759963E-05
   2.87800002       1.18894923E-05
   2.88499999       1.19034958E-05
   2.89199996       1.19180013E-05
   2.89899993       1.19329916E-05
   2.90599990       1.19484321E-05
   2.91300011       1.19642791E-05
   2.92000008       1.19804909E-05
   2.92700005       1.19970236E-05
   2.93400002       1.20138311E-05
   2.94099998       1.20308605E-05
   2.94799995       1.20480627E-05
   2.95499992       1.20653876E-05
   2.96199989       1.20827945E-05
   2.96900010       1.21002386E-05
   2.97600007       1.21176681E-05
   2.98300004       1.21350240E-05
   2.99000001       1.21522398E-05
   2.99699998       1.21692492E-05
   3.00399995       1.21859957E-05
   3.01099992       1.22024230E-05
   3.01799989       1.22184711E-05
   3.02500010       1.22340762E-05
   3.03200006       1.22491701E-05
   3.03900003       1.22636948E-05
   3.04600000       1.22775991E-05
   3.05299997       1.22908332E-05
   3.05999994       1.23033415E-05
   3.06699991       1.23150639E-05
   3.07399988       1.23259442E-05
   3.08100009       1.23359387E-05
   3.08800006       1.23450154E-05
   3.09500003       1.23531436E-05
   3.10200000       1.23602840E-05
   3.10899997       1.23663922E-05
   3.11599994       1.23714290E-05
   3.12299991       1.23753725E-05
   3.13000011       1.23782083E-05
   3.13700008       1.23799264E-05
   3.14400005       1.23805112E-05
   3.15100002       1.23799473E-05
   3.15799999       1.23782238E-05
   3.16499996       1.23753380E-05
   3.17199993       1.23712944E-05
   3.17899990       1.23660911E-05
   3.18600011       1.23597210E-05
   3.19300008       1.23521804E-05
   3.20000005       1.23434793E-05
   3.20700002       1.23336467E-05
   3.21399999       1.23227237E-05
   3.22099996       1.23107466E-05
   3.22799993       1.22977444E-05
   3.23499990       1.22837437E-05
   3.24200010       1.22687734E-05
   3.24900007       1.22528672E-05
   3.25600004       1.22360616E-05
   3.26300001       1.22183874E-05
   3.26999998       1.21998773E-05
   3.27699995       1.21805706E-05
   3.28399992       1.21605235E-05
   3.29099989       1.21398080E-05
   3.29800010       1.21184921E-05
   3.30500007       1.20966342E-05
   3.31200004       1.20742770E-05
   3.31900001       1.20514669E-05
   3.32599998       1.20282511E-05
   3.33299994       1.20046871E-05
   3.33999991       1.19808328E-05
   3.34699988       1.19567421E-05
   3.35400009       1.19324677E-05
   3.36100006       1.19080696E-05
   3.36800003       1.18836151E-05
   3.37500000       1.18591734E-05
   3.38199997       1.18348071E-05
   3.38899994       1.18105609E-05
   3.39599991       1.17864702E-05
   3.40300012       1.17625787E-05
   3.41000009       1.17389336E-05
   3.41700006       1.17155923E-05
   3.42400002       1.16926049E-05
   3.43099999       1.16700121E-05
   3.43799996       1.16478577E-05
   3.44499993       1.16261899E-05
   3.45199990       1.16050642E-05
   3.45900011       1.15845269E-05
   3.46600008       1.15646117E-05
   3.47300005       1.15453422E-05
   3.48000002       1.15267349E-05
   3.48699999       1.15088169E-05
   3.49399996       1.14916184E-05
   3.50099993       1.14751729E-05
   3.50799990       1.14595086E-05
   3.51500010       1.14446484E-05
   3.52200007       1.14306085E-05
   3.52900004       1.14174200E-05
   3.53600001       1.14051045E-05
   3.54299998       1.13936776E-05
   3.54999995       1.13831438E-05
   3.55699992       1.13735014E-05
   3.56399989       1.13647484E-05
   3.57100010       1.13568958E-05
   3.57800007       1.13499618E-05
   3.58500004       1.13439619E-05
   3.59200001       1.13389051E-05
   3.59899998       1.13347915E-05
   3.60599995       1.13316200E-05
   3.61299992       1.13293963E-05
   3.61999989       1.13281221E-05
   3.62700009       1.13277947E-05
   3.63400006       1.13284041E-05
   3.64100003       1.13299393E-05
   3.64800000       1.13324022E-05
   3.65499997       1.13358019E-05
   3.66199994       1.13401520E-05
   3.66899991       1.13454571E-05
   3.67600012       1.13517062E-05
   3.68300009       1.13588894E-05
   3.69000006       1.13669967E-05
   3.69700003       1.13760298E-05
   3.70400000       1.13859842E-05
   3.71099997       1.13968581E-05
   3.71799994       1.14086461E-05
   3.72499990       1.14213481E-05
   3.73200011       1.14349705E-05
   3.73900008       1.14495224E-05
   3.74600005       1.14649984E-05
   3.75300002       1.14813847E-05
   3.75999999       1.14986542E-05
   3.76699996       1.15167832E-05
   3.77399993       1.15357579E-05
   3.78099990       1.15555777E-05
   3.78800011       1.15762405E-05
   3.79500008       1.15977418E-05
   3.80200005       1.16200690E-05
   3.80900002       1.16432102E-05
   3.81599998       1.16671408E-05
   3.82299995       1.16918336E-05
   3.82999992       1.17172503E-05
   3.83699989       1.17433383E-05
   3.84400010       1.17700401E-05
   3.85100007       1.17973104E-05
   3.85800004       1.18251173E-05
   3.86500001       1.18534344E-05
   3.87199998       1.18822336E-05
   3.87899995       1.19114648E-05
   3.88599992       1.19410715E-05
   3.89299989       1.19709848E-05
   3.90000010       1.20011337E-05
   3.90700006       1.20314389E-05
   3.91400003       1.20618142E-05
   3.92100000       1.20921723E-05
   3.92799997       1.21224348E-05
   3.93499994       1.21525363E-05
   3.94199991       1.21824187E-05
   3.94899988       1.22120191E-05
   3.95600009       1.22412494E-05
   3.96300006       1.22700085E-05
   3.97000003       1.22981792E-05
   3.97700000       1.23256450E-05
   3.98399997       1.23522987E-05
   3.99099994       1.23780355E-05
   3.99799991       1.24027574E-05
   4.00500011       1.24263788E-05
   4.01200008       1.24488224E-05
   4.01900005       1.24700273E-05
   4.02600002       1.24899307E-05
   4.03299999       1.25084571E-05
   4.03999996       1.25255128E-05
   4.04699993       1.25409933E-05
   4.05399990       1.25548004E-05
   4.06099987       1.25668475E-05
   4.06799984       1.25770657E-05
   4.07499981       1.25853976E-05
   4.08199978       1.25917923E-05
   4.08900023       1.25962097E-05
   4.09600019       1.25986207E-05
   4.10300016       1.25989991E-05
   4.11000013       1.25973211E-05
   4.11700010       1.25935567E-05
   4.12400007       1.25876713E-05
   4.13100004       1.25796450E-05
   4.13800001       1.25694760E-05
   4.14499998       1.25571769E-05
   4.15199995       1.25427869E-05
   4.15899992       1.25263487E-05
   4.16599989       1.25079050E-05
   4.17299986       1.24875005E-05
   4.17999983       1.24651906E-05
   4.18699980       1.24410290E-05
   4.19399977       1.24150756E-05
   4.20100021       1.23873906E-05
   4.20800018       1.23580330E-05
   4.21500015       1.23270756E-05
   4.22200012       1.22946076E-05
   4.22900009       1.22607353E-05
   4.23600006       1.22255706E-05
   4.24300003       1.21892344E-05
   4.25000000       1.21518488E-05
   4.25699997       1.21135399E-05
   4.26399994       1.20744389E-05
   4.27099991       1.20346822E-05
   4.27799988       1.19943898E-05
   4.28499985       1.19536871E-05
   4.29199982       1.19126926E-05
   4.29899979       1.18715352E-05
   4.30600023       1.18303506E-05
   4.31300020       1.17892869E-05
   4.32000017       1.17484869E-05
   4.32700014       1.17080945E-05
   4.33400011       1.16682477E-05
   4.34100008       1.16290757E-05
   4.34800005       1.15906996E-05
   4.35500002       1.15532403E-05
   4.36199999       1.15168068E-05
   4.36899996       1.14815066E-05
   4.37599993       1.14474524E-05
   4.38299990       1.14147615E-05
   4.38999987       1.13835576E-05
   4.39699984       1.13539591E-05
   4.40399981       1.13260749E-05
   4.41099977       1.13000006E-05
   4.41800022       1.12758089E-05
   4.42500019       1.12535654E-05
   4.43200016       1.12333209E-05
   4.43900013       1.12151265E-05
   4.44600010       1.11990257E-05
   4.45300007       1.11850668E-05
   4.46000004       1.11733016E-05
   4.46700001       1.11637783E-05
   4.47399998       1.11565378E-05
   4.48099995       1.11516083E-05
   4.48799992       1.11489971E-05
   4.49499989       1.11486943E-05
   4.50199986       1.11506752E-05
   4.50899982       1.11549152E-05
   4.51599979       1.11613863E-05
   4.52299976       1.11700620E-05
   4.53000021       1.11809195E-05
   4.53700018       1.11939362E-05
   4.54400015       1.12090811E-05
   4.55100012       1.12263106E-05
   4.55800009       1.12455573E-05
   4.56500006       1.12667431E-05
   4.57200003       1.12897760E-05
   4.57900000       1.13145570E-05
   4.58599997       1.13409942E-05
   4.59299994       1.13689994E-05
   4.59999990       1.13984970E-05
   4.60699987       1.14294189E-05
   4.61399984       1.14616923E-05
   4.62099981       1.14952345E-05
   4.62799978       1.15299490E-05
   4.63500023       1.15657222E-05
   4.64200020       1.16024230E-05
   4.64900017       1.16399269E-05
   4.65600014       1.16781139E-05
   4.66300011       1.17168802E-05
   4.67000008       1.17561349E-05
   4.67700005       1.17957943E-05
   4.68400002       1.18357848E-05
   4.69099998       1.18760163E-05
   4.69799995       1.19163960E-05
   4.70499992       1.19568076E-05
   4.71199989       1.19971255E-05
   4.71899986       1.20372242E-05
   4.72599983       1.20769901E-05
   4.73299980       1.21163321E-05
   4.73999977       1.21551820E-05
   4.74700022       1.21934872E-05
   4.75400019       1.22311994E-05
   4.76100016       1.22682641E-05
   4.76800013       1.23046193E-05
   4.77500010       1.23401869E-05
   4.78200006       1.23748769E-05
   4.78900003       1.24086009E-05
   4.79600000       1.24412818E-05
   4.80299997       1.24728558E-05
   4.80999994       1.25032875E-05
   4.81699991       1.25325578E-05
   4.82399988       1.25606603E-05
   4.83099985       1.25875831E-05
   4.83799982       1.26133045E-05
   4.84499979       1.26377909E-05
   4.85200024       1.26609948E-05
   4.85900021       1.26828654E-05
   4.86600018       1.27033609E-05
   4.87300014       1.27224548E-05
   4.88000011       1.27401363E-05
   4.88700008       1.27564072E-05
   4.89400005       1.27712901E-05
   4.90100002       1.27848052E-05
   4.90799999       1.27969633E-05
   4.91499996       1.28077691E-05
   4.92199993       1.28172060E-05
   4.92899990       1.28252632E-05
   4.93599987       1.28319252E-05
   4.94299984       1.28371894E-05
   4.94999981       1.28410675E-05
   4.95699978       1.28435777E-05
   4.96400023       1.28447473E-05
   4.97100019       1.28446063E-05
   4.97800016       1.28431857E-05
   4.98500013       1.28405127E-05
   4.99200010       1.28366046E-05