  -1.00000000       9.99999921E-25
 -0.992999971       9.99999921E-25
 -0.986000001       9.99993117E-25
 -0.978999972       9.99786041E-25
 -0.972000003       9.97742497E-25
 -0.964999974       9.88681345E-25
 -0.958000004       9.78871761E-25
 -0.950999975       1.09649487E-24
 -0.944000006       1.97879782E-24
 -0.936999977       5.67915362E-24
 -0.930000007       1.71936762E-23
 -0.922999978       4.62214841E-23
 -0.916000009       1.07993543E-22
 -0.908999979       2.21248978E-22
 -0.902000010       4.01254970E-22
 -0.894999981       6.46812022E-22
 -0.888000011       9.22944237E-22
 -0.880999982       1.14518471E-21
 -0.874000013       1.17522827E-21
 -0.866999984       8.37690865E-22
 -0.860000014      -4.00534974E-23
 -0.852999985      -1.57906012E-21
 -0.846000016      -3.82323283E-21
 -0.838999987      -6.77595581E-21
 -0.832000017      -1.05191710E-20
 -0.824999988      -1.53868228E-20
 -0.818000019      -2.21025438E-20
 -0.810999990      -3.17513924E-20
 -0.804000020      -4.54778408E-20
 -0.796999991      -6.39082068E-20
 -0.790000021      -8.64618355E-20
 -0.782999992      -1.10867043E-19
 -0.776000023      -1.33229458E-19
 -0.768999994      -1.48825728E-19
 -0.762000024      -1.53409382E-19
 -0.754999995      -1.44343715E-19
 -0.748000026      -1.20564612E-19
 -0.740999997      -8.05089139E-20
 -0.734000027      -1.78886532E-20
 -0.726999998       8.35578434E-20
 -0.720000029       2.53901977E-19
 -0.713000000       5.36344891E-19
 -0.705999970       9.79536425E-19
 -0.699000001       1.62254114E-18
 -0.691999972       2.47524100E-18
 -0.685000002       3.49993890E-18
 -0.677999973       4.60115245E-18
 -0.671000004       5.62894256E-18
 -0.663999975       6.39651116E-18
 -0.657000005       6.70674608E-18
 -0.649999976       6.37762415E-18
 -0.643000007       5.25591182E-18
 -0.635999978       3.21420590E-18
 -0.629000008       1.36990855E-19
 -0.621999979      -4.08695506E-18
 -0.615000010      -9.54214958E-18
 -0.607999980      -1.62152381E-17
 -0.601000011      -2.38747982E-17
 -0.593999982      -3.19302304E-17
 -0.587000012      -3.93261185E-17
 -0.579999983      -4.45427529E-17
 -0.573000014      -4.57618020E-17
 -0.565999985      -4.12141384E-17
 -0.559000015      -2.96619060E-17
 -0.551999986      -1.08993842E-17
 -0.545000017       1.38867511E-17
 -0.537999988       4.20535579E-17
 -0.531000018       6.98287410E-17
 -0.523999989       9.30141504E-17
 -0.517000020       1.07927105E-16
 -0.509999990       1.12342655E-16
 -0.503000021       1.06168274E-16
 -0.495999992       9.16350683E-17
 -0.488999993       7.29162225E-17
 -0.481999993       5.52427047E-17
 -0.474999994       4.37224246E-17
 -0.467999995       4.21338673E-17
 -0.460999995       5.19373836E-17
 -0.453999996       7.16469634E-17
 -0.446999997       9.65856450E-17
 -0.439999998       1.18971773E-16
 -0.432999998       1.28296838E-16
 -0.425999999       1.12052493E-16
 -0.419000000       5.69903619E-17
 -0.412000000      -4.88455810E-17
 -0.405000001      -2.13177335E-16
 -0.398000002      -4.35803560E-16
 -0.391000003      -7.04773181E-16
 -0.384000003      -9.93478909E-16
 -0.377000004      -1.25998734E-15
 -0.370000005      -1.44979303E-15
 -0.363000005      -1.50260246E-15
 -0.356000006      -1.36276918E-15
 -0.349000007      -9.91858323E-16
 -0.342000008      -3.80843960E-16
 -0.335000008       4.41004845E-16
 -0.328000009       1.40320494E-15
 -0.321000010       2.39871557E-15
 -0.314000010       3.29619272E-15
 -0.307000011       3.95817353E-15
 -0.300000012       4.26214104E-15
 -0.293000013       4.12079072E-15
 -0.286000013       3.49801695E-15
 -0.279000014       2.41808700E-15
 -0.272000015       9.66804571E-16
 -0.264999986      -7.15222709E-16
 -0.257999986      -2.44617906E-15
 -0.250999987      -4.02204066E-15
 -0.244000003      -5.23947391E-15
 -0.237000003      -5.92113765E-15
 -0.230000004      -5.94160748E-15
 -0.223000005      -5.25142851E-15
 -0.216000006      -3.89573492E-15
 -0.209000006      -2.02299399E-15
 -0.202000007       1.20696623E-16
 -0.194999993       2.21502567E-15
 -0.187999994       3.90703137E-15
 -0.180999994       4.86708393E-15
 -0.173999995       4.85110338E-15
 -0.166999996       3.75731999E-15
 -0.159999996       1.66465225E-15
 -0.152999997      -1.15829797E-15
 -0.145999998      -4.27956832E-15
 -0.138999999      -7.16412589E-15
 -0.131999999      -9.25900693E-15
 -0.125000000      -1.00880243E-14
 -0.118000001      -9.33801986E-15
 -0.111000001      -6.92008596E-15
 -0.104000002      -2.99464899E-15
  -9.70000029E-02   2.04292171E-15
  -9.00000036E-02   7.61154056E-15
  -8.29999968E-02   1.30179545E-14
  -7.59999976E-02   1.75417610E-14
  -6.89999983E-02   2.05202693E-14
  -6.19999990E-02   2.14253630E-14
  -5.49999997E-02   1.99285677E-14
  -4.80000004E-02   1.59528407E-14
  -4.10000011E-02   9.70909483E-15
  -3.40000018E-02   1.71223242E-15
  -2.70000007E-02  -7.23234677E-15
  -1.99999996E-02  -1.60825604E-14
  -1.30000003E-02  -2.36616468E-14
  -6.00000005E-03  -2.88075499E-14
   1.00000005E-03  -3.05556836E-14
   8.00000038E-03  -2.83269383E-14
   1.49999997E-02  -2.20826131E-14
   2.19999999E-02  -1.24064763E-14
   2.89999992E-02  -4.83827072E-16
   3.59999985E-02   1.20326383E-14
   4.30000015E-02   2.32546916E-14
   5.00000007E-02   3.13484251E-14
   5.70000000E-02   3.48269455E-14
   6.40000030E-02   3.27892146E-14
   7.10000023E-02   2.50618228E-14
   7.80000016E-02   1.22246234E-14
   8.50000009E-02  -4.47119343E-15
   9.20000002E-02  -2.32623318E-14
   9.89999995E-02  -4.20702833E-14
  0.105999999      -5.87014568E-14
  0.112999998      -7.10323117E-14
  0.119999997      -7.71804495E-14
  0.127000004      -7.56749874E-14
  0.134000003      -6.56389819E-14
  0.141000003      -4.69802725E-14
  0.148000002      -2.05622076E-14
  0.155000001       1.16981527E-14
  0.162000000       4.68666819E-14
  0.169000000       8.12129972E-14
  0.175999999       1.10627809E-13
  0.182999998       1.31195985E-13
  0.189999998       1.39831140E-13
  0.196999997       1.34842062E-13
  0.203999996       1.16298613E-13
  0.210999995       8.60998623E-14
  0.217999995       4.77135557E-14
  0.224999994       5.63475497E-15
  0.231999993      -3.53199898E-14
  0.238999993      -7.07303004E-14
  0.246000007      -9.71557226E-14
  0.252999991      -1.12487636E-13
  0.259999990      -1.16043270E-13
  0.266999990      -1.08446597E-13
  0.273999989      -9.13875976E-14
  0.280999988      -6.73572458E-14
  0.287999988      -3.94218248E-14
  0.294999987      -1.10433293E-14
  0.301999986       1.41034467E-14
  0.308999985       3.23928133E-14
  0.316000015       4.06476407E-14
  0.323000014       3.66742532E-14
  0.330000013       1.98473253E-14
  0.337000012      -8.41396705E-15
  0.344000012      -4.44665700E-14
  0.351000011      -8.27123743E-14
  0.358000010      -1.16364722E-13
  0.365000010      -1.38619679E-13
  0.372000009      -1.43999911E-13
  0.379000008      -1.29552497E-13
  0.386000007      -9.55826198E-14
  0.393000007      -4.57050508E-14
  0.400000006       1.38304556E-14
  0.407000005       7.53839875E-14
  0.414000005       1.31422908E-13
  0.421000004       1.75884901E-13
  0.428000003       2.05068154E-13
  0.435000002       2.17863623E-13
  0.442000002       2.15354861E-13
  0.449000001       2.00004645E-13
  0.456000000       1.74760285E-13
  0.463000000       1.42397582E-13
  0.469999999       1.05295513E-13
  0.476999998       6.56303625E-14
  0.483999997       2.57852601E-14
  0.490999997      -1.13400847E-14
  0.497999996      -4.24090118E-14
  0.504999995      -6.42473610E-14
  0.512000024      -7.48520305E-14
  0.518999994      -7.44679180E-14
  0.526000023      -6.62702383E-14
  0.532999992      -5.62392608E-14
  0.540000021      -5.20427038E-14
  0.546999991      -6.10826155E-14
  0.554000020      -8.82042716E-14
  0.560999990      -1.33774543E-13
  0.568000019      -1.92823012E-13
  0.574999988      -2.55676312E-13
  0.582000017      -3.10073554E-13
  0.588999987      -3.44262000E-13
  0.596000016      -3.50208442E-13
  0.602999985      -3.25957089E-13
  0.610000014      -2.76376497E-13
  0.616999984      -2.12013431E-13
  0.624000013      -1.46363959E-13
  0.630999982      -9.23804897E-14
  0.638000011      -5.92817963E-14
  0.644999981      -5.06229038E-14
  0.652000010      -6.41441856E-14
  0.658999979      -9.32991138E-14
  0.666000009      -1.29779935E-13
  0.672999978      -1.66031970E-13
  0.680000007      -1.96800164E-13
  0.686999977      -2.19176931E-13
  0.694000006      -2.31266612E-13
  0.700999975      -2.30207807E-13
  0.708000004      -2.10646022E-13
  0.714999974      -1.64669507E-13
  0.722000003      -8.37017697E-14
  0.728999972       3.79484550E-14
  0.736000001       1.98957956E-13
  0.742999971       3.87821502E-13
  0.750000000       5.82113459E-13
  0.757000029       7.51007980E-13
  0.763999999       8.60858043E-13
  0.771000028       8.82549947E-13
  0.777999997       7.98598275E-13
  0.785000026       6.07825639E-13
  0.791999996       3.26074644E-13
  0.799000025      -1.74300271E-14
  0.805999994      -3.87084055E-13
  0.813000023      -7.49184081E-13
  0.819999993      -1.07896678E-12
  0.827000022      -1.36429594E-12
  0.833999991      -1.60503392E-12
  0.841000021      -1.80862877E-12
  0.847999990      -1.98377686E-12
  0.855000019      -2.13469542E-12
  0.861999989      -2.25828948E-12
  0.869000018      -2.34538495E-12
  0.875999987      -2.38560907E-12
  0.883000016      -2.37400312E-12
  0.889999986      -2.31661218E-12
  0.897000015      -2.23250173E-12
  0.903999984      -2.15085220E-12
  0.911000013      -2.10359681E-12
  0.917999983      -2.11586022E-12
  0.925000012      -2.19751517E-12
  0.931999981      -2.33907403E-12
  0.939000010      -2.51378389E-12
  0.945999980      -2.68567005E-12
  0.953000009      -2.82103312E-12
  0.959999979      -2.89941443E-12
  0.967000008      -2.91994120E-12
  0.973999977      -2.90029719E-12
  0.981000006      -2.86804413E-12
  0.987999976      -2.84674194E-12
  0.995000005      -2.84137969E-12
   1.00199997      -2.82814787E-12
   1.00899994      -2.75238968E-12
   1.01600003      -2.53589380E-12
   1.02300000      -2.09154894E-12
   1.02999997      -1.34064006E-12
   1.03699994      -2.27074964E-13
   1.04400003       1.27633093E-12
   1.05100000       3.17170574E-12
   1.05799997       5.44881675E-12
   1.06500006       8.10222549E-12
   1.07200003       1.11468768E-11
   1.07900000       1.46267911E-11
   1.08599997       1.86140894E-11
   1.09300005       2.31994337E-11
   1.10000002       2.84782562E-11
   1.10699999       3.45393852E-11
   1.11399996       4.14618721E-11
   1.12100005       4.93231567E-11
   1.12800002       5.82177223E-11
   1.13499999       6.82808809E-11
   1.14199996       7.97103425E-11
   1.14900005       9.27779589E-11
   1.15600002       1.07827594E-10
   1.16299999       1.25258817E-10
   1.16999996       1.45502457E-10
   1.17700005       1.68995998E-10
   1.18400002       1.96168415E-10
   1.19099998       2.27440483E-10
   1.19799995       2.63242456E-10
   1.20500004       3.04043540E-10
   1.21200001       3.50386192E-10
   1.21899998       4.02913730E-10
   1.22599995       4.62384520E-10
   1.23300004       5.29669808E-10
   1.24000001       6.05738792E-10
   1.24699998       6.91639579E-10
   1.25399995       7.88486720E-10
   1.26100004       8.97463270E-10
   1.26800001       1.01984143E-09
   1.27499998       1.15701937E-09
   1.28199995       1.31056432E-09
   1.28900003       1.48225099E-09
   1.29600000       1.67408476E-09
   1.30299997       1.88830529E-09
   1.30999994       2.12737294E-09
   1.31700003       2.39394549E-09
   1.32400000       2.69086020E-09
   1.33099997       3.02113157E-09
   1.33800006       3.38797035E-09
   1.34500003       3.79482357E-09
   1.35200000       4.24542845E-09
   1.35899997       4.74386708E-09
   1.36600006       5.29459898E-09
   1.37300003       5.90248073E-09
   1.38000000       6.57275079E-09
   1.38699996       7.31100913E-09
   1.39400005       8.12318834E-09
   1.40100002       9.01554476E-09
   1.40799999       9.99467442E-09
   1.41499996       1.10675504E-08
   1.42200005       1.22415864E-08
   1.42900002       1.35247040E-08
   1.43599999       1.49253818E-08
   1.44299996       1.64526899E-08
   1.45000005       1.81162836E-08
   1.45700002       1.99263841E-08
   1.46399999       2.18937473E-08
   1.47099996       2.40296156E-08
   1.47800004       2.63457416E-08
   1.48500001       2.88543802E-08
   1.49199998       3.15683550E-08
   1.49899995       3.45010882E-08
   1.50600004       3.76666520E-08
   1.51300001       4.10797902E-08
   1.51999998       4.47558719E-08
   1.52699995       4.87108487E-08
   1.53400004       5.29611803E-08
   1.54100001       5.75237600E-08
   1.54799998       6.24158645E-08
   1.55499995       6.76551082E-08
   1.56200004       7.32595353E-08
   1.56900001       7.92475419E-08
   1.57599998       8.56379927E-08
   1.58299994       9.24501222E-08
   1.59000003       9.97035912E-08
   1.59700000       1.07418330E-07
   1.60399997       1.15614448E-07
   1.61099994       1.24312123E-07
   1.61800003       1.33531486E-07
   1.62500000       1.43292525E-07
   1.63199997       1.53615147E-07
   1.63900006       1.64518966E-07
   1.64600003       1.76023462E-07
   1.65300000       1.88147865E-07
   1.65999997       2.00911032E-07
   1.66700006       2.14331394E-07
   1.67400002       2.28426700E-07
   1.68099999       2.43213975E-07
   1.68799996       2.58709235E-07
   1.69500005       2.74927459E-07
   1.70200002       2.91882372E-07
   1.70899999       3.09586540E-07
   1.71599996       3.28051470E-07
   1.72300005       3.47287113E-07
   1.73000002       3.67302135E-07
   1.73699999       3.88103786E-07
   1.74399996       4.09697719E-07
   1.75100005       4.32087660E-07
   1.75800002       4.55275483E-07
   1.76499999       4.79260962E-07
   1.77199996       5.04041793E-07
   1.77900004       5.29613487E-07
   1.78600001       5.55969336E-07
   1.79299998       5.83100473E-07
   1.79999995       6.10996096E-07
   1.80700004       6.39642849E-07
   1.81400001       6.69025212E-07
   1.82099998       6.99125167E-07
   1.82799995       7.29922078E-07
   1.83500004       7.61392982E-07
   1.84200001       7.93511958E-07
   1.84899998       8.26250812E-07
   1.85599995       8.59578790E-07
   1.86300004       8.93462868E-07
   1.87000000       9.27867745E-07
   1.87699997       9.62756303E-07
   1.88399994       9.98088694E-07
   1.89100003       1.03382365E-06
   1.89800000       1.06991706E-06
   1.90499997       1.10632334E-06
   1.91199994       1.14299496E-06
   1.91900003       1.17988225E-06
   1.92600000       1.21693381E-06
   1.93299997       1.25409770E-06
   1.94000006       1.29132025E-06
   1.94700003       1.32854666E-06
   1.95400000       1.36572123E-06
   1.96099997       1.40278780E-06
   1.96800005       1.43968919E-06
   1.97500002       1.47636752E-06
   1.98199999       1.51276458E-06
   1.98899996       1.54882218E-06
   1.99600005       1.58448222E-06
   2.00300002       1.61968683E-06
   2.00999999       1.65437882E-06
   2.01699996       1.68850147E-06
   2.02399993       1.72199987E-06
   2.03099990       1.75481944E-06
   2.03800011       1.78690709E-06
   2.04500008       1.81821110E-06
   2.05200005       1.84868122E-06
   2.05900002       1.87826879E-06
   2.06599998       1.90692708E-06
   2.07299995       1.93461142E-06
   2.07999992       1.96127894E-06
   2.08699989       1.98688986E-06
   2.09400010       2.01140665E-06
   2.10100007       2.03479476E-06
   2.10800004       2.05702190E-06
   2.11500001       2.07805874E-06
   2.12199998       2.09787800E-06
   2.12899995       2.11645624E-06
   2.13599992       2.13377257E-06
   2.14299989       2.14980855E-06
   2.15000010       2.16455032E-06
   2.15700006       2.17798652E-06
   2.16400003       2.19010872E-06
   2.17100000       2.20091238E-06
   2.17799997       2.21039545E-06
   2.18499994       2.21855930E-06
   2.19199991       2.22540825E-06
   2.19899988       2.23094935E-06
   2.20600009       2.23519282E-06
   2.21300006       2.23815186E-06
   2.22000003       2.23984239E-06
   2.22700000       2.24028372E-06
   2.23399997       2.23949837E-06
   2.24099994       2.23751135E-06
   2.24799991       2.23435086E-06
   2.25500011       2.23004622E-06
   2.26200008       2.22463041E-06
   2.26900005       2.21813821E-06
   2.27600002       2.21060668E-06
   2.28299999       2.20207539E-06
   2.28999996       2.19258527E-06
   2.29699993       2.18217974E-06
   2.30399990       2.17090314E-06
   2.31100011       2.15880300E-06
   2.31800008       2.14592683E-06
   2.32500005       2.13232352E-06
   2.33200002       2.11804286E-06
   2.33899999       2.10313556E-06
   2.34599996       2.08765368E-06
   2.35299993       2.07164976E-06
   2.35999990       2.05517654E-06
   2.36700010       2.03828859E-06
   2.37400007       2.02104047E-06
   2.38100004       2.00348632E-06
   2.38800001       1.98568114E-06
   2.39499998       1.96767837E-06
   2.40199995       1.94953213E-06
   2.40899992       1.93129495E-06
   2.41599989       1.91301865E-06
   2.42300010       1.89475418E-06
   2.43000007       1.87655110E-06
   2.43700004       1.85845795E-06
   2.44400001       1.84052203E-06
   2.45099998       1.82278859E-06
   2.45799994       1.80530128E-06
   2.46499991       1.78810194E-06
   2.47199988       1.77122968E-06
   2.47900009       1.75472178E-06
   2.48600006       1.73861292E-06
   2.49300003       1.72293562E-06
   2.50000000       1.70772023E-06
   2.50699997       1.69299415E-06
   2.51399994       1.67878227E-06
   2.52099991       1.66510688E-06
   2.52800012       1.65198685E-06
   2.53500009       1.63943787E-06
   2.54200006       1.62747210E-06
   2.54900002       1.61609830E-06
   2.55599999       1.60532204E-06
   2.56299996       1.59514514E-06
   2.56999993       1.58556691E-06
   2.57699990       1.57658349E-06
   2.58400011       1.56818805E-06
   2.59100008       1.56037072E-06
   2.59800005       1.55311898E-06
   2.60500002       1.54641714E-06
   2.61199999       1.54024588E-06
   2.61899996       1.53458359E-06
   2.62599993       1.52940561E-06
   2.63299990       1.52468476E-06
   2.64000010       1.52039183E-06
   2.64700007       1.51649613E-06
   2.65400004       1.51296490E-06
   2.66100001       1.50976393E-06
   2.66799998       1.50685844E-06
   2.67499995       1.50421170E-06
   2.68199992       1.50178562E-06
   2.68899989       1.49954144E-06
   2.69600010       1.49743948E-06
   2.70300007       1.49543996E-06
   2.71000004       1.49350296E-06
   2.71700001       1.49158939E-06
   2.72399998       1.48966092E-06
   2.73099995       1.48768061E-06
   2.73799992       1.48561264E-06
   2.74499989       1.48342281E-06
   2.75200009       1.48107813E-06
   2.75900006       1.47854735E-06
   2.76600003       1.47580101E-06
   2.77300000       1.47281173E-06
   2.77999997       1.46955483E-06
   2.78699994       1.46600883E-06
   2.79399991       1.46215541E-06
   2.80100012       1.45797992E-06
   2.80800009       1.45347065E-06
   2.81500006       1.44861986E-06
   2.82200003       1.44342221E-06
   2.82900000       1.43787622E-06
   2.83599997       1.43198281E-06
   2.84299994       1.42574652E-06
   2.84999990       1.41917508E-06
   2.85700011       1.41228008E-06
   2.86400008       1.40507711E-06
   2.87100005       1.39758527E-06
   2.87800002       1.38982728E-06
   2.88499999       1.38182963E-06
   2.89199996       1.37362122E-06
   2.89899993       1.36523374E-06
   2.90599990       1.35670086E-06
   2.91300011       1.34805862E-06
   2.92000008       1.33934464E-06
   2.92700005       1.33059905E-06
   2.93400002       1.32186381E-06
   2.94099998       1.31318279E-06
   2.94799995       1.30460160E-06
   2.95499992       1.29616660E-06
   2.96199989       1.28792510E-06
   2.96900010       1.27992428E-06
   2.97600007       1.27221108E-06
   2.98300004       1.26483189E-06
   2.99000001       1.25783208E-06
   2.99699998       1.25125598E-06
   3.00399995       1.24514736E-06
   3.01099992       1.23954828E-06
   3.01799989       1.23450013E-06
   3.02500010       1.23004179E-06
   3.03200006       1.22621020E-06
   3.03900003       1.22303925E-06
   3.04600000       1.22055917E-06
   3.05299997       1.21879646E-06
   3.05999994       1.21777452E-06
   3.06699991       1.21751225E-06
   3.07399988       1.21802509E-06
   3.08100009       1.21932499E-06
   3.08800006       1.22142001E-06
   3.09500003       1.22431447E-06
   3.10200000       1.22800850E-06
   3.10899997       1.23249720E-06
   3.11599994       1.23777102E-06
   3.12299991       1.24381529E-06
   3.13000011       1.25060967E-06
   3.13700008       1.25812926E-06
   3.14400005       1.26634495E-06
   3.15100002       1.27522264E-06
   3.15799999       1.28472448E-06
   3.16499996       1.29480838E-06
   3.17199993       1.30542833E-06
   3.17899990       1.31653360E-06
   3.18600011       1.32806997E-06
   3.19300008       1.33997821E-06
   3.20000005       1.35219511E-06
   3.20700002       1.36465337E-06
   3.21399999       1.37728250E-06
   3.22099996       1.39000929E-06
   3.22799993       1.40275836E-06
   3.23499990       1.41545218E-06
   3.24200010       1.42801127E-06
   3.24900007       1.44035437E-06
   3.25600004       1.45239903E-06
   3.26300001       1.46406092E-06
   3.26999998       1.47525486E-06
   3.27699995       1.48589527E-06
   3.28399992       1.49589596E-06
   3.29099989       1.50517246E-06
   3.29800010       1.51364111E-06
   3.30500007       1.52122038E-06
   3.31200004       1.52783161E-06
   3.31900001       1.53339761E-06
   3.32599998       1.53784447E-06
   3.33299994       1.54109966E-06
   3.33999991       1.54309464E-06
   3.34699988       1.54376323E-06
   3.35400009       1.54304348E-06
   3.36100006       1.54087752E-06
   3.36800003       1.53721226E-06
   3.37500000       1.53200074E-06
   3.38199997       1.52520170E-06
   3.38899994       1.51678012E-06
   3.39599991       1.50670746E-06
   3.40300012       1.49496111E-06
   3.41000009       1.48152446E-06
   3.41700006       1.46638786E-06
   3.42400002       1.44954834E-06
   3.43099999       1.43100999E-06
   3.43799996       1.41078431E-06
   3.44499993       1.38889095E-06
   3.45199990       1.36535698E-06
   3.45900011       1.34021730E-06
   3.46600008       1.31351408E-06
   3.47300005       1.28529666E-06
   3.48000002       1.25562076E-06
   3.48699999       1.22454844E-06
   3.49399996       1.19214747E-06
   3.50099993       1.15849218E-06
   3.50799990       1.12366411E-06
   3.51500010       1.08775089E-06
   3.52200007       1.05084700E-06
   3.52900004       1.01305375E-06
   3.53600001       9.74477985E-07
   3.54299998       9.35231583E-07
   3.54999995       8.95431185E-07
   3.55699992       8.55197129E-07
   3.56399989       8.14652935E-07
   3.57100010       7.73925080E-07
   3.57800007       7.33142429E-07
   3.58500004       6.92436799E-07
   3.59200001       6.51942287E-07
   3.59899998       6.11795485E-07
   3.60599995       5.72134127E-07
   3.61299992       5.33096568E-07
   3.61999989       4.94821052E-07
   3.62700009       4.57444600E-07
   3.63400006       4.21102925E-07
   3.64100003       3.85929525E-07
   3.64800000       3.52055650E-07
   3.65499997       3.19610365E-07
   3.66199994       2.88720202E-07
   3.66899991       2.59509108E-07
   3.67600012       2.32098060E-07
   3.68300009       2.06604341E-07
   3.69000006       1.83140472E-07
   3.69700003       1.61813588E-07
   3.70400000       1.42724971E-07
   3.71099997       1.25970146E-07
   3.71799994       1.11638670E-07
   3.72499990       9.98139953E-08
   3.73200011       9.05736783E-08
   3.73900008       8.39892635E-08
   3.74600005       8.01261990E-08
   3.75300002       7.90435166E-08
   3.75999999       8.07932210E-08
   3.76699996       8.54192663E-08
   3.77399993       9.29571797E-08
   3.78099990       1.03434068E-07
   3.78800011       1.16869003E-07
   3.79500008       1.33273829E-07
   3.80200005       1.52653172E-07
   3.80900002       1.75004814E-07
   3.81599998       2.00319775E-07
   3.82299995       2.28582778E-07
   3.82999992       2.59771696E-07
   3.83699989       2.93857482E-07
   3.84400010       3.30803374E-07
   3.85100007       3.70564692E-07
   3.85800004       4.13089055E-07
   3.86500001       4.58317061E-07
   3.87199998       5.06182857E-07
   3.87899995       5.56615078E-07
   3.88599992       6.09536244E-07
   3.89299989       6.64863251E-07
   3.90000010       7.22507593E-07
   3.90700006       7.82375366E-07
   3.91400003       8.44367435E-07
   3.92100000       9.08378865E-07
   3.92799997       9.74299610E-07
   3.93499994       1.04201445E-06
   3.94199991       1.11140446E-06
   3.94899988       1.18234811E-06
   3.95600009       1.25472104E-06
   3.96300006       1.32839762E-06
   3.97000003       1.40324903E-06
   3.97700000       1.47914398E-06
   3.98399997       1.55594807E-06
   3.99099994       1.63352399E-06
   3.99799991       1.71173235E-06
   4.00500011       1.79043138E-06
   4.01200008       1.86947750E-06
   4.01900005       1.94872655E-06
   4.02600002       2.02803517E-06
   4.03299999       2.10726034E-06
   4.03999996       2.18626110E-06
   4.04699993       2.26489715E-06
   4.05399990       2.34302911E-06
   4.06099987       2.42051669E-06
   4.06799984       2.49722189E-06
   4.07499981       2.57300690E-06
   4.08199978       2.64773644E-06
   4.08900023       2.72127841E-06
   4.09600019       2.79350252E-06
   4.10300016       2.86428281E-06
   4.11000013       2.93349649E-06
   4.11700010       3.00102670E-06
   4.12400007       3.06675838E-06
   4.13100004       3.13057967E-06
   4.13800001       3.19238279E-06
   4.14499998       3.25206202E-06
   4.15199995       3.30951752E-06
   4.15899992       3.36465405E-06
   4.16599989       3.41738269E-06
   4.17299986       3.46762067E-06
   4.17999983       3.51528979E-06
   4.18699980       3.56031842E-06
   4.19399977       3.60264085E-06
   4.20100021       3.64219659E-06
   4.20800018       3.67893017E-06
   4.21500015       3.71279043E-06
   4.22200012       3.74373167E-06
   4.22900009       3.77171409E-06
   4.23600006       3.79670564E-06
   4.24300003       3.81868040E-06
   4.25000000       3.83762108E-06
   4.25699997       3.85351404E-06
   4.26399994       3.86635429E-06
   4.27099991       3.87614136E-06
   4.27799988       3.88288072E-06
   4.28499985       3.88658464E-06
   4.29199982       3.88726949E-06
   4.29899979       3.88495801E-06
   4.30600023       3.87967702E-06
   4.31300020       3.87146247E-06
   4.32000017       3.86035572E-06
   4.32700014       3.84640407E-06
   4.33400011       3.82966027E-06
   4.34100008       3.81018208E-06
   4.34800005       3.78803043E-06
   4.35500002       3.76327307E-06
   4.36199999       3.73598186E-06
   4.36899996       3.70623252E-06
   4.37599993       3.67410644E-06
   4.38299990       3.63968820E-06
   4.38999987       3.60306763E-06
   4.39699984       3.56433907E-06
   4.40399981       3.52360121E-06
   4.41099977       3.48095614E-06
   4.41800022       3.43650822E-06
   4.42500019       3.39036228E-06
   4.43200016       3.34262586E-06
   4.43900013       3.29340855E-06
   4.44600010       3.24282246E-06
   4.45300007       3.19098035E-06
   4.46000004       3.13799728E-06
   4.46700001       3.08398967E-06
   4.47399998       3.02907642E-06
   4.48099995       2.97337715E-06
   4.48799992       2.91701258E-06
   4.49499989       2.86010254E-06
   4.50199986       2.80276481E-06
   4.50899982       2.74511603E-06
   4.51599979       2.68727058E-06
   4.52299976       2.62934304E-06
   4.53000021       2.57144484E-06
   4.53700018       2.51368556E-06
   4.54400015       2.45617207E-06
   4.55100012       2.39900805E-06
   4.55800009       2.34229469E-06
   4.56500006       2.28612907E-06
   4.57200003       2.23060465E-06
   4.57900000       2.17581032E-06
   4.58599997       2.12182931E-06
   4.59299994       2.06874097E-06
   4.59999990       2.01662033E-06
   4.60699987       1.96553879E-06
   4.61399984       1.91556319E-06
   4.62099981       1.86675493E-06
   4.62799978       1.81916937E-06
   4.63500023       1.77285608E-06
   4.64200020       1.72785815E-06
   4.64900017       1.68421275E-06
   4.65600014       1.64194989E-06
   4.66300011       1.60109312E-06
   4.67000008       1.56165902E-06
   4.67700005       1.52365919E-06
   4.68400002       1.48710035E-06
   4.69099998       1.45198385E-06
   4.69799995       1.41830617E-06
   4.70499992       1.38605776E-06
   4.71199989       1.35522373E-06
   4.71899986       1.32578339E-06
   4.72599983       1.29771149E-06
   4.73299980       1.27097792E-06
   4.73999977       1.24554776E-06
   4.74700022       1.22138226E-06
   4.75400019       1.19843912E-06
   4.76100016       1.17667321E-06
   4.76800013       1.15603814E-06
   4.77500010       1.13648434E-06
   4.78200006       1.11795998E-06
   4.78900003       1.10041083E-06
   4.79600000       1.08377947E-06
   4.80299997       1.06800815E-06
   4.80999994       1.05303820E-06
   4.81699991       1.03881086E-06
   4.82399988       1.02526758E-06
   4.83099985       1.01235094E-06
   4.83799982       1.00000511E-06
   4.84499979       9.88176112E-07
   4.85200024       9.76812089E-07
   4.85900021       9.65862682E-07
   4.86600018       9.55279006E-07
   4.87300014       9.45013994E-07
   4.88000011       9.35023934E-07
   4.88700008       9.25268012E-07
   4.89400005       9.15710075E-07
   4.90100002       9.06318235E-07
   4.90799999       8.97064638E-07
   4.91499996       8.87925808E-07
   4.92199993       8.78882020E-07
   4.92899990       8.69917699E-07
   4.93599987       8.61020169E-07
   4.94299984       8.52179937E-07
   4.94999981       8.43390922E-07
   4.95699978       8.34650734E-07
   4.96400023       8.25961195E-07
   4.97100019       8.17328555E-07
   4.97800016       8.08763161E-07
   4.98500013       8.00279338E-07
   4.99200010       7.91894024E-07