  -1.00000000       1.00274049E-20
 -0.992999971       8.64016051E-19
 -0.986000001       9.11465188E-18
 -0.978999972       4.52768790E-17
 -0.972000003       1.48214685E-16
 -0.964999974       3.74038076E-16
 -0.958000004       8.01999435E-16
 -0.950999975       1.56826933E-15
 -0.944000006       2.93569443E-15
 -0.936999977       5.37094402E-15
 -0.930000007       9.55948001E-15
 -0.922999978       1.62795345E-14
 -0.916000009       2.61072952E-14
 -0.908999979       3.90301669E-14
 -0.902000010       5.41517277E-14
 -0.894999981       6.97059394E-14
 -0.888000011       8.35076705E-14
 -0.880999982       9.37648735E-14
 -0.874000013       9.99523814E-14
 -0.866999984       1.03322299E-13
 -0.860000014       1.06699270E-13
 -0.852999985       1.13490109E-13
 -0.846000016       1.26227560E-13
 -0.838999987       1.45289732E-13
 -0.832000017       1.68506715E-13
 -0.824999988       1.92087543E-13
 -0.818000019       2.12729899E-13
 -0.810999990       2.30134163E-13
 -0.804000020       2.48741864E-13
 -0.796999991       2.77622272E-13
 -0.790000021       3.28095380E-13
 -0.782999992       4.09695254E-13
 -0.776000023       5.25998570E-13
 -0.768999994       6.72199872E-13
 -0.762000024       8.35834711E-13
 -0.754999995       1.00083364E-12
 -0.748000026       1.15360380E-12
 -0.740999997       1.28874082E-12
 -0.734000027       1.41182172E-12
 -0.726999998       1.53771559E-12
 -0.720000029       1.68466326E-12
 -0.713000000       1.86632589E-12
 -0.705999970       2.08521026E-12
 -0.699000001       2.33070681E-12
 -0.691999972       2.58332375E-12
 -0.685000002       2.82410228E-12
 -0.677999973       3.04571581E-12
 -0.671000004       3.26051794E-12
 -0.663999975       3.50156102E-12
 -0.657000005       3.81518948E-12
 -0.649999976       4.24733426E-12
 -0.643000007       4.82857374E-12
 -0.635999978       5.56408348E-12
 -0.629000008       6.43312140E-12
 -0.621999979       7.39911517E-12
 -0.615000010       8.42709669E-12
 -0.607999980       9.50181513E-12
 -0.601000011       1.06390226E-11
 -0.593999982       1.18845402E-11
 -0.587000012       1.33003036E-11
 -0.579999983       1.49419088E-11
 -0.573000014       1.68361158E-11
 -0.565999985       1.89675480E-11
 -0.559000015       2.12808608E-11
 -0.551999986       2.36990098E-11
 -0.545000017       2.61517596E-11
 -0.537999988       2.86043446E-11
 -0.531000018       3.10754790E-11
 -0.523999989       3.36375441E-11
 -0.517000020       3.63985196E-11
 -0.509999990       3.94719708E-11
 -0.503000021       4.29465040E-11
 -0.495999992       4.68663927E-11
 -0.488999993       5.12311756E-11
 -0.481999993       5.60145368E-11
 -0.474999994       6.11952503E-11
 -0.467999995       6.67873465E-11
 -0.460999995       7.28563598E-11
 -0.453999996       7.95135555E-11
 -0.446999997       8.68881078E-11
 -0.439999998       9.50868065E-11
 -0.432999998       1.04156364E-10
 -0.425999999       1.14063856E-10
 -0.419000000       1.24705329E-10
 -0.412000000       1.35942230E-10
 -0.405000001       1.47655305E-10
 -0.398000002       1.59797647E-10
 -0.391000003       1.72427975E-10
 -0.384000003       1.85710197E-10
 -0.377000004       1.99876574E-10
 -0.370000005       2.15164761E-10
 -0.363000005       2.31747621E-10
 -0.356000006       2.49679499E-10
 -0.349000007       2.68876643E-10
 -0.342000008       2.89138047E-10
 -0.335000008       3.10199783E-10
 -0.328000009       3.31804390E-10
 -0.321000010       3.53760271E-10
 -0.314000010       3.75972448E-10
 -0.307000011       3.98434813E-10
 -0.300000012       4.21190499E-10
 -0.293000013       4.44277004E-10
 -0.286000013       4.67679728E-10
 -0.279000014       4.91315266E-10
 -0.272000015       5.15051835E-10
 -0.264999986       5.38760647E-10
 -0.257999986       5.62378422E-10
 -0.250999987       5.85952009E-10
 -0.244000003       6.09642059E-10
 -0.237000003       6.33676001E-10
 -0.230000004       6.58257004E-10
 -0.223000005       6.83453349E-10
 -0.216000006       7.09101999E-10
 -0.209000006       7.34755812E-10
 -0.202000007       7.59691476E-10
 -0.194999993       7.82975629E-10
 -0.187999994       8.03566214E-10
 -0.180999994       8.20417845E-10
 -0.173999995       8.32555302E-10
 -0.166999996       8.39093961E-10
 -0.159999996       8.39202652E-10
 -0.152999997       8.32027669E-10
 -0.145999998       8.16600843E-10
 -0.138999999       7.91766541E-10
 -0.131999999       7.56145146E-10
 -0.125000000       7.08135772E-10
 -0.118000001       6.45942411E-10
 -0.111000001       5.67600522E-10
 -0.104000002       4.70978090E-10
  -9.70000029E-02   3.53737178E-10
  -9.00000036E-02   2.13256218E-10
  -8.29999968E-02   4.65319380E-11
  -7.59999976E-02  -1.49914733E-10
  -6.89999983E-02  -3.80100229E-10
  -6.19999990E-02  -6.48594956E-10
  -5.49999997E-02  -9.60497126E-10
  -4.80000004E-02  -1.32138611E-09
  -4.10000011E-02  -1.73727754E-09
  -3.40000018E-02  -2.21460938E-09
  -2.70000007E-02  -2.76027712E-09
  -1.99999996E-02  -3.38171291E-09
  -1.30000003E-02  -4.08700229E-09
  -6.00000005E-03  -4.88501861E-09
   1.00000005E-03  -5.78555470E-09
   8.00000038E-03  -6.79942547E-09
   1.49999997E-02  -7.93855204E-09
   2.19999999E-02  -9.21602172E-09
   2.89999992E-02  -1.06461471E-08
   3.59999985E-02  -1.22445156E-08
   4.30000015E-02  -1.40280569E-08
   5.00000007E-02  -1.60151004E-08
   5.70000000E-02  -1.82254727E-08
   6.40000030E-02  -2.06805630E-08
   7.10000023E-02  -2.34034161E-08
   7.80000016E-02  -2.64188103E-08
   8.50000009E-02  -2.97533642E-08
   9.20000002E-02  -3.34356187E-08
   9.89999995E-02  -3.74961360E-08
  0.105999999      -4.19676240E-08
  0.112999998      -4.68850061E-08
  0.119999997      -5.22854968E-08
  0.127000004      -5.82087054E-08
  0.134000003      -6.46966711E-08
  0.141000003      -7.17940125E-08
  0.148000002      -7.95479949E-08
  0.155000001      -8.80087256E-08
  0.162000000      -9.72293179E-08
  0.169000000      -1.07266075E-07
  0.175999999      -1.18178562E-07
  0.182999998      -1.30029605E-07
  0.189999998      -1.42885312E-07
  0.196999997      -1.56814949E-07
  0.203999996      -1.71890790E-07
  0.210999995      -1.88188011E-07
  0.217999995      -2.05784758E-07
  0.224999994      -2.24762033E-07
  0.231999993      -2.45203921E-07
  0.238999993      -2.67197549E-07
  0.246000007      -2.90833356E-07
  0.252999991      -3.16204904E-07
  0.259999990      -3.43408573E-07
  0.266999990      -3.72543525E-07
  0.273999989      -4.03711454E-07
  0.280999988      -4.37016098E-07
  0.287999988      -4.72563102E-07
  0.294999987      -5.10459756E-07
  0.301999986      -5.50815173E-07
  0.308999985      -5.93739742E-07
  0.316000015      -6.39345330E-07
  0.323000014      -6.87744659E-07
  0.330000013      -7.39051075E-07
  0.337000012      -7.93377922E-07
  0.344000012      -8.50837864E-07
  0.351000011      -9.11542145E-07
  0.358000010      -9.75600415E-07
  0.365000010      -1.04311982E-06
  0.372000009      -1.11420525E-06
  0.379000008      -1.18895912E-06
  0.386000007      -1.26748012E-06
  0.393000007      -1.34986431E-06
  0.400000006      -1.43620332E-06
  0.407000005      -1.52658299E-06
  0.414000005      -1.62108415E-06
  0.421000004      -1.71978115E-06
  0.428000003      -1.82274050E-06
  0.435000002      -1.93002097E-06
  0.442000002      -2.04167395E-06
  0.449000001      -2.15774139E-06
  0.456000000      -2.27825763E-06
  0.463000000      -2.40324812E-06
  0.469999999      -2.53272765E-06
  0.476999998      -2.66670008E-06
  0.483999997      -2.80515906E-06
  0.490999997      -2.94808319E-06
  0.497999996      -3.09544089E-06
  0.504999995      -3.24718735E-06
  0.512000024      -3.40326437E-06
  0.518999994      -3.56360397E-06
  0.526000023      -3.72812406E-06
  0.532999992      -3.89673096E-06
  0.540000021      -4.06931713E-06
  0.546999991      -4.24576137E-06
  0.554000020      -4.42592818E-06
  0.560999990      -4.60966885E-06
  0.568000019      -4.79681921E-06
  0.574999988      -4.98720328E-06
  0.582000017      -5.18063416E-06
  0.588999987      -5.37691176E-06
  0.596000016      -5.57582553E-06
  0.602999985      -5.77715537E-06
  0.610000014      -5.98066799E-06
  0.616999984      -6.18612194E-06
  0.624000013      -6.39326163E-06
  0.630999982      -6.60182286E-06
  0.638000011      -6.81153506E-06
  0.644999981      -7.02212037E-06
  0.652000010      -7.23329595E-06
  0.658999979      -7.44477393E-06
  0.666000009      -7.65626555E-06
  0.672999978      -7.86747751E-06
  0.680000007      -8.07811557E-06
  0.686999977      -8.28788416E-06
  0.694000006      -8.49648586E-06
  0.700999975      -8.70362419E-06
  0.708000004      -8.90900174E-06
  0.714999974      -9.11232655E-06
  0.722000003      -9.31331579E-06
  0.728999972      -9.51169295E-06
  0.736000001      -9.70718975E-06
  0.742999971      -9.89954788E-06
  0.750000000      -1.00885172E-05
  0.757000029      -1.02738577E-05
  0.763999999      -1.04553383E-05
  0.771000028      -1.06327334E-05
  0.777999997      -1.08058357E-05
  0.785000026      -1.09744506E-05
  0.791999996      -1.11384006E-05
  0.799000025      -1.12975267E-05
  0.805999994      -1.14516906E-05
  0.813000023      -1.16007686E-05
  0.819999993      -1.17446552E-05
  0.827000022      -1.18832577E-05
  0.833999991      -1.20165014E-05
  0.841000021      -1.21443236E-05
  0.847999990      -1.22666843E-05
  0.855000019      -1.23835598E-05
  0.861999989      -1.24949438E-05
  0.869000018      -1.26008536E-05
  0.875999987      -1.27013254E-05
  0.883000016      -1.27964158E-05
  0.889999986      -1.28861948E-05
  0.897000015      -1.29707460E-05
  0.903999984      -1.30501612E-05
  0.911000013      -1.31245515E-05
  0.917999983      -1.31940342E-05
  0.925000012      -1.32587475E-05
  0.931999981      -1.33188450E-05
  0.939000010      -1.33744934E-05
  0.945999980      -1.34258717E-05
  0.953000009      -1.34731708E-05
  0.959999979      -1.35165837E-05
  0.967000008      -1.35563096E-05
  0.973999977      -1.35925502E-05
  0.981000006      -1.36255112E-05
  0.987999976      -1.36553981E-05
  0.995000005      -1.36824228E-05
   1.00199997      -1.37068027E-05
   1.00899994      -1.37287598E-05
   1.01600003      -1.37485149E-05
   1.02300000      -1.37662855E-05
   1.02999997      -1.37822899E-05
   1.03699994      -1.37967354E-05
   1.04400003      -1.38098185E-05
   1.05100000      -1.38217292E-05
   1.05799997      -1.38326495E-05
   1.06500006      -1.38427558E-05
   1.07200003      -1.38522255E-05
   1.07900000      -1.38612204E-05
   1.08599997      -1.38698997E-05
   1.09300005      -1.38784080E-05
   1.10000002      -1.38868809E-05
   1.10699999      -1.38954401E-05
   1.11399996      -1.39041904E-05
   1.12100005      -1.39132226E-05
   1.12800002      -1.39226131E-05
   1.13499999      -1.39324329E-05
   1.14199996      -1.39427357E-05
   1.14900005      -1.39535696E-05
   1.15600002      -1.39649719E-05
   1.16299999      -1.39769691E-05
   1.16999996      -1.39895728E-05
   1.17700005      -1.40027823E-05
   1.18400002      -1.40165821E-05
   1.19099998      -1.40309457E-05
   1.19799995      -1.40458324E-05
   1.20500004      -1.40611910E-05
   1.21200001      -1.40769616E-05
   1.21899998      -1.40930815E-05
   1.22599995      -1.41094824E-05
   1.23300004      -1.41260880E-05
   1.24000001      -1.41428145E-05
   1.24699998      -1.41595701E-05
   1.25399995      -1.41762512E-05
   1.26100004      -1.41927540E-05
   1.26800001      -1.42089648E-05
   1.27499998      -1.42247718E-05
   1.28199995      -1.42400659E-05
   1.28900003      -1.42547296E-05
   1.29600000      -1.42686567E-05
   1.30299997      -1.42817316E-05
   1.30999994      -1.42938452E-05
   1.31700003      -1.43048846E-05
   1.32400000      -1.43147327E-05
   1.33099997      -1.43232783E-05
   1.33800006      -1.43304087E-05
   1.34500003      -1.43360212E-05
   1.35200000      -1.43400275E-05
   1.35899997      -1.43423404E-05
   1.36600006      -1.43428779E-05
   1.37300003      -1.43415655E-05
   1.38000000      -1.43383286E-05
   1.38699996      -1.43331035E-05
   1.39400005      -1.43258276E-05
   1.40100002      -1.43164434E-05
   1.40799999      -1.43049065E-05
   1.41499996      -1.42911840E-05
   1.42200005      -1.42752524E-05
   1.42900002      -1.42570980E-05
   1.43599999      -1.42367162E-05
   1.44299996      -1.42141098E-05
   1.45000005      -1.41892860E-05
   1.45700002      -1.41622559E-05
   1.46399999      -1.41330347E-05
   1.47099996      -1.41016508E-05
   1.47800004      -1.40681414E-05
   1.48500001      -1.40325565E-05
   1.49199998      -1.39949552E-05
   1.49899995      -1.39554040E-05
   1.50600004      -1.39139756E-05
   1.51300001      -1.38707464E-05
   1.51999998      -1.38257983E-05
   1.52699995      -1.37792113E-05
   1.53400004      -1.37310763E-05
   1.54100001      -1.36814824E-05
   1.54799998      -1.36305271E-05
   1.55499995      -1.35783148E-05
   1.56200004      -1.35249575E-05
   1.56900001      -1.34705679E-05
   1.57599998      -1.34152560E-05
   1.58299994      -1.33591338E-05
   1.59000003      -1.33023095E-05
   1.59700000      -1.32448922E-05
   1.60399997      -1.31869956E-05
   1.61099994      -1.31287288E-05
   1.61800003      -1.30702083E-05
   1.62500000      -1.30115413E-05
   1.63199997      -1.29528371E-05
   1.63900006      -1.28942065E-05
   1.64600003      -1.28357515E-05
   1.65300000      -1.27775656E-05
   1.65999997      -1.27197418E-05
   1.66700006      -1.26623599E-05
   1.67400002      -1.26054993E-05
   1.68099999      -1.25492388E-05
   1.68799996      -1.24936560E-05
   1.69500005      -1.24388225E-05
   1.70200002      -1.23848004E-05
   1.70899999      -1.23316395E-05
   1.71599996      -1.22793799E-05
   1.72300005      -1.22280562E-05
   1.73000002      -1.21776993E-05
   1.73699999      -1.21283301E-05
   1.74399996      -1.20799659E-05
   1.75100005      -1.20326195E-05
   1.75800002      -1.19862943E-05
   1.76499999      -1.19409888E-05
   1.77199996      -1.18966909E-05
   1.77900004      -1.18533771E-05
   1.78600001      -1.18110083E-05
   1.79299998      -1.17695363E-05
   1.79999995      -1.17289110E-05
   1.80700004      -1.16890833E-05
   1.81400001      -1.16500014E-05
   1.82099998      -1.16116098E-05
   1.82799995      -1.15738476E-05
   1.83500004      -1.15366438E-05
   1.84200001      -1.14999157E-05
   1.84899998      -1.14635777E-05
   1.85599995      -1.14275326E-05
   1.86300004      -1.13916767E-05
   1.87000000      -1.13559090E-05
   1.87699997      -1.13201259E-05
   1.88399994      -1.12842299E-05
   1.89100003      -1.12481293E-05
   1.89800000      -1.12117332E-05
   1.90499997      -1.11749414E-05
   1.91199994      -1.11376512E-05
   1.91900003      -1.10997526E-05
   1.92600000      -1.10611336E-05
   1.93299997      -1.10216888E-05
   1.94000006      -1.09813145E-05
   1.94700003      -1.09399216E-05
   1.95400000      -1.08974245E-05
   1.96099997      -1.08537524E-05
   1.96800005      -1.08088407E-05
   1.97500002      -1.07626320E-05
   1.98199999      -1.07150699E-05
   1.98899996      -1.06660991E-05
   1.99600005      -1.06156631E-05
   2.00300002      -1.05637091E-05
   2.00999999      -1.05102008E-05
   2.01699996      -1.04551182E-05
   2.02399993      -1.03984530E-05
   2.03099990      -1.03402135E-05
   2.03800011      -1.02804206E-05
   2.04500008      -1.02191016E-05
   2.05200005      -1.01563000E-05
   2.05900002      -1.00920633E-05
   2.06599998      -1.00264488E-05
   2.07299995      -9.95951450E-06
   2.07999992      -9.89132695E-06
   2.08699989      -9.82196616E-06
   2.09400010      -9.75153307E-06
   2.10100007      -9.68014319E-06
   2.10800004      -9.60792477E-06
   2.11500001      -9.53501512E-06
   2.12199998      -9.46155342E-06
   2.12899995      -9.38768608E-06
   2.13599992      -9.31356044E-06
   2.14299989      -9.23933112E-06
   2.15000010      -9.16515728E-06
   2.15700006      -9.09119990E-06
   2.16400003      -9.01763178E-06
   2.17100000      -8.94462937E-06
   2.17799997      -8.87238002E-06
   2.18499994      -8.80107109E-06
   2.19199991      -8.73089448E-06
   2.19899988      -8.66203300E-06
   2.20600009      -8.59466309E-06
   2.21300006      -8.52895937E-06
   2.22000003      -8.46509283E-06
   2.22700000      -8.40323446E-06
   2.23399997      -8.34355160E-06
   2.24099994      -8.28620432E-06
   2.24799991      -8.23134269E-06
   2.25500011      -8.17911496E-06
   2.26200008      -8.12965482E-06
   2.26900005      -8.08308778E-06
   2.27600002      -8.03952571E-06
   2.28299999      -7.99907139E-06
   2.28999996      -7.96181212E-06
   2.29699993      -7.92782430E-06
   2.30399990      -7.89718251E-06
   2.31100011      -7.86994951E-06
   2.31800008      -7.84617259E-06
   2.32500005      -7.82587995E-06
   2.33200002      -7.80908249E-06
   2.33899999      -7.79577749E-06
   2.34599996      -7.78595222E-06
   2.35299993      -7.77958667E-06
   2.35999990      -7.77664809E-06
   2.36700010      -7.77709101E-06
   2.37400007      -7.78085996E-06
   2.38100004      -7.78788399E-06
   2.38800001      -7.79808488E-06
   2.39499998      -7.81136714E-06
   2.40199995      -7.82761981E-06
   2.40899992      -7.84671465E-06
   2.41599989      -7.86852343E-06
   2.42300010      -7.89290789E-06
   2.43000007      -7.91973162E-06
   2.43700004      -7.94885909E-06
   2.44400001      -7.98014662E-06
   2.45099998      -8.01344413E-06
   2.45799994      -8.04858792E-06
   2.46499991      -8.08540972E-06
   2.47199988      -8.12373582E-06
   2.47900009      -8.16338888E-06
   2.48600006      -8.20419245E-06
   2.49300003      -8.24597373E-06
   2.50000000      -8.28856537E-06
   2.50699997      -8.33180911E-06
   2.51399994      -8.37555217E-06
   2.52099991      -8.41964356E-06
   2.52800012      -8.46392504E-06
   2.53500009      -8.50823653E-06
   2.54200006      -8.55241433E-06
   2.54900002      -8.59629927E-06
   2.55599999      -8.63974583E-06
   2.56299996      -8.68262032E-06
   2.56999993      -8.72479541E-06
   2.57699990      -8.76615923E-06
   2.58400011      -8.80660355E-06
   2.59100008      -8.84603469E-06
   2.59800005      -8.88436352E-06
   2.60500002      -8.92150183E-06
   2.61199999      -8.95736321E-06
   2.61899996      -8.99185852E-06
   2.62599993      -9.02491411E-06
   2.63299990      -9.05646630E-06
   2.64000010      -9.08646689E-06
   2.64700007      -9.11487768E-06
   2.65400004      -9.14167049E-06
   2.66100001      -9.16682347E-06
   2.66799998      -9.19032027E-06
   2.67499995      -9.21215451E-06
   2.68199992      -9.23232164E-06
   2.68899989      -9.25081986E-06
   2.69600010      -9.26764915E-06
   2.70300007      -9.28281315E-06
   2.71000004      -9.29632643E-06
   2.71700001      -9.30821534E-06
   2.72399998      -9.31851537E-06
   2.73099995      -9.32726289E-06
   2.73799992      -9.33450519E-06
   2.74499989      -9.34028412E-06
   2.75200009      -9.34464788E-06
   2.75900006      -9.34765012E-06
   2.76600003      -9.34934269E-06
   2.77300000      -9.34977470E-06
   2.77999997      -9.34899708E-06
   2.78699994      -9.34706168E-06
   2.79399991      -9.34402215E-06
   2.80100012      -9.33994124E-06
   2.80800009      -9.33488082E-06
   2.81500006      -9.32890271E-06
   2.82200003      -9.32206967E-06
   2.82900000      -9.31444265E-06
   2.83599997      -9.30608076E-06
   2.84299994      -9.29704493E-06
   2.84999990      -9.28739155E-06
   2.85700011      -9.27716701E-06
   2.86400008      -9.26642042E-06
   2.87100005      -9.25519726E-06
   2.87800002      -9.24354481E-06
   2.88499999      -9.23151038E-06
   2.89199996      -9.21915034E-06
   2.89899993      -9.20651382E-06
   2.90599990      -9.19364629E-06
   2.91300011      -9.18058413E-06
   2.92000008      -9.16736008E-06
   2.92700005      -9.15399414E-06
   2.93400002      -9.14050361E-06
   2.94099998      -9.12689757E-06
   2.94799995      -9.11318239E-06
   2.95499992      -9.09936807E-06
   2.96199989      -9.08547008E-06
   2.96900010      -9.07151298E-06
   2.97600007      -9.05751131E-06
   2.98300004      -9.04347780E-06
   2.99000001      -9.02941701E-06
   2.99699998      -9.01531530E-06
   3.00399995      -9.00115811E-06
   3.01099992      -8.98692633E-06
   3.01799989      -8.97259815E-06
   3.02500010      -8.95815720E-06
   3.03200006      -8.94358800E-06
   3.03900003      -8.92888511E-06
   3.04600000      -8.91405125E-06
   3.05299997      -8.89908733E-06
   3.05999994      -8.88398699E-06
   3.06699991      -8.86873295E-06
   3.07399988      -8.85329700E-06
   3.08100009      -8.83764187E-06
   3.08800006      -8.82173481E-06
   3.09500003      -8.80554671E-06
   3.10200000      -8.78905939E-06
   3.10899997      -8.77226557E-06
   3.11599994      -8.75516253E-06
   3.12299991      -8.73775571E-06
   3.13000011      -8.72005148E-06
   3.13700008      -8.70205531E-06
   3.14400005      -8.68376173E-06
   3.15100002      -8.66515893E-06
   3.15799999      -8.64623053E-06
   3.16499996      -8.62696561E-06
   3.17199993      -8.60736873E-06
   3.17899990      -8.58745352E-06
   3.18600011      -8.56725183E-06
   3.19300008      -8.54679820E-06
   3.20000005      -8.52613266E-06
   3.20700002      -8.50529523E-06
   3.21399999      -8.48431864E-06
   3.22099996      -8.46323292E-06
   3.22799993      -8.44206625E-06
   3.23499990      -8.42084228E-06
   3.24200010      -8.39959102E-06
   3.24900007      -8.37835341E-06
   3.25600004      -8.35718674E-06
   3.26300001      -8.33616377E-06
   3.26999998      -8.31536181E-06
   3.27699995      -8.29485634E-06
   3.28399992      -8.27471831E-06
   3.29099989      -8.25501229E-06
   3.29800010      -8.23580012E-06
   3.30500007      -8.21713365E-06
   3.31200004      -8.19907291E-06
   3.31900001      -8.18167518E-06
   3.32599998      -8.16500869E-06
   3.33299994      -8.14915529E-06
   3.33999991      -8.13420320E-06
   3.34699988      -8.12024427E-06
   3.35400009      -8.10736765E-06
   3.36100006      -8.09565336E-06
   3.36800003      -8.08516597E-06
   3.37500000      -8.07596098E-06
   3.38199997      -8.06809476E-06
   3.38899994      -8.06161916E-06
   3.39599991      -8.05659420E-06
   3.40300012      -8.05308355E-06
   3.41000009      -8.05114996E-06
   3.41700006      -8.05086347E-06
   3.42400002      -8.05228956E-06
   3.43099999      -8.05549098E-06
   3.43799996      -8.06050593E-06
   3.44499993      -8.06737080E-06
   3.45199990      -8.07610104E-06
   3.45900011      -8.08671120E-06
   3.46600008      -8.09922130E-06
   3.47300005      -8.11365408E-06
   3.48000002      -8.13003408E-06
   3.48699999      -8.14838859E-06
   3.49399996      -8.16873762E-06
   3.50099993      -8.19109300E-06
   3.50799990      -8.21546382E-06
   3.51500010      -8.24184099E-06
   3.52200007      -8.27020540E-06
   3.52900004      -8.30052795E-06
   3.53600001      -8.33277682E-06
   3.54299998      -8.36692379E-06
   3.54999995      -8.40294706E-06
   3.55699992      -8.44082115E-06
   3.56399989      -8.48052150E-06
   3.57100010      -8.52201447E-06
   3.57800007      -8.56525367E-06
   3.58500004      -8.61018179E-06
   3.59200001      -8.65673701E-06
   3.59899998      -8.70484928E-06
   3.60599995      -8.75444312E-06
   3.61299992      -8.80544485E-06
   3.61999989      -8.85777808E-06
   3.62700009      -8.91138188E-06
   3.63400006      -8.96619167E-06
   3.64100003      -9.02215015E-06
   3.64800000      -9.07918366E-06
   3.65499997      -9.13720851E-06
   3.66199994      -9.19613194E-06
   3.66899991      -9.25585391E-06
   3.67600012      -9.31627346E-06
   3.68300009      -9.37729146E-06
   3.69000006      -9.43881332E-06
   3.69700003      -9.50074536E-06
   3.70400000      -9.56299573E-06
   3.71099997      -9.62547620E-06
   3.71799994      -9.68809763E-06
   3.72499990      -9.75076182E-06
   3.73200011      -9.81335779E-06
   3.73900008      -9.87577096E-06
   3.74600005      -9.93787944E-06
   3.75300002      -9.99957047E-06
   3.75999999      -1.00607431E-05
   3.76699996      -1.01213018E-05
   3.77399993      -1.01811584E-05
   3.78099990      -1.02402219E-05
   3.78800011      -1.02983968E-05
   3.79500008      -1.03555813E-05
   3.80200005      -1.04116707E-05
   3.80900002      -1.04665523E-05
   3.81599998      -1.05201070E-05
   3.82299995      -1.05722193E-05
   3.82999992      -1.06227817E-05
   3.83699989      -1.06716998E-05
   3.84400010      -1.07188944E-05
   3.85100007      -1.07642854E-05
   3.85800004      -1.08077938E-05
   3.86500001      -1.08493296E-05
   3.87199998      -1.08887971E-05
   3.87899995      -1.09261027E-05
   3.88599992      -1.09611456E-05
   3.89299989      -1.09938292E-05
   3.90000010      -1.10240680E-05
   3.90700006      -1.10517822E-05
   3.91400003      -1.10769042E-05
   3.92100000      -1.10993797E-05
   3.92799997      -1.11191612E-05
   3.93499994      -1.11361924E-05
   3.94199991      -1.11504105E-05
   3.94899988      -1.11617437E-05
   3.95600009      -1.11701220E-05
   3.96300006      -1.11754825E-05
   3.97000003      -1.11777745E-05
   3.97700000      -1.11769596E-05
   3.98399997      -1.11730096E-05
   3.99099994      -1.11659056E-05
   3.99799991      -1.11556392E-05
   4.00500011      -1.11422069E-05
   4.01200008      -1.11256059E-05
   4.01900005      -1.11058234E-05
   4.02600002      -1.10828441E-05
   4.03299999      -1.10566534E-05
   4.03999996      -1.10272467E-05
   4.04699993      -1.09946377E-05
   4.05399990      -1.09588555E-05
   4.06099987      -1.09199382E-05
   4.06799984      -1.08779323E-05
   4.07499981      -1.08328904E-05
   4.08199978      -1.07848728E-05
   4.08900023      -1.07339420E-05
   4.09600019      -1.06801617E-05
   4.10300016      -1.06235921E-05
   4.11000013      -1.05642921E-05
   4.11700010      -1.05023273E-05
   4.12400007      -1.04377850E-05
   4.13100004      -1.03707598E-05
   4.13800001      -1.03013617E-05
   4.14499998      -1.02297099E-05
   4.15199995      -1.01559217E-05
   4.15899992      -1.00801199E-05
   4.16599989      -1.00024299E-05
   4.17299986      -9.92297555E-06
   4.17999983      -9.84188227E-06
   4.18699980      -9.75927014E-06
   4.19399977      -9.67526648E-06
   4.20100021      -9.59000590E-06
   4.20800018      -9.50363756E-06
   4.21500015      -9.41631970E-06
   4.22200012      -9.32821604E-06
   4.22900009      -9.23949028E-06
   4.23600006      -9.15029977E-06
   4.24300003      -9.06079731E-06
   4.25000000      -8.97113296E-06
   4.25699997      -8.88145860E-06
   4.26399994      -8.79191339E-06
   4.27099991      -8.70264012E-06
   4.27799988      -8.61378157E-06
   4.28499985      -8.52548965E-06
   4.29199982      -8.43792623E-06
   4.29899979      -8.35125229E-06
   4.30600023      -8.26562882E-06
   4.31300020      -8.18120679E-06
   4.32000017      -8.09812263E-06
   4.32700014      -8.01650549E-06
   4.33400011      -7.93647996E-06
   4.34100008      -7.85816246E-06
   4.34800005      -7.78166122E-06
   4.35500002      -7.70707993E-06
   4.36199999      -7.63452681E-06
   4.36899996      -7.56411100E-06
   4.37599993      -7.49594983E-06
   4.38299990      -7.43015426E-06
   4.38999987      -7.36682341E-06
   4.39699984      -7.30603779E-06
   4.40399981      -7.24786651E-06
   4.41099977      -7.19236732E-06
   4.41800022      -7.13959480E-06
   4.42500019      -7.08959669E-06
   4.43200016      -7.04241575E-06
   4.43900013      -6.99809198E-06
   4.44600010      -6.95666495E-06
   4.45300007      -6.91817604E-06
   4.46000004      -6.88266209E-06
   4.46700001      -6.85014902E-06
   4.47399998      -6.82064228E-06
   4.48099995      -6.79413370E-06
   4.48799992      -6.77060189E-06
   4.49499989      -6.75002684E-06
   4.50199986      -6.73238537E-06
   4.50899982      -6.71765611E-06
   4.51599979      -6.70581494E-06
   4.52299976      -6.69683232E-06
   4.53000021      -6.69068049E-06
   4.53700018      -6.68732628E-06
   4.54400015      -6.68673283E-06
   4.55100012      -6.68884559E-06
   4.55800009      -6.69359315E-06
   4.56500006      -6.70089548E-06
   4.57200003      -6.71066709E-06
   4.57900000      -6.72283295E-06
   4.58599997      -6.73731620E-06
   4.59299994      -6.75404453E-06
   4.59999990      -6.77294292E-06
   4.60699987      -6.79393270E-06
   4.61399984      -6.81693700E-06
   4.62099981      -6.84187580E-06
   4.62799978      -6.86866088E-06
   4.63500023      -6.89719309E-06
   4.64200020      -6.92736285E-06
   4.64900017      -6.95905874E-06
   4.65600014      -6.99217389E-06
   4.66300011      -7.02660873E-06
   4.67000008      -7.06226865E-06
   4.67700005      -7.09905544E-06
   4.68400002      -7.13686677E-06
   4.69099998      -7.17560079E-06
   4.69799995      -7.21516199E-06
   4.70499992      -7.25545397E-06
   4.71199989      -7.29638305E-06
   4.71899986      -7.33784964E-06
   4.72599983      -7.37975051E-06
   4.73299980      -7.42198608E-06
   4.73999977      -7.46446312E-06
   4.74700022      -7.50709569E-06
   4.75400019      -7.54979965E-06
   4.76100016      -7.59248996E-06
   4.76800013      -7.63508160E-06
   4.77500010      -7.67749407E-06
   4.78200006      -7.71965551E-06
   4.78900003      -7.76149773E-06
   4.79600000      -7.80294977E-06
   4.80299997      -7.84393706E-06
   4.80999994      -7.88437865E-06
   4.81699991      -7.92419905E-06
   4.82399988      -7.96333916E-06
   4.83099985      -8.00174439E-06
   4.83799982      -8.03937564E-06
   4.84499979      -8.07619472E-06
   4.85200024      -8.11216796E-06
   4.85900021      -8.14726809E-06
   4.86600018      -8.18147055E-06
   4.87300014      -8.21474896E-06
   4.88000011      -8.24707240E-06
   4.88700008      -8.27839722E-06
   4.89400005      -8.30868339E-06
   4.90100002      -8.33790273E-06
   4.90799999      -8.36604886E-06
   4.91499996      -8.39312543E-06
   4.92199993      -8.41914516E-06
   4.92899990      -8.44412079E-06
   4.93599987      -8.46805870E-06
   4.94299984      -8.49096796E-06
   4.94999981      -8.51285040E-06
   4.95699978      -8.53370784E-06
   4.96400023      -8.55353392E-06
   4.97100019      -8.57232044E-06
   4.97800016      -8.59007378E-06
   4.98500013      -8.60681666E-06
   4.99200010      -8.62258730E-06