  -1.00000000      -4.15198378E-17
 -0.992999971      -8.87066318E-16
 -0.986000001      -4.33960729E-15
 -0.978999972      -1.22317258E-14
 -0.972000003      -2.52400487E-14
 -0.964999974      -4.25300257E-14
 -0.958000004      -6.28823708E-14
 -0.950999975      -8.68459289E-14
 -0.944000006      -1.18133191E-13
 -0.936999977      -1.62079592E-13
 -0.930000007      -2.20363617E-13
 -0.922999978      -2.83907744E-13
 -0.916000009      -3.28218708E-13
 -0.908999979      -3.15469818E-13
 -0.902000010      -2.04775826E-13
 -0.894999981       3.22918572E-14
 -0.888000011       3.97328221E-13
 -0.880999982       8.58619707E-13
 -0.874000013       1.35629843E-12
 -0.866999984       1.81785186E-12
 -0.860000014       2.17805591E-12
 -0.852999985       2.39515504E-12
 -0.846000016       2.45629558E-12
 -0.838999987       2.36958760E-12
 -0.832000017       2.14622330E-12
 -0.824999988       1.78138233E-12
 -0.818000019       1.24449669E-12
 -0.810999990       4.86284732E-13
 -0.804000020      -5.37621380E-13
 -0.796999991      -1.83538558E-12
 -0.790000021      -3.35444823E-12
 -0.782999992      -4.97718663E-12
 -0.776000023      -6.54228581E-12
 -0.768999994      -7.88602256E-12
 -0.762000024      -8.88795721E-12
 -0.754999995      -9.50231300E-12
 -0.748000026      -9.76118578E-12
 -0.740999997      -9.74716835E-12
 -0.734000027      -9.54620410E-12
 -0.726999998      -9.20101235E-12
 -0.720000029      -8.68677699E-12
 -0.713000000      -7.92260615E-12
 -0.705999970      -6.81714364E-12
 -0.699000001      -5.33072458E-12
 -0.691999972      -3.52668979E-12
 -0.685000002      -1.58611329E-12
 -0.677999973       2.26279160E-13
 -0.671000004       1.63671832E-12
 -0.663999975       2.45032206E-12
 -0.657000005       2.61609896E-12
 -0.649999976       2.23885450E-12
 -0.643000007       1.52697007E-12
 -0.635999978       6.90883819E-13
 -0.629000008      -1.70908494E-13
 -0.621999979      -1.15258942E-12
 -0.615000010      -2.55161712E-12
 -0.607999980      -4.79682309E-12
 -0.601000011      -8.31346884E-12
 -0.593999982      -1.33713873E-11
 -0.587000012      -1.99733233E-11
 -0.579999983      -2.78297732E-11
 -0.573000014      -3.64368813E-11
 -0.565999985      -4.52354092E-11
 -0.559000015      -5.37964603E-11
 -0.551999986      -6.19655299E-11
 -0.545000017      -6.99080932E-11
 -0.537999988      -7.80351339E-11
 -0.531000018      -8.68319236E-11
 -0.523999989      -9.66530467E-11
 -0.517000020      -1.07564034E-10
 -0.509999990      -1.19295837E-10
 -0.503000021      -1.31340036E-10
 -0.495999992      -1.43157236E-10
 -0.488999993      -1.54424265E-10
 -0.481999993      -1.65222391E-10
 -0.474999994      -1.76083398E-10
 -0.467999995      -1.87856244E-10
 -0.460999995      -2.01426584E-10
 -0.453999996      -2.17380225E-10
 -0.446999997      -2.35734154E-10
 -0.439999998      -2.55845067E-10
 -0.432999998      -2.76549561E-10
 -0.425999999      -2.96505903E-10
 -0.419000000      -3.14627296E-10
 -0.412000000      -3.30455607E-10
 -0.405000001      -3.44329898E-10
 -0.398000002      -3.57271324E-10
 -0.391000003      -3.70605879E-10
 -0.384000003      -3.85446453E-10
 -0.377000004      -4.02207462E-10
 -0.370000005      -4.20338431E-10
 -0.363000005      -4.38375891E-10
 -0.356000006      -4.54308396E-10
 -0.349000007      -4.66134242E-10
 -0.342000008      -4.72399009E-10
 -0.335000008      -4.72515027E-10
 -0.328000009      -4.66721162E-10
 -0.321000010      -4.55683796E-10
 -0.314000010      -4.39887682E-10
 -0.307000011      -4.19030921E-10
 -0.300000012      -3.91675747E-10
 -0.293000013      -3.55296098E-10
 -0.286000013      -3.06745213E-10
 -0.279000014      -2.42974363E-10
 -0.272000015      -1.61762645E-10
 -0.264999986      -6.21647664E-11
 -0.257999986       5.55058985E-11
 -0.250999987       1.90185354E-10
 -0.244000003       3.40906720E-10
 -0.237000003       5.07703324E-10
 -0.230000004       6.92237823E-10
 -0.223000005       8.97946550E-10
 -0.216000006       1.12964749E-09
 -0.209000006       1.39271883E-09
 -0.202000007       1.69216396E-09
 -0.194999993       2.03189088E-09
 -0.187999994       2.41446041E-09
 -0.180999994       2.84137114E-09
 -0.173999995       3.31376526E-09
 -0.166999996       3.83332122E-09
 -0.159999996       4.40294246E-09
 -0.152999997       5.02707387E-09
 -0.145999998       5.71144243E-09
 -0.138999999       6.46239284E-09
 -0.131999999       7.28604377E-09
 -0.125000000       8.18764168E-09
 -0.118000001       9.17132148E-09
 -0.111000001       1.02404005E-08
 -0.104000002       1.13981304E-08
  -9.70000029E-02   1.26486679E-08
  -9.00000036E-02   1.39978864E-08
  -8.29999968E-02   1.54538036E-08
  -7.59999976E-02   1.70264638E-08
  -6.89999983E-02   1.87273379E-08
  -6.19999990E-02   2.05685069E-08
  -5.49999997E-02   2.25619079E-08
  -4.80000004E-02   2.47188918E-08
  -4.10000011E-02   2.70503602E-08
  -3.40000018E-02   2.95672589E-08
  -2.70000007E-02   3.22815303E-08
  -1.99999996E-02   3.52070693E-08
  -1.30000003E-02   3.83604828E-08
  -6.00000005E-03   4.17613322E-08
   1.00000005E-03   4.54320492E-08
   8.00000038E-03   4.93974284E-08
   1.49999997E-02   5.36840190E-08
   2.19999999E-02   5.83197419E-08
   2.89999992E-02   6.33339639E-08
   3.59999985E-02   6.87577284E-08
   4.30000015E-02   7.46246656E-08
   5.00000007E-02   8.09715104E-08
   5.70000000E-02   8.78392115E-08
   6.40000030E-02   9.52733430E-08
   7.10000023E-02   1.03324155E-07
   7.80000016E-02   1.12046472E-07
   8.50000009E-02   1.21499397E-07
   9.20000002E-02   1.31745608E-07
   9.89999995E-02   1.42851391E-07
  0.105999999       1.54886507E-07
  0.112999998       1.67924867E-07
  0.119999997       1.82045255E-07
  0.127000004       1.97331943E-07
  0.134000003       2.13875467E-07
  0.141000003       2.31772944E-07
  0.148000002       2.51128029E-07
  0.155000001       2.72050926E-07
  0.162000000       2.94657411E-07
  0.169000000       3.19068647E-07
  0.175999999       3.45410484E-07
  0.182999998       3.73813407E-07
  0.189999998       4.04412418E-07
  0.196999997       4.37347552E-07
  0.203999996       4.72764242E-07
  0.210999995       5.10813322E-07
  0.217999995       5.51651340E-07
  0.224999994       5.95439644E-07
  0.231999993       6.42343934E-07
  0.238999993       6.92533490E-07
  0.246000007       7.46179978E-07
  0.252999991       8.03456487E-07
  0.259999990       8.64537355E-07
  0.266999990       9.29597491E-07
  0.273999989       9.98812538E-07
  0.280999988       1.07235849E-06
  0.287999988       1.15041132E-06
  0.294999987       1.23314612E-06
  0.301999986       1.32073501E-06
  0.308999985       1.41334579E-06
  0.316000015       1.51114102E-06
  0.323000014       1.61427556E-06
  0.330000013       1.72289629E-06
  0.337000012       1.83714030E-06
  0.344000012       1.95713551E-06
  0.351000011       2.08299980E-06
  0.358000010       2.21484038E-06
  0.365000010       2.35275297E-06
  0.372000009       2.49682148E-06
  0.379000008       2.64711457E-06
  0.386000007       2.80368522E-06
  0.393000007       2.96656958E-06
  0.400000006       3.13578425E-06
  0.407000005       3.31132583E-06
  0.414000005       3.49317042E-06
  0.421000004       3.68127348E-06
  0.428000003       3.87556929E-06
  0.435000002       4.07596963E-06
  0.442000002       4.28236444E-06
  0.449000001       4.49462004E-06
  0.456000000       4.71257772E-06
  0.463000000       4.93605330E-06
  0.469999999       5.16483760E-06
  0.476999998       5.39869325E-06
  0.483999997       5.63735830E-06
  0.490999997       5.88054854E-06
  0.497999996       6.12795384E-06
  0.504999995       6.37924222E-06
  0.512000024       6.63405717E-06
  0.518999994       6.89201943E-06
  0.526000023       7.15272790E-06
  0.532999992       7.41575877E-06
  0.540000021       7.68066730E-06
  0.546999991       7.94698644E-06
  0.554000020       8.21422964E-06
  0.560999990       8.48188938E-06
  0.568000019       8.74944453E-06
  0.574999988       9.01636122E-06
  0.582000017       9.28208920E-06
  0.588999987       9.54606821E-06
  0.596000016       9.80773166E-06
  0.602999985       1.00665002E-05
  0.610000014       1.03217899E-05
  0.616999984       1.05730160E-05
  0.624000013       1.08195864E-05
  0.630999982       1.10609126E-05
  0.638000011       1.12964108E-05
  0.644999981       1.15255025E-05
  0.652000010       1.17476147E-05
  0.658999979       1.19621873E-05
  0.666000009       1.21686662E-05
  0.672999978       1.23665150E-05
  0.680000007       1.25552087E-05
  0.686999977       1.27342428E-05
  0.694000006       1.29031296E-05
  0.700999975       1.30614035E-05
  0.708000004       1.32086234E-05
  0.714999974       1.33443727E-05
  0.722000003       1.34682678E-05
  0.728999972       1.35799482E-05
  0.736000001       1.36790886E-05
  0.742999971       1.37653969E-05
  0.750000000       1.38386131E-05
  0.757000029       1.38985106E-05
  0.763999999       1.39449012E-05
  0.771000028       1.39776321E-05
  0.777999997       1.39965923E-05
  0.785000026       1.40017082E-05
  0.791999996       1.39929416E-05
  0.799000025       1.39702925E-05
  0.805999994       1.39338035E-05
  0.813000023       1.38835558E-05
  0.819999993       1.38196719E-05
  0.827000022       1.37423121E-05
  0.833999991       1.36516765E-05
  0.841000021       1.35480068E-05
  0.847999990       1.34315824E-05
  0.855000019       1.33027161E-05
  0.861999989       1.31617589E-05
  0.869000018       1.30090893E-05
  0.875999987       1.28451229E-05
  0.883000016       1.26703053E-05
  0.889999986       1.24851158E-05
  0.897000015       1.22900610E-05
  0.903999984       1.20856757E-05
  0.911000013       1.18725247E-05
  0.917999983       1.16511947E-05
  0.925000012       1.14222948E-05
  0.931999981       1.11864483E-05
  0.939000010       1.09442990E-05
  0.945999980       1.06964972E-05
  0.953000009       1.04437022E-05
  0.959999979       1.01865926E-05
  0.967000008       9.92585046E-06
  0.973999977       9.66216794E-06
  0.981000006       9.39624624E-06
  0.987999976       9.12878295E-06
  0.995000005       8.86047565E-06
   1.00199997       8.59201009E-06
   1.00899994       8.32406295E-06
   1.01600003       8.05729633E-06
   1.02300000       7.79236052E-06
   1.02999997       7.52989672E-06
   1.03699994       7.27053293E-06
   1.04400003       7.01488580E-06
   1.05100000       6.76355512E-06
   1.05799997       6.51712435E-06
   1.06500006       6.27615100E-06
   1.07200003       6.04116076E-06
   1.07900000       5.81264612E-06
   1.08599997       5.59106456E-06
   1.09300005       5.37684400E-06
   1.10000002       5.17038461E-06
   1.10699999       4.97206020E-06
   1.11399996       4.78222091E-06
   1.12100005       4.60118554E-06
   1.12800002       4.42924420E-06
   1.13499999       4.26664792E-06
   1.14199996       4.11361179E-06
   1.14900005       3.97030635E-06
   1.15600002       3.83685756E-06
   1.16299999       3.71335454E-06
   1.16999996       3.59985233E-06
   1.17700005       3.49638003E-06
   1.18400002       3.40294287E-06
   1.19099998       3.31951969E-06
   1.19799995       3.24605799E-06
   1.20500004       3.18247203E-06
   1.21200001       3.12863813E-06
   1.21899998       3.08439485E-06
   1.22599995       3.04954528E-06
   1.23300004       3.02385843E-06
   1.24000001       3.00707734E-06
   1.24699998       2.99892577E-06
   1.25399995       2.99911494E-06
   1.26100004       3.00734655E-06
   1.26800001       3.02330568E-06
   1.27499998       3.04665809E-06
   1.28199995       3.07704545E-06
   1.28900003       3.11408598E-06
   1.29600000       3.15737839E-06
   1.30299997       3.20650656E-06
   1.30999994       3.26104532E-06
   1.31700003       3.32056629E-06
   1.32400000       3.38463997E-06
   1.33099997       3.45284434E-06
   1.33800006       3.52476195E-06
   1.34500003       3.59997807E-06
   1.35200000       3.67807479E-06
   1.35899997       3.75862851E-06
   1.36600006       3.84121040E-06
   1.37300003       3.92539550E-06
   1.38000000       4.01076613E-06
   1.38699996       4.09692029E-06
   1.39400005       4.18347054E-06
   1.40100002       4.27004807E-06
   1.40799999       4.35629909E-06
   1.41499996       4.44188936E-06
   1.42200005       4.52649874E-06
   1.42900002       4.60982255E-06
   1.43599999       4.69156521E-06
   1.44299996       4.77144431E-06
   1.45000005       4.84919519E-06
   1.45700002       4.92457593E-06
   1.46399999       4.99737007E-06
   1.47099996       5.06738616E-06
   1.47800004       5.13445411E-06
   1.48500001       5.19842661E-06
   1.49199998       5.25917358E-06
   1.49899995       5.31658407E-06
   1.50600004       5.37057258E-06
   1.51300001       5.42106454E-06
   1.51999998       5.46800493E-06
   1.52699995       5.51135872E-06
   1.53400004       5.55110955E-06
   1.54100001       5.58726606E-06
   1.54799998       5.61985416E-06
   1.55499995       5.64891889E-06
   1.56200004       5.67451889E-06
   1.56900001       5.69672602E-06
   1.57599998       5.71563078E-06
   1.58299994       5.73133866E-06
   1.59000003       5.74397291E-06
   1.59700000       5.75366539E-06
   1.60399997       5.76056027E-06
   1.61099994       5.76480761E-06
   1.61800003       5.76656521E-06
   1.62500000       5.76599859E-06
   1.63199997       5.76328057E-06
   1.63900006       5.75858212E-06
   1.64600003       5.75208242E-06
   1.65300000       5.74396472E-06
   1.65999997       5.73442185E-06
   1.66700006       5.72365434E-06
   1.67400002       5.71186683E-06
   1.68099999       5.69925442E-06
   1.68799996       5.68600990E-06
   1.69500005       5.67231609E-06
   1.70200002       5.65835398E-06
   1.70899999       5.64430229E-06
   1.71599996       5.63033564E-06
   1.72300005       5.61662682E-06
   1.73000002       5.60334411E-06
   1.73699999       5.59065575E-06
   1.74399996       5.57872590E-06
   1.75100005       5.56771329E-06
   1.75800002       5.55776069E-06
   1.76499999       5.54899725E-06
   1.77199996       5.54153166E-06
   1.77900004       5.53546533E-06
   1.78600001       5.53089467E-06
   1.79299998       5.52791653E-06
   1.79999995       5.52662277E-06
   1.80700004       5.52710071E-06
   1.81400001       5.52943038E-06
   1.82099998       5.53368591E-06
   1.82799995       5.53992595E-06
   1.83500004       5.54819826E-06
   1.84200001       5.55853148E-06
   1.84899998       5.57093836E-06
   1.85599995       5.58541933E-06
   1.86300004       5.60197623E-06
   1.87000000       5.62061177E-06
   1.87699997       5.64133325E-06
   1.88399994       5.66414383E-06
   1.89100003       5.68904034E-06
   1.89800000       5.71600776E-06
   1.90499997       5.74501792E-06
   1.91199994       5.77603123E-06
   1.91900003       5.80899768E-06
   1.92600000       5.84386044E-06
   1.93299997       5.88055764E-06
   1.94000006       5.91903017E-06
   1.94700003       5.95922575E-06
   1.95400000       6.00110388E-06
   1.96099997       6.04462412E-06
   1.96800005       6.08974142E-06
   1.97500002       6.13639941E-06
   1.98199999       6.18452987E-06
   1.98899996       6.23405822E-06
   1.99600005       6.28490898E-06
   2.00300002       6.33700483E-06
   2.00999999       6.39027257E-06
   2.01699996       6.44464671E-06
   2.02399993       6.50007087E-06
   2.03099990       6.55649865E-06
   2.03800011       6.61388731E-06
   2.04500008       6.67219092E-06
   2.05200005       6.73135582E-06
   2.05900002       6.79131972E-06
   2.06599998       6.85201394E-06
   2.07299995       6.91337345E-06
   2.07999992       6.97534415E-06
   2.08699989       7.03787873E-06
   2.09400010       7.10094037E-06
   2.10100007       7.16450450E-06
   2.10800004       7.22854793E-06
   2.11500001       7.29305430E-06
   2.12199998       7.35800359E-06
   2.12899995       7.42336806E-06
   2.13599992       7.48911361E-06
   2.14299989       7.55520250E-06
   2.15000010       7.62159789E-06
   2.15700006       7.68827431E-06
   2.16400003       7.75521767E-06
   2.17100000       7.82242478E-06
   2.17799997       7.88989382E-06
   2.18499994       7.95762571E-06
   2.19199991       8.02562045E-06
   2.19899988       8.09386802E-06
   2.20600009       8.16235661E-06
   2.21300006       8.23106711E-06
   2.22000003       8.29997316E-06
   2.22700000       8.36905201E-06
   2.23399997       8.43829002E-06
   2.24099994       8.50768265E-06
   2.24799991       8.57723353E-06
   2.25500011       8.64695085E-06
   2.26200008       8.71683278E-06
   2.26900005       8.78686660E-06
   2.27600002       8.85703412E-06
   2.28299999       8.92730259E-06
   2.28999996       8.99763654E-06
   2.29699993       9.06799505E-06
   2.30399990       9.13833446E-06
   2.31100011       9.20862203E-06
   2.31800008       9.27882775E-06
   2.32500005       9.34893706E-06
   2.33200002       9.41893177E-06
   2.33899999       9.48877914E-06
   2.34599996       9.55843916E-06
   2.35299993       9.62785361E-06
   2.35999990       9.69695429E-06
   2.36700010       9.76567480E-06
   2.37400007       9.83394420E-06
   2.38100004       9.90169610E-06
   2.38800001       9.96886320E-06
   2.39499998       1.00353946E-05
   2.40199995       1.01012383E-05
   2.40899992       1.01663463E-05
   2.41599989       1.02306622E-05
   2.42300010       1.02941167E-05
   2.43000007       1.03566344E-05
   2.43700004       1.04181290E-05
   2.44400001       1.04785195E-05
   2.45099998       1.05377321E-05
   2.45799994       1.05957024E-05
   2.46499991       1.06523712E-05
   2.47199988       1.07076903E-05
   2.47900009       1.07616179E-05
   2.48600006       1.08141257E-05
   2.49300003       1.08651757E-05
   2.50000000       1.09147177E-05
   2.50699997       1.09626990E-05
   2.51399994       1.10090614E-05
   2.52099991       1.10537540E-05
   2.52800012       1.10967458E-05
   2.53500009       1.11380150E-05
   2.54200006       1.11775553E-05
   2.54900002       1.12153730E-05
   2.55599999       1.12514781E-05
   2.56299996       1.12858888E-05
   2.56999993       1.13186261E-05
   2.57699990       1.13497044E-05
   2.58400011       1.13791275E-05
   2.59100008       1.14068935E-05
   2.59800005       1.14330196E-05
   2.60500002       1.14575314E-05
   2.61199999       1.14804789E-05
   2.61899996       1.15019275E-05
   2.62599993       1.15219564E-05
   2.63299990       1.15406401E-05
   2.64000010       1.15580606E-05
   2.64700007       1.15742905E-05
   2.65400004       1.15893918E-05
   2.66100001       1.16034162E-05
   2.66799998       1.16164156E-05
   2.67499995       1.16284491E-05
   2.68199992       1.16395913E-05
   2.68899989       1.16499405E-05
   2.69600010       1.16596048E-05
   2.70300007       1.16686988E-05
   2.71000004       1.16773235E-05
   2.71700001       1.16855617E-05
   2.72399998       1.16934843E-05
   2.73099995       1.17011459E-05
   2.73799992       1.17085929E-05
   2.74499989       1.17158725E-05
   2.75200009       1.17230475E-05
   2.75900006       1.17301915E-05
   2.76600003       1.17374020E-05
   2.77300000       1.17447807E-05
   2.77999997       1.17524214E-05
   2.78699994       1.17603950E-05
   2.79399991       1.17687377E-05
   2.80100012       1.17774662E-05
   2.80800009       1.17865902E-05
   2.81500006       1.17961126E-05
   2.82200003       1.18060470E-05
   2.82900000       1.18164207E-05
   2.83599997       1.18272692E-05
   2.84299994       1.18386370E-05
   2.84999990       1.18505668E-05
   2.85700011       1.18630842E-05
   2.86400008       1.18761727E-05
   2.87100005       1.18898015E-05
   2.87800002       1.19039150E-05
   2.88499999       1.19184651E-05
   2.89199996       1.19334172E-05
   2.89899993       1.19487549E-05
   2.90599990       1.19644747E-05
   2.91300011       1.19805709E-05
   2.92000008       1.19970346E-05
   2.92700005       1.20138420E-05
   2.93400002       1.20309433E-05
   2.94099998       1.20482655E-05
   2.94799995       1.20657205E-05
   2.95499992       1.20832165E-05
   2.96199989       1.21006778E-05
   2.96900010       1.21180528E-05
   2.97600007       1.21353141E-05
   2.98300004       1.21524390E-05
   2.99000001       1.21693993E-05
   2.99699998       1.21861485E-05
   3.00399995       1.22026240E-05
   3.01099992       1.22187457E-05
   3.01799989       1.22344236E-05
   3.02500010       1.22495649E-05
   3.03200006       1.22640913E-05
   3.03900003       1.22779438E-05
   3.04600000       1.22910860E-05
   3.05299997       1.23034997E-05
   3.05999994       1.23151685E-05
   3.06699991       1.23260634E-05
   3.07399988       1.23361306E-05
   3.08100009       1.23453010E-05
   3.08800006       1.23535028E-05
   3.09500003       1.23606751E-05
   3.10200000       1.23667751E-05
   3.10899997       1.23717755E-05
   3.11599994       1.23756654E-05
   3.12299991       1.23784539E-05
   3.13000011       1.23801537E-05
   3.13700008       1.23807695E-05
   3.14400005       1.23802874E-05
   3.15100002       1.23786740E-05
   3.15799999       1.23758828E-05
   3.16499996       1.23718773E-05
   3.17199993       1.23666468E-05
   3.17899990       1.23602040E-05
   3.18600011       1.23525788E-05
   3.19300008       1.23438158E-05
   3.20000005       1.23339605E-05
   3.20700002       1.23230520E-05
   3.21399999       1.23111195E-05
   3.22099996       1.22981801E-05
   3.22799993       1.22842321E-05
   3.23499990       1.22692809E-05
   3.24200010       1.22533447E-05
   3.24900007       1.22364681E-05
   3.25600004       1.22187166E-05
   3.26300001       1.22001638E-05
   3.26999998       1.21808807E-05
   3.27699995       1.21609228E-05
   3.28399992       1.21403264E-05
   3.29099989       1.21191215E-05
   3.29800010       1.20973345E-05
   3.30500007       1.20749937E-05
   3.31200004       1.20521427E-05
   3.31900001       1.20288432E-05
   3.32599998       1.20051736E-05
   3.33299994       1.19812248E-05
   3.33999991       1.19570905E-05
   3.34699988       1.19328433E-05
   3.35400009       1.19085316E-05
   3.36100006       1.18841854E-05
   3.36800003       1.18598246E-05
   3.37500000       1.18354792E-05
   3.38199997       1.18111948E-05
   3.38899994       1.17870313E-05
   3.39599991       1.17630570E-05
   3.40300012       1.17393447E-05
   3.41000009       1.17159680E-05
   3.41700006       1.16929868E-05
   3.42400002       1.16704459E-05
   3.43099999       1.16483707E-05
   3.43799996       1.16267765E-05
   3.44499993       1.16056790E-05
   3.45199990       1.15851117E-05
   3.45900011       1.15651201E-05
   3.46600008       1.15457678E-05
   3.47300005       1.15271123E-05
   3.48000002       1.15091934E-05
   3.48699999       1.14920376E-05
   3.49399996       1.14756540E-05
   3.50099993       1.14600471E-05
   3.50799990       1.14452159E-05
   3.51500010       1.14311724E-05
   3.52200007       1.14179338E-05
   3.52900004       1.14055283E-05
   3.53600001       1.13939950E-05
   3.54299998       1.13833785E-05
   3.54999995       1.13737078E-05
   3.55699992       1.13649912E-05
   3.56399989       1.13572205E-05
   3.57100010       1.13503756E-05
   3.57800007       1.13444457E-05
   3.58500004       1.13394262E-05
   3.59200001       1.13353190E-05
   3.59899998       1.13321385E-05
   3.60599995       1.13298947E-05
   3.61299992       1.13285960E-05
   3.61999989       1.13282476E-05
   3.62700009       1.13288434E-05
   3.63400006       1.13303731E-05
   3.64100003       1.13328260E-05
   3.64800000       1.13361939E-05
   3.65499997       1.13404794E-05
   3.66199994       1.13456963E-05
   3.66899991       1.13518654E-05
   3.67600012       1.13590022E-05
   3.68300009       1.13671085E-05
   3.69000006       1.13761807E-05
   3.69700003       1.13861970E-05
   3.70400000       1.13971391E-05
   3.71099997       1.14089871E-05
   3.71799994       1.14217310E-05
   3.72499990       1.14353643E-05
   3.73200011       1.14498916E-05
   3.73900008       1.14653185E-05
   3.74600005       1.14816530E-05
   3.75300002       1.14988898E-05
   3.75999999       1.15170196E-05
   3.76699996       1.15360208E-05
   3.77399993       1.15558669E-05
   3.78099990       1.15765361E-05
   3.78800011       1.15980147E-05
   3.79500008       1.16202946E-05
   3.80200005       1.16433757E-05
   3.80900002       1.16672518E-05
   3.81599998       1.16919073E-05
   3.82299995       1.17173113E-05
   3.82999992       1.17434183E-05
   3.83699989       1.17701757E-05
   3.84400010       1.17975214E-05
   3.85100007       1.18253965E-05
   3.85800004       1.18537491E-05
   3.86500001       1.18825346E-05
   3.87199998       1.19117140E-05
   3.87899995       1.19412507E-05
   3.88599992       1.19711030E-05
   3.89299989       1.20012091E-05
   3.90000010       1.20314962E-05
   3.90700006       1.20618824E-05
   3.91400003       1.20922787E-05
   3.92100000       1.21225958E-05
   3.92799997       1.21527501E-05
   3.93499994       1.21826624E-05
   3.94199991       1.22122510E-05
   3.94899988       1.22414367E-05
   3.95600009       1.22701322E-05
   3.96300006       1.22982465E-05
   3.97000003       1.23256823E-05
   3.97700000       1.23523350E-05
   3.98399997       1.23781019E-05
   3.99099994       1.24028766E-05
   3.99799991       1.24265644E-05
   4.00500011       1.24490807E-05
   4.01200008       1.24703492E-05
   4.01900005       1.24902899E-05
   4.02600002       1.25088245E-05
   4.03299999       1.25258666E-05
   4.03999996       1.25413289E-05
   4.04699993       1.25551223E-05
   4.05399990       1.25671650E-05
   4.06099987       1.25773840E-05
   4.06799984       1.25857168E-05
   4.07499981       1.25921124E-05
   4.08199978       1.25965298E-05
   4.08900023       1.25989427E-05
   4.09600019       1.25993265E-05
   4.10300016       1.25976612E-05
   4.11000013       1.25939177E-05
   4.11700010       1.25880670E-05
   4.12400007       1.25800861E-05
   4.13100004       1.25699689E-05
   4.13800001       1.25577280E-05
   4.14499998       1.25433862E-05
   4.15199995       1.25269835E-05
   4.15899992       1.25085608E-05
   4.16599989       1.24881662E-05
   4.17299986       1.24658527E-05
   4.17999983       1.24416756E-05
   4.18699980       1.24156932E-05
   4.19399977       1.23879627E-05
   4.20100021       1.23585514E-05
   4.20800018       1.23275404E-05
   4.21500015       1.22950341E-05
   4.22200012       1.22611464E-05
   4.22900009       1.22259989E-05
   4.23600006       1.21897110E-05
   4.24300003       1.21523944E-05
   4.25000000       1.21141629E-05
   4.25699997       1.20751265E-05
   4.26399994       1.20354061E-05
   4.27099991       1.19951201E-05
   4.27799988       1.19543929E-05
   4.28499985       1.19133583E-05
   4.29199982       1.18721582E-05
   4.29899979       1.18309472E-05
   4.30600023       1.17898780E-05
   4.31300020       1.17490990E-05
   4.32000017       1.17087420E-05
   4.32700014       1.16689298E-05
   4.33400011       1.16297806E-05
   4.34100008       1.15914072E-05
   4.34800005       1.15539297E-05
   4.35500002       1.15174653E-05
   4.36199999       1.14821305E-05
   4.36899996       1.14480481E-05
   4.37599993       1.14153409E-05
   4.38299990       1.13841352E-05
   4.38999987       1.13545493E-05
   4.39699984       1.13266842E-05
   4.40399981       1.13006199E-05
   4.41099977       1.12764201E-05
   4.41800022       1.12541384E-05
   4.42500019       1.12338312E-05
   4.43200016       1.12155549E-05
   4.43900013       1.11993722E-05
   4.44600010       1.11853433E-05
   4.45300007       1.11735262E-05
   4.46000004       1.11639783E-05
   4.46700001       1.11567451E-05
   4.47399998       1.11518511E-05
   4.48099995       1.11492927E-05
   4.48799992       1.11490426E-05
   4.49499989       1.11510553E-05
   4.50199986       1.11552927E-05
   4.50899982       1.11617301E-05
   4.51599979       1.11703539E-05
   4.52299976       1.11811587E-05
   4.53000021       1.11941299E-05
   4.53700018       1.12092439E-05
   4.54400015       1.12264561E-05
   4.55100012       1.12457055E-05
   4.55800009       1.12669059E-05
   4.56500006       1.12899543E-05
   4.57200003       1.13147344E-05
   4.57900000       1.13411415E-05
   4.58599997       1.13690930E-05
   4.59299994       1.13985298E-05
   4.59999990       1.14294025E-05
   4.60699987       1.14616505E-05
   4.61399984       1.14952009E-05
   4.62099981       1.15299536E-05
   4.62799978       1.15657867E-05
   4.63500023       1.16025685E-05
   4.64200020       1.16401588E-05
   4.64900017       1.16784213E-05
   4.65600014       1.17172267E-05
   4.66300011       1.17564769E-05
   4.67000008       1.17960926E-05
   4.67700005       1.18360140E-05
   4.68400002       1.18761745E-05
   4.69099998       1.19164915E-05
   4.69799995       1.19568567E-05
   4.70499992       1.19971528E-05
   4.71199989       1.20372579E-05
   4.71899986       1.20770546E-05
   4.72599983       1.21164403E-05
   4.73299980       1.21553276E-05
   4.73999977       1.21936428E-05
   4.74700022       1.22313340E-05
   4.75400019       1.22683596E-05
   4.76100016       1.23046757E-05
   4.76800013       1.23402197E-05
   4.77500010       1.23749169E-05
   4.78200006       1.24086791E-05
   4.78900003       1.24414228E-05
   4.79600000       1.24730714E-05
   4.80299997       1.25035740E-05
   4.80999994       1.25328934E-05
   4.81699991       1.25609995E-05
   4.82399988       1.25878805E-05
   4.83099985       1.26135265E-05
   4.83799982       1.26379273E-05
   4.84499979       1.26610694E-05
   4.85200024       1.26829264E-05
   4.85900021       1.27034618E-05
   4.86600018       1.27226376E-05
   4.87300014       1.27404237E-05
   4.88000011       1.27568010E-05
   4.88700008       1.27717603E-05
   4.89400005       1.27853027E-05
   4.90100002       1.27974345E-05
   4.90799999       1.28081720E-05
   4.91499996       1.28175325E-05
   4.92199993       1.28255315E-05
   4.92899990       1.28321808E-05
   4.93599987       1.28374813E-05
   4.94299984       1.28414285E-05
   4.94999981       1.28440197E-05
   4.95699978       1.28452557E-05
   4.96400023       1.28451511E-05
   4.97100019       1.28437250E-05
   4.97800016       1.28410038E-05
   4.98500013       1.28370230E-05
   4.99200010       1.28318188E-05