  -1.00000000      -1.11271605E-21
 -0.992999971      -2.50656198E-19
 -0.986000001      -3.09021090E-18
 -0.978999972      -1.76879306E-17
 -0.972000003      -6.83609918E-17
 -0.964999974      -2.09836226E-16
 -0.958000004      -5.57315757E-16
 -0.950999975      -1.33867554E-15
 -0.944000006      -2.96071134E-15
 -0.936999977      -6.05001456E-15
 -0.930000007      -1.14010779E-14
 -0.922999978      -1.97736386E-14
 -0.916000009      -3.15500054E-14
 -0.908999979      -4.63711507E-14
 -0.902000010      -6.29535893E-14
 -0.894999981      -7.92754466E-14
 -0.888000011      -9.31833617E-14
 -0.880999982      -1.03260215E-13
 -0.874000013      -1.09611661E-13
 -0.866999984      -1.14182318E-13
 -0.860000014      -1.20349219E-13
 -0.852999985      -1.31831828E-13
 -0.846000016      -1.51297011E-13
 -0.838999987      -1.79277857E-13
 -0.832000017      -2.14022498E-13
 -0.824999988      -2.52574030E-13
 -0.818000019      -2.92823789E-13
 -0.810999990      -3.35698266E-13
 -0.804000020      -3.86350023E-13
 -0.796999991      -4.53453925E-13
 -0.790000021      -5.46468036E-13
 -0.782999992      -6.71707373E-13
 -0.776000023      -8.28827675E-13
 -0.768999994      -1.00941586E-12
 -0.762000024      -1.19869457E-12
 -0.754999995      -1.38009938E-12
 -0.748000026      -1.54119924E-12
 -0.740999997      -1.67864995E-12
 -0.734000027      -1.80001381E-12
 -0.726999998      -1.92139165E-12
 -0.720000029      -2.06153909E-12
 -0.713000000      -2.23480674E-12
 -0.705999970      -2.44607329E-12
 -0.699000001      -2.69031217E-12
 -0.691999972      -2.95758903E-12
 -0.685000002      -3.24179919E-12
 -0.677999973      -3.54945066E-12
 -0.671000004      -3.90429182E-12
 -0.663999975      -4.34496623E-12
 -0.657000005      -4.91569936E-12
 -0.649999976      -5.65314896E-12
 -0.643000007      -6.57454429E-12
 -0.635999978      -7.67228382E-12
 -0.629000008      -8.91787946E-12
 -0.621999979      -1.02745156E-11
 -0.615000010      -1.17137237E-11
 -0.607999980      -1.32294939E-11
 -0.601000011      -1.48435361E-11
 -0.593999982      -1.65986478E-11
 -0.587000012      -1.85419752E-11
 -0.579999983      -2.07046533E-11
 -0.573000014      -2.30864737E-11
 -0.565999985      -2.56530543E-11
 -0.559000015      -2.83482248E-11
 -0.551999986      -3.11182191E-11
 -0.545000017      -3.39389766E-11
 -0.537999988      -3.68359683E-11
 -0.531000018      -3.98879159E-11
 -0.523999989      -4.32119791E-11
 -0.517000020      -4.69348380E-11
 -0.509999990      -5.11601247E-11
 -0.503000021      -5.59449015E-11
 -0.495999992      -6.12948650E-11
 -0.488999993      -6.71810177E-11
 -0.481999993      -7.35718986E-11
 -0.474999994      -8.04687705E-11
 -0.467999995      -8.79289488E-11
 -0.460999995      -9.60666269E-11
 -0.453999996      -1.05029020E-10
 -0.446999997      -1.14955941E-10
 -0.439999998      -1.25937857E-10
 -0.432999998      -1.37989231E-10
 -0.425999999      -1.51049034E-10
 -0.419000000      -1.65009659E-10
 -0.412000000      -1.79765383E-10
 -0.405000001      -1.95262251E-10
 -0.398000002      -2.11530876E-10
 -0.391000003      -2.28688096E-10
 -0.384000003      -2.46905579E-10
 -0.377000004      -2.66356132E-10
 -0.370000005      -2.87156771E-10
 -0.363000005      -3.09331033E-10
 -0.356000006      -3.32804367E-10
 -0.349000007      -3.57435054E-10
 -0.342000008      -3.83069243E-10
 -0.335000008      -4.09597772E-10
 -0.328000009      -4.36993469E-10
 -0.321000010      -4.65312899E-10
 -0.314000010      -4.94661978E-10
 -0.307000011      -5.25137878E-10
 -0.300000012      -5.56770685E-10
 -0.293000013      -5.89486793E-10
 -0.286000013      -6.23111229E-10
 -0.279000014      -6.57407906E-10
 -0.272000015      -6.92145008E-10
 -0.264999986      -7.27158278E-10
 -0.257999986      -7.62389318E-10
 -0.250999987      -7.97879984E-10
 -0.244000003      -8.33724700E-10
 -0.237000003      -8.69993022E-10
 -0.230000004      -9.06652142E-10
 -0.223000005      -9.43511047E-10
 -0.216000006      -9.80204473E-10
 -0.209000006      -1.01621855E-09
 -0.202000007      -1.05094355E-09
 -0.194999993      -1.08372933E-09
 -0.187999994      -1.11392351E-09
 -0.180999994      -1.14087162E-09
 -0.173999995      -1.16388532E-09
 -0.166999996      -1.18218124E-09
 -0.159999996      -1.19482302E-09
 -0.152999997      -1.20067545E-09
 -0.145999998      -1.19839105E-09
 -0.138999999      -1.18642152E-09
 -0.131999999      -1.16304433E-09
 -0.125000000      -1.12638776E-09
 -0.118000001      -1.07443088E-09
 -0.111000001      -1.00497932E-09
 -0.104000002      -9.15615472E-10
  -9.70000029E-02  -8.03629052E-10
  -9.00000036E-02  -6.65958733E-10
  -8.29999968E-02  -4.99143449E-10
  -7.59999976E-02  -2.99296116E-10
  -6.89999983E-02  -6.20990273E-11
  -6.19999990E-02   2.17192278E-10
  -5.49999997E-02   5.43753875E-10
  -4.80000004E-02   9.23213506E-10
  -4.10000011E-02   1.36169531E-09
  -3.40000018E-02   1.86588434E-09
  -2.70000007E-02   2.44311193E-09
  -1.99999996E-02   3.10144288E-09
  -1.30000003E-02   3.84976584E-09
  -6.00000005E-03   4.69786832E-09
   1.00000005E-03   5.65650948E-09
   8.00000038E-03   6.73747547E-09
   1.49999997E-02   7.95363864E-09
   2.19999999E-02   9.31901578E-09
   2.89999992E-02   1.08488418E-08
   3.59999985E-02   1.25596333E-08
   4.30000015E-02   1.44692773E-08
   5.00000007E-02   1.65971148E-08
   5.70000000E-02   1.89640179E-08
   6.40000030E-02   2.15924807E-08
   7.10000023E-02   2.45066829E-08
   7.80000016E-02   2.77325753E-08
   8.50000009E-02   3.12979580E-08
   9.20000002E-02   3.52325600E-08
   9.89999995E-02   3.95681283E-08
  0.105999999       4.43385524E-08
  0.112999998       4.95799952E-08
  0.119999997       5.53310713E-08
  0.127000004       6.16329601E-08
  0.134000003       6.85295589E-08
  0.141000003       7.60675718E-08
  0.148000002       8.42966159E-08
  0.155000001       9.32692643E-08
  0.162000000       1.03041117E-07
  0.169000000       1.13670787E-07
  0.175999999       1.25219998E-07
  0.182999998       1.37753588E-07
  0.189999998       1.51339577E-07
  0.196999997       1.66049105E-07
  0.203999996       1.81956494E-07
  0.210999995       1.99139265E-07
  0.217999995       2.17677865E-07
  0.224999994       2.37655883E-07
  0.231999993       2.59159833E-07
  0.238999993       2.82279075E-07
  0.246000007       3.07106063E-07
  0.252999991       3.33736295E-07
  0.259999990       3.62268082E-07
  0.266999990       3.92802491E-07
  0.273999989       4.25443119E-07
  0.280999988       4.60295837E-07
  0.287999988       4.97468648E-07
  0.294999987       5.37070946E-07
  0.301999986       5.79213804E-07
  0.308999985       6.24009544E-07
  0.316000015       6.71571286E-07
  0.323000014       7.22013112E-07
  0.330000013       7.75449507E-07
  0.337000012       8.31994555E-07
  0.344000012       8.91761886E-07
  0.351000011       9.54864163E-07
  0.358000010       1.02141200E-06
  0.365000010       1.09151370E-06
  0.372000009       1.16527531E-06
  0.379000008       1.24279882E-06
  0.386000007       1.32418336E-06
  0.393000007       1.40952409E-06
  0.400000006       1.49891196E-06
  0.407000005       1.59243223E-06
  0.414000005       1.69016448E-06
  0.421000004       1.79218182E-06
  0.428000003       1.89855007E-06
  0.435000002       2.00932800E-06
  0.442000002       2.12456530E-06
  0.449000001       2.24430391E-06
  0.456000000       2.36857750E-06
  0.463000000       2.49740924E-06
  0.469999999       2.63081301E-06
  0.476999998       2.76879200E-06
  0.483999997       2.91133824E-06
  0.490999997       3.05843173E-06
  0.497999996       3.21004018E-06
  0.504999995       3.36611902E-06
  0.512000024       3.52661073E-06
  0.518999994       3.69144732E-06
  0.526000023       3.86054535E-06
  0.532999992       4.03381136E-06
  0.540000021       4.21113918E-06
  0.546999991       4.39240875E-06
  0.554000020       4.57748729E-06
  0.560999990       4.76622745E-06
  0.568000019       4.95846825E-06
  0.574999988       5.15403826E-06
  0.582000017       5.35275285E-06
  0.588999987       5.55441693E-06
  0.596000016       5.75882541E-06
  0.602999985       5.96576228E-06
  0.610000014       6.17500245E-06
  0.616999984       6.38631036E-06
  0.624000013       6.59944089E-06
  0.630999982       6.81413758E-06
  0.638000011       7.03013802E-06
  0.644999981       7.24717393E-06
  0.652000010       7.46496971E-06
  0.658999979       7.68324753E-06
  0.666000009       7.90172635E-06
  0.672999978       8.12012604E-06
  0.680000007       8.33815739E-06
  0.686999977       8.55553390E-06
  0.694000006       8.77196635E-06
  0.700999975       8.98716644E-06
  0.708000004       9.20084767E-06
  0.714999974       9.41272810E-06
  0.722000003       9.62253216E-06
  0.728999972       9.82999063E-06
  0.736000001       1.00348425E-05
  0.742999971       1.02368313E-05
  0.750000000       1.04357077E-05
  0.757000029       1.06312282E-05
  0.763999999       1.08231552E-05
  0.771000028       1.10112678E-05
  0.777999997       1.11953495E-05
  0.785000026       1.13752048E-05
  0.791999996       1.15506464E-05
  0.799000025       1.17215068E-05
  0.805999994       1.18876260E-05
  0.813000023       1.20488621E-05
  0.819999993       1.22050824E-05
  0.827000022       1.23561676E-05
  0.833999991       1.25020088E-05
  0.841000021       1.26425175E-05
  0.847999990       1.27776157E-05
  0.855000019       1.29072432E-05
  0.861999989       1.30313574E-05
  0.869000018       1.31499301E-05
  0.875999987       1.32629448E-05
  0.883000016       1.33704052E-05
  0.889999986       1.34723141E-05
  0.897000015       1.35686914E-05
  0.903999984       1.36595700E-05
  0.911000013       1.37449897E-05
  0.917999983       1.38250061E-05
  0.925000012       1.38996847E-05
  0.931999981       1.39691074E-05
  0.939000010       1.40333632E-05
  0.945999980       1.40925513E-05
  0.953000009       1.41467763E-05
  0.959999979       1.41961455E-05
  0.967000008       1.42407735E-05
  0.973999977       1.42807785E-05
  0.981000006       1.43162852E-05
  0.987999976       1.43474253E-05
  0.995000005       1.43743346E-05
   1.00199997       1.43971520E-05
   1.00899994       1.44160140E-05
   1.01600003       1.44310634E-05
   1.02300000       1.44424430E-05
   1.02999997       1.44502892E-05
   1.03699994       1.44547384E-05
   1.04400003       1.44559299E-05
   1.05100000       1.44539963E-05
   1.05799997       1.44490741E-05
   1.06500006       1.44412988E-05
   1.07200003       1.44308042E-05
   1.07900000       1.44177156E-05
   1.08599997       1.44021587E-05
   1.09300005       1.43842544E-05
   1.10000002       1.43641209E-05
   1.10699999       1.43418711E-05
   1.11399996       1.43176121E-05
   1.12100005       1.42914514E-05
   1.12800002       1.42634908E-05
   1.13499999       1.42338304E-05
   1.14199996       1.42025683E-05
   1.14900005       1.41697956E-05
   1.15600002       1.41355968E-05
   1.16299999       1.41000555E-05
   1.16999996       1.40632474E-05
   1.17700005       1.40252523E-05
   1.18400002       1.39861449E-05
   1.19099998       1.39460017E-05
   1.19799995       1.39048934E-05
   1.20500004       1.38628948E-05
   1.21200001       1.38200730E-05
   1.21899998       1.37764973E-05
   1.22599995       1.37322295E-05
   1.23300004       1.36873277E-05
   1.24000001       1.36418512E-05
   1.24699998       1.35958553E-05
   1.25399995       1.35494074E-05
   1.26100004       1.35025739E-05
   1.26800001       1.34554230E-05
   1.27499998       1.34080237E-05
   1.28199995       1.33604417E-05
   1.28900003       1.33127378E-05
   1.29600000       1.32649720E-05
   1.30299997       1.32172054E-05
   1.30999994       1.31695006E-05
   1.31700003       1.31219158E-05
   1.32400000       1.30745184E-05
   1.33099997       1.30273756E-05
   1.33800006       1.29805640E-05
   1.34500003       1.29341561E-05
   1.35200000       1.28882220E-05
   1.35899997       1.28428273E-05
   1.36600006       1.27980347E-05
   1.37300003       1.27538979E-05
   1.38000000       1.27104749E-05
   1.38699996       1.26678251E-05
   1.39400005       1.26260138E-05
   1.40100002       1.25851011E-05
   1.40799999       1.25451570E-05
   1.41499996       1.25062425E-05
   1.42200005       1.24684166E-05
   1.42900002       1.24317248E-05
   1.43599999       1.23962063E-05
   1.44299996       1.23618847E-05
   1.45000005       1.23287837E-05
   1.45700002       1.22969241E-05
   1.46399999       1.22663359E-05
   1.47099996       1.22370484E-05
   1.47800004       1.22090878E-05
   1.48500001       1.21824769E-05
   1.49199998       1.21572257E-05
   1.49899995       1.21333323E-05
   1.50600004       1.21107823E-05
   1.51300001       1.20895502E-05
   1.51999998       1.20696013E-05
   1.52699995       1.20509003E-05
   1.53400004       1.20334098E-05
   1.54100001       1.20170980E-05
   1.54799998       1.20019331E-05
   1.55499995       1.19878741E-05
   1.56200004       1.19748729E-05
   1.56900001       1.19628612E-05
   1.57599998       1.19517590E-05
   1.58299994       1.19414844E-05
   1.59000003       1.19319466E-05
   1.59700000       1.19230581E-05
   1.60399997       1.19147326E-05
   1.61099994       1.19068891E-05
   1.61800003       1.18994494E-05
   1.62500000       1.18923344E-05
   1.63199997       1.18854568E-05
   1.63900006       1.18787229E-05
   1.64600003       1.18720200E-05
   1.65300000       1.18652333E-05
   1.65999997       1.18582548E-05
   1.66700006       1.18509779E-05
   1.67400002       1.18433081E-05
   1.68099999       1.18351600E-05
   1.68799996       1.18264479E-05
   1.69500005       1.18170910E-05
   1.70200002       1.18070056E-05
   1.70899999       1.17961108E-05
   1.71599996       1.17843201E-05
   1.72300005       1.17715554E-05
   1.73000002       1.17577392E-05
   1.73699999       1.17428117E-05
   1.74399996       1.17267173E-05
   1.75100005       1.17094150E-05
   1.75800002       1.16908732E-05
   1.76499999       1.16710562E-05
   1.77199996       1.16499286E-05
   1.77900004       1.16274587E-05
   1.78600001       1.16036126E-05
   1.79299998       1.15783732E-05
   1.79999995       1.15517278E-05
   1.80700004       1.15236726E-05
   1.81400001       1.14942168E-05
   1.82099998       1.14633785E-05
   1.82799995       1.14311806E-05
   1.83500004       1.13976512E-05
   1.84200001       1.13628203E-05
   1.84899998       1.13267224E-05
   1.85599995       1.12893931E-05
   1.86300004       1.12508760E-05
   1.87000000       1.12112220E-05
   1.87699997       1.11704921E-05
   1.88399994       1.11287427E-05
   1.89100003       1.10860374E-05
   1.89800000       1.10424362E-05
   1.90499997       1.09979992E-05
   1.91199994       1.09527873E-05
   1.91900003       1.09068660E-05
   1.92600000       1.08602990E-05
   1.93299997       1.08131580E-05
   1.94000006       1.07655205E-05
   1.94700003       1.07174610E-05
   1.95400000       1.06690604E-05
   1.96099997       1.06203870E-05
   1.96800005       1.05715071E-05
   1.97500002       1.05224781E-05
   1.98199999       1.04733508E-05
   1.98899996       1.04241844E-05
   1.99600005       1.03750426E-05
   2.00300002       1.03259908E-05
   2.00999999       1.02771000E-05
   2.01699996       1.02284366E-05
   2.02399993       1.01800597E-05
   2.03099990       1.01320202E-05
   2.03800011       1.00843545E-05
   2.04500008       1.00370953E-05
   2.05200005       9.99026906E-06
   2.05900002       9.94390030E-06
   2.06599998       9.89802083E-06
   2.07299995       9.85266888E-06
   2.07999992       9.80788536E-06
   2.08699989       9.76370575E-06
   2.09400010       9.72016096E-06
   2.10100007       9.67726737E-06
   2.10800004       9.63502953E-06
   2.11500001       9.59344379E-06
   2.12199998       9.55250653E-06
   2.12899995       9.51222046E-06
   2.13599992       9.47258741E-06
   2.14299989       9.43361920E-06
   2.15000010       9.39533220E-06
   2.15700006       9.35774460E-06
   2.16400003       9.32086641E-06
   2.17100000       9.28469581E-06
   2.17799997       9.24921915E-06
   2.18499994       9.21441369E-06
   2.19199991       9.18025671E-06
   2.19899988       9.14673092E-06
   2.20600009       9.11382176E-06
   2.21300006       9.08152924E-06
   2.22000003       9.04985609E-06
   2.22700000       9.01881322E-06
   2.23399997       8.98840335E-06
   2.24099994       8.95862468E-06
   2.24799991       8.92946537E-06
   2.25500011       8.90089996E-06
   2.26200008       8.87290753E-06
   2.26900005       8.84546989E-06
   2.27600002       8.81857432E-06
   2.28299999       8.79222443E-06
   2.28999996       8.76643480E-06
   2.29699993       8.74122270E-06
   2.30399990       8.71660541E-06
   2.31100011       8.69259384E-06
   2.31800008       8.66918890E-06
   2.32500005       8.64638150E-06
   2.33200002       8.62415982E-06
   2.33899999       8.60251566E-06
   2.34599996       8.58144995E-06
   2.35299993       8.56097813E-06
   2.35999990       8.54112750E-06
   2.36700010       8.52193443E-06
   2.37400007       8.50343349E-06
   2.38100004       8.48565378E-06
   2.38800001       8.46861440E-06
   2.39499998       8.45232444E-06
   2.40199995       8.43679209E-06
   2.40899992       8.42203099E-06
   2.41599989       8.40805387E-06
   2.42300010       8.39489530E-06
   2.43000007       8.38259530E-06
   2.43700004       8.37119842E-06
   2.44400001       8.36075196E-06
   2.45099998       8.35129867E-06
   2.45799994       8.34287039E-06
   2.46499991       8.33548802E-06
   2.47199988       8.32916612E-06
   2.47900009       8.32392470E-06
   2.48600006       8.31978923E-06
   2.49300003       8.31678972E-06
   2.50000000       8.31496527E-06
   2.50699997       8.31435682E-06
   2.51399994       8.31500256E-06
   2.52099991       8.31693251E-06
   2.52800012       8.32016212E-06
   2.53500009       8.32469868E-06
   2.54200006       8.33054219E-06
   2.54900002       8.33769172E-06
   2.55599999       8.34614457E-06
   2.56299996       8.35590981E-06
   2.56999993       8.36699382E-06
   2.57699990       8.37940388E-06
   2.58400011       8.39313634E-06
   2.59100008       8.40818393E-06
   2.59800005       8.42452573E-06
   2.60500002       8.44212536E-06
   2.61199999       8.46093735E-06
   2.61899996       8.48091531E-06
   2.62599993       8.50201104E-06
   2.63299990       8.52417725E-06
   2.64000010       8.54736209E-06
   2.64700007       8.57151372E-06
   2.65400004       8.59657302E-06
   2.66100001       8.62246452E-06
   2.66799998       8.64910089E-06
   2.67499995       8.67638755E-06
   2.68199992       8.70421991E-06
   2.68899989       8.73249337E-06
   2.69600010       8.76109971E-06
   2.70300007       8.78993433E-06
   2.71000004       8.81889446E-06
   2.71700001       8.84787096E-06
   2.72399998       8.87675287E-06
   2.73099995       8.90541742E-06
   2.73799992       8.93373362E-06
   2.74499989       8.96156325E-06
   2.75200009       8.98876169E-06
   2.75900006       9.01519434E-06
   2.76600003       9.04072385E-06
   2.77300000       9.06522928E-06
   2.77999997       9.08859056E-06
   2.78699994       9.11068673E-06
   2.79399991       9.13139684E-06
   2.80100012       9.15059445E-06
   2.80800009       9.16815225E-06
   2.81500006       9.18394380E-06
   2.82200003       9.19784725E-06
   2.82900000       9.20974526E-06
   2.83599997       9.21953051E-06
   2.84299994       9.22711479E-06
   2.84999990       9.23241714E-06
   2.85700011       9.23536481E-06
   2.86400008       9.23589141E-06
   2.87100005       9.23393418E-06
   2.87800002       9.22943400E-06
   2.88499999       9.22234085E-06
   2.89199996       9.21262199E-06
   2.89899993       9.20025195E-06
   2.90599990       9.18522164E-06
   2.91300011       9.16753561E-06
   2.92000008       9.14720931E-06
   2.92700005       9.12426822E-06
   2.93400002       9.09874780E-06
   2.94099998       9.07069079E-06
   2.94799995       9.04014450E-06
   2.95499992       9.00716805E-06
   2.96199989       8.97182872E-06
   2.96900010       8.93421111E-06
   2.97600007       8.89441071E-06
   2.98300004       8.85253939E-06
   2.99000001       8.80871630E-06
   2.99699998       8.76306603E-06
   3.00399995       8.71572138E-06
   3.01099992       8.66682421E-06
   3.01799989       8.61652006E-06
   3.02500010       8.56496354E-06
   3.03200006       8.51231107E-06
   3.03900003       8.45872819E-06
   3.04600000       8.40438497E-06
   3.05299997       8.34946059E-06
   3.05999994       8.29413239E-06
   3.06699991       8.23858045E-06
   3.07399988       8.18298031E-06
   3.08100009       8.12751114E-06
   3.08800006       8.07234846E-06
   3.09500003       8.01766964E-06
   3.10200000       7.96365111E-06
   3.10899997       7.91046568E-06
   3.11599994       7.85827979E-06
   3.12299991       7.80725622E-06
   3.13000011       7.75755234E-06
   3.13700008       7.70932365E-06
   3.14400005       7.66271751E-06
   3.15100002       7.61787760E-06
   3.15799999       7.57494081E-06
   3.16499996       7.53403310E-06
   3.17199993       7.49527771E-06
   3.17899990       7.45878833E-06
   3.18600011       7.42466727E-06
   3.19300008       7.39300367E-06
   3.20000005       7.36387028E-06
   3.20700002       7.33733077E-06
   3.21399999       7.31343789E-06
   3.22099996       7.29223939E-06
   3.22799993       7.27377437E-06
   3.23499990       7.25807467E-06
   3.24200010       7.24516076E-06
   3.24900007       7.23504445E-06
   3.25600004       7.22772984E-06
   3.26300001       7.22320965E-06
   3.26999998       7.22146251E-06
   3.27699995       7.22245250E-06
   3.28399992       7.22613368E-06
   3.29099989       7.23244739E-06
   3.29800010       7.24133088E-06
   3.30500007       7.25271548E-06
   3.31200004       7.26652434E-06
   3.31900001       7.28267696E-06
   3.32599998       7.30108650E-06
   3.33299994       7.32166200E-06
   3.33999991       7.34430569E-06
   3.34699988       7.36891616E-06
   3.35400009       7.39538382E-06
   3.36100006       7.42359134E-06
   3.36800003       7.45341413E-06
   3.37500000       7.48472803E-06
   3.38199997       7.51740799E-06
   3.38899994       7.55132987E-06
   3.39599991       7.58637270E-06
   3.40300012       7.62241280E-06
   3.41000009       7.65932782E-06
   3.41700006       7.69699909E-06
   3.42400002       7.73529973E-06
   3.43099999       7.77410969E-06
   3.43799996       7.81330255E-06
   3.44499993       7.85275552E-06
   3.45199990       7.89234855E-06
   3.45900011       7.93197432E-06
   3.46600008       7.97153007E-06
   3.47300005       8.01092665E-06
   3.48000002       8.05007949E-06
   3.48699999       8.08890400E-06
   3.49399996       8.12732287E-06
   3.50099993       8.16525335E-06
   3.50799990       8.20262176E-06
   3.51500010       8.23935625E-06
   3.52200007       8.27539134E-06
   3.52900004       8.31067155E-06
   3.53600001       8.34515231E-06
   3.54299998       8.37880634E-06
   3.54999995       8.41161454E-06
   3.55699992       8.44356600E-06
   3.56399989       8.47464889E-06
   3.57100010       8.50485139E-06
   3.57800007       8.53415986E-06
   3.58500004       8.56257338E-06
   3.59200001       8.59009015E-06
   3.59899998       8.61672288E-06
   3.60599995       8.64249432E-06
   3.61299992       8.66743812E-06
   3.61999989       8.69159339E-06
   3.62700009       8.71501015E-06
   3.63400006       8.73773570E-06
   3.64100003       8.75982005E-06
   3.64800000       8.78130413E-06
   3.65499997       8.80222251E-06
   3.66199994       8.82261429E-06
   3.66899991       8.84252222E-06
   3.67600012       8.86199359E-06
   3.68300009       8.88108661E-06
   3.69000006       8.89985586E-06
   3.69700003       8.91836862E-06
   3.70400000       8.93668221E-06
   3.71099997       8.95485300E-06
   3.71799994       8.97293285E-06
   3.72499990       8.99095085E-06
   3.73200011       9.00893883E-06
   3.73900008       9.02691500E-06
   3.74600005       9.04489752E-06
   3.75300002       9.06290825E-06
   3.75999999       9.08097354E-06
   3.76699996       9.09910977E-06
   3.77399993       9.11733241E-06
   3.78099990       9.13564145E-06
   3.78800011       9.15403234E-06
   3.79500008       9.17248508E-06
   3.80200005       9.19096783E-06
   3.80900002       9.20943785E-06
   3.81599998       9.22784056E-06
   3.82299995       9.24612141E-06
   3.82999992       9.26422308E-06
   3.83699989       9.28209374E-06
   3.84400010       9.29967246E-06
   3.85100007       9.31689465E-06
   3.85800004       9.33368301E-06
   3.86500001       9.34994659E-06
   3.87199998       9.36558718E-06
   3.87899995       9.38048834E-06
   3.88599992       9.39453003E-06
   3.89299989       9.40758855E-06
   3.90000010       9.41953476E-06
   3.90700006       9.43024679E-06
   3.91400003       9.43961004E-06
   3.92100000       9.44750627E-06
   3.92799997       9.45381998E-06
   3.93499994       9.45842476E-06
   3.94199991       9.46118325E-06
   3.94899988       9.46195087E-06
   3.95600009       9.46057844E-06
   3.96300006       9.45692227E-06
   3.97000003       9.45084594E-06
   3.97700000       9.44222120E-06
   3.98399997       9.43093619E-06
   3.99099994       9.41688631E-06
   3.99799991       9.39998063E-06
   4.00500011       9.38013000E-06
   4.01200008       9.35724438E-06
   4.01900005       9.33123010E-06
   4.02600002       9.30198712E-06
   4.03299999       9.26942903E-06
   4.03999996       9.23347670E-06
   4.04699993       9.19407375E-06
   4.05399990       9.15118289E-06
   4.06099987       9.10478047E-06
   4.06799984       9.05486013E-06
   4.07499981       9.00142368E-06
   4.08199978       8.94448203E-06
   4.08900023       8.88404702E-06
   4.09600019       8.82013046E-06
   4.10300016       8.75275055E-06
   4.11000013       8.68193274E-06
   4.11700010       8.60772980E-06
   4.12400007       8.53021538E-06
   4.13100004       8.44948681E-06
   4.13800001       8.36565960E-06
   4.14499998       8.27885924E-06
   4.15199995       8.18921671E-06
   4.15899992       8.09686571E-06
   4.16599989       8.00193811E-06
   4.17299986       7.90456852E-06
   4.17999983       7.80489972E-06
   4.18699980       7.70308634E-06
   4.19399977       7.59930208E-06
   4.20100021       7.49373839E-06
   4.20800018       7.38660674E-06
   4.21500015       7.27813131E-06
   4.22200012       7.16853401E-06
   4.22900009       7.05803222E-06
   4.23600006       6.94683740E-06
   4.24300003       6.83515555E-06
   4.25000000       6.72319493E-06
   4.25699997       6.61117156E-06
   4.26399994       6.49930644E-06
   4.27099991       6.38783331E-06
   4.27799988       6.27699819E-06
   4.28499985       6.16705165E-06
   4.29199982       6.05824380E-06
   4.29899979       5.95081565E-06
   4.30600023       5.84499412E-06
   4.31300020       5.74099067E-06
   4.32000017       5.63900903E-06
   4.32700014       5.53924792E-06
   4.33400011       5.44191516E-06
   4.34100008       5.34722130E-06
   4.34800005       5.25538053E-06
   4.35500002       5.16660566E-06
   4.36199999       5.08110134E-06
   4.36899996       4.99905764E-06
   4.37599993       4.92064964E-06
   4.38299990       4.84602833E-06
   4.38999987       4.77532922E-06
   4.39699984       4.70867508E-06
   4.40399981       4.64618643E-06
   4.41099977       4.58798741E-06
   4.41800022       4.53420262E-06
   4.42500019       4.48495393E-06
   4.43200016       4.44034958E-06
   4.43900013       4.40047734E-06
   4.44600010       4.36540404E-06
   4.45300007       4.33517107E-06
   4.46000004       4.30980026E-06
   4.46700001       4.28929889E-06
   4.47399998       4.27366786E-06
   4.48099995       4.26290444E-06
   4.48799992       4.25700864E-06
   4.49499989       4.25597636E-06
   4.50199986       4.25979351E-06
   4.50899982       4.26843008E-06
   4.51599979       4.28182784E-06
   4.52299976       4.29990450E-06
   4.53000021       4.32256138E-06
   4.53700018       4.34968206E-06
   4.54400015       4.38114694E-06
   4.55100012       4.41683324E-06
   4.55800009       4.45661681E-06
   4.56500006       4.50037214E-06
   4.57200003       4.54796873E-06
   4.57900000       4.59926105E-06
   4.58599997       4.65409084E-06
   4.59299994       4.71227577E-06
   4.59999990       4.77361800E-06
   4.60699987       4.83791200E-06
   4.61399984       4.90494813E-06
   4.62099981       4.97451856E-06
   4.62799978       5.04642003E-06
   4.63500023       5.12044926E-06
   4.64200020       5.19640253E-06
   4.64900017       5.27406883E-06
   4.65600014       5.35323352E-06
   4.66300011       5.43367287E-06
   4.67000008       5.51515859E-06
   4.67700005       5.59746013E-06
   4.68400002       5.68035011E-06
   4.69099998       5.76360662E-06
   4.69799995       5.84701684E-06
   4.70499992       5.93037339E-06
   4.71199989       6.01347710E-06
   4.71899986       6.09612880E-06
   4.72599983       6.17813021E-06
   4.73299980       6.25928715E-06
   4.73999977       6.33940635E-06
   4.74700022       6.41830366E-06
   4.75400019       6.49580261E-06
   4.76100016       6.57173996E-06
   4.76800013       6.64596428E-06
   4.77500010       6.71833959E-06
   4.78200006       6.78873812E-06
   4.78900003       6.85704754E-06
   4.79600000       6.92316235E-06
   4.80299997       6.98698796E-06
   4.80999994       7.04843751E-06
   4.81699991       7.10743643E-06
   4.82399988       7.16392015E-06
   4.83099985       7.21783408E-06
   4.83799982       7.26913731E-06
   4.84499979       7.31779528E-06
   4.85200024       7.36378934E-06
   4.85900021       7.40710993E-06
   4.86600018       7.44776207E-06
   4.87300014       7.48576531E-06
   4.88000011       7.52115284E-06
   4.88700008       7.55396968E-06
   4.89400005       7.58427223E-06
   4.90100002       7.61212505E-06
   4.90799999       7.63759544E-06
   4.91499996       7.66075937E-06
   4.92199993       7.68169139E-06
   4.92899990       7.70047791E-06
   4.93599987       7.71720624E-06
   4.94299984       7.73197826E-06
   4.94999981       7.74490218E-06
   4.95699978       7.75609442E-06
   4.96400023       7.76568413E-06
   4.97100019       7.77379046E-06
   4.97800016       7.78053800E-06
   4.98500013       7.78604408E-06
   4.99200010       7.79042148E-06