  -1.00000000       0.00000000    
 -0.992999971      -1.81783810E-32
 -0.986000001      -1.24230418E-29
 -0.978999972      -3.80223204E-28
 -0.972000003      -3.93954632E-27
 -0.964999974      -1.89956211E-26
 -0.958000004      -2.94465660E-26
 -0.950999975       2.03218741E-25
 -0.944000006       1.77605012E-24
 -0.936999977       7.93169032E-24
 -0.930000007       2.56095804E-23
 -0.922999978       6.56530751E-23
 -0.916000009       1.38938726E-22
 -0.908999979       2.46249482E-22
 -0.902000010       3.63492969E-22
 -0.894999981       4.30624300E-22
 -0.888000011       3.58829248E-22
 -0.880999982       6.96443073E-23
 -0.874000013      -4.34590314E-22
 -0.866999984      -9.97703411E-22
 -0.860000014      -1.29428320E-21
 -0.852999985      -9.44666816E-22
 -0.846000016       1.98320641E-22
 -0.838999987       1.63586003E-21
 -0.832000017       1.84698283E-21
 -0.824999988      -1.79528950E-21
 -0.818000019      -1.25784832E-20
 -0.810999990      -3.34183100E-20
 -0.804000020      -6.54936406E-20
 -0.796999991      -1.07109795E-19
 -0.790000021      -1.53445752E-19
 -0.782999992      -1.97553517E-19
 -0.776000023      -2.32314063E-19
 -0.768999994      -2.52283159E-19
 -0.762000024      -2.53965567E-19
 -0.754999995      -2.33512906E-19
 -0.748000026      -1.82299699E-19
 -0.740999997      -8.28282831E-20
 -0.734000027       9.11352508E-20
 -0.726999998       3.66702788E-19
 -0.720000029       7.55887518E-19
 -0.713000000       1.23642098E-18
 -0.705999970       1.73965161E-18
 -0.699000001       2.15789564E-18
 -0.691999972       2.37926406E-18
 -0.685000002       2.34627961E-18
 -0.677999973       2.11840603E-18
 -0.671000004       1.90481580E-18
 -0.663999975       2.03121086E-18
 -0.657000005       2.82013974E-18
 -0.649999976       4.39838443E-18
 -0.643000007       6.48853790E-18
 -0.635999978       8.27724318E-18
 -0.629000008       8.45903267E-18
 -0.621999979       5.51794320E-18
 -0.615000010      -1.77001824E-18
 -0.607999980      -1.37309525E-17
 -0.601000011      -2.92850425E-17
 -0.593999982      -4.57636350E-17
 -0.587000012      -5.92181909E-17
 -0.579999983      -6.52441818E-17
 -0.573000014      -6.01553138E-17
 -0.565999985      -4.21807320E-17
 -0.559000015      -1.22907492E-17
 -0.551999986       2.56675401E-17
 -0.545000017       6.56353522E-17
 -0.537999988       1.00643674E-16
 -0.531000018       1.24353450E-16
 -0.523999989       1.32349983E-16
 -0.517000020       1.22817991E-16
 -0.509999990       9.65029335E-17
 -0.503000021       5.61904386E-17
 -0.495999992       6.15245938E-18
 -0.488999993      -4.80185559E-17
 -0.481999993      -9.90656780E-17
 -0.474999994      -1.37557290E-16
 -0.467999995      -1.51959709E-16
 -0.460999995      -1.30135799E-16
 -0.453999996      -6.27276403E-17
 -0.446999997       5.19458274E-17
 -0.439999998       2.02853353E-16
 -0.432999998       3.63211142E-16
 -0.425999999       4.91634651E-16
 -0.419000000       5.38805758E-16
 -0.412000000       4.59268517E-16
 -0.405000001       2.25913507E-16
 -0.398000002      -1.56938000E-16
 -0.391000003      -6.46441993E-16
 -0.384000003      -1.16364211E-15
 -0.377000004      -1.60636484E-15
 -0.370000005      -1.87030550E-15
 -0.363000005      -1.87310812E-15
 -0.356000006      -1.57482187E-15
 -0.349000007      -9.88842780E-16
 -0.342000008      -1.80235390E-16
 -0.335000008       7.47715793E-16
 -0.328000009       1.67419376E-15
 -0.321000010       2.48222772E-15
 -0.314000010       3.07471075E-15
 -0.307000011       3.38184151E-15
 -0.300000012       3.36081095E-15
 -0.293000013       2.99206215E-15
 -0.286000013       2.27776816E-15
 -0.279000014       1.24653191E-15
 -0.272000015      -3.58137177E-17
 -0.264999986      -1.45435737E-15
 -0.257999986      -2.84069080E-15
 -0.250999987      -3.98434812E-15
 -0.244000003      -4.66430085E-15
 -0.237000003      -4.69729490E-15
 -0.230000004      -3.99180455E-15
 -0.223000005      -2.59103842E-15
 -0.216000006      -6.88423963E-16
 -0.209000006       1.39473589E-15
 -0.202000007       3.26866753E-15
 -0.194999993       4.55847467E-15
 -0.187999994       4.98913587E-15
 -0.180999994       4.44761034E-15
 -0.173999995       3.00361716E-15
 -0.166999996       8.83605236E-16
 -0.159999996      -1.59216963E-15
 -0.152999997      -4.08722027E-15
 -0.145999998      -6.31437566E-15
 -0.138999999      -8.06824717E-15
 -0.131999999      -9.21749724E-15
 -0.125000000      -9.66708623E-15
 -0.118000001      -9.31453502E-15
 -0.111000001      -8.02868903E-15
 -0.104000002      -5.67187195E-15
  -9.70000029E-02  -2.16839524E-15
  -9.00000036E-02   2.39959225E-15
  -8.29999968E-02   7.70562474E-15
  -7.59999976E-02   1.31441023E-14
  -6.89999983E-02   1.78791376E-14
  -6.19999990E-02   2.09843705E-14
  -5.49999997E-02   2.16496404E-14
  -4.80000004E-02   1.94025788E-14
  -4.10000011E-02   1.42798777E-14
  -3.40000018E-02   6.89005271E-15
  -2.70000007E-02  -1.66293574E-15
  -1.99999996E-02  -9.98609493E-15
  -1.30000003E-02  -1.66848381E-14
  -6.00000005E-03  -2.06564231E-14
   1.00000005E-03  -2.13113642E-14
   8.00000038E-03  -1.86668884E-14
   1.49999997E-02  -1.32967003E-14
   2.19999999E-02  -6.16603013E-15
   2.89999992E-02   1.58569555E-15
   3.59999985E-02   8.84242003E-15
   4.30000015E-02   1.46344678E-14
   5.00000007E-02   1.81706253E-14
   5.70000000E-02   1.88069199E-14
   6.40000030E-02   1.60116993E-14
   7.10000023E-02   9.39141004E-15
   7.80000016E-02  -1.18517538E-15
   8.50000009E-02  -1.53770734E-14
   9.20000002E-02  -3.21443549E-14
   9.89999995E-02  -4.96111161E-14
  0.105999999      -6.51250429E-14
  0.112999998      -7.55767248E-14
  0.119999997      -7.79620983E-14
  0.127000004      -7.00809921E-14
  0.134000003      -5.11945189E-14
  0.141000003      -2.24434322E-14
  0.148000002       1.31280222E-14
  0.155000001       5.09986848E-14
  0.162000000       8.59755179E-14
  0.169000000       1.13188200E-13
  0.175999999       1.29019679E-13
  0.182999998       1.31731025E-13
  0.189999998       1.21627684E-13
  0.196999997       1.00753444E-13
  0.203999996       7.22426676E-14
  0.210999995       3.95584580E-14
  0.217999995       5.86327937E-15
  0.224999994      -2.63026464E-14
  0.231999993      -5.49941731E-14
  0.238999993      -7.85921689E-14
  0.246000007      -9.55044353E-14
  0.252999991      -1.04065275E-13
  0.259999990      -1.02779242E-13
  0.266999990      -9.08966031E-14
  0.273999989      -6.91338805E-14
  0.280999988      -4.02311173E-14
  0.287999988      -9.02631004E-15
  0.294999987       1.81542979E-14
  0.301999986       3.47709024E-14
  0.308999985       3.57381734E-14
  0.316000015       1.90213463E-14
  0.323000014      -1.33611155E-14
  0.330000013      -5.53307061E-14
  0.337000012      -9.78675759E-14
  0.344000012      -1.31038233E-13
  0.351000011      -1.46407978E-13
  0.358000010      -1.39154977E-13
  0.365000010      -1.09257879E-13
  0.372000009      -6.13943846E-14
  0.379000008      -3.58554468E-15
  0.386000007       5.49805833E-14
  0.393000007       1.06248235E-13
  0.400000006       1.44989001E-13
  0.407000005       1.69389107E-13
  0.414000005       1.80429131E-13
  0.421000004       1.80403761E-13
  0.428000003       1.71250587E-13
  0.435000002       1.53431535E-13
  0.442000002       1.25890509E-13
  0.449000001       8.71712506E-14
  0.456000000       3.72685078E-14
  0.463000000      -2.05915522E-14
  0.469999999      -7.91356997E-14
  0.476999998      -1.27817814E-13
  0.483999997      -1.55252073E-13
  0.490999997      -1.52712885E-13
  0.497999996      -1.17587120E-13
  0.504999995      -5.54979138E-14
  0.512000024       1.98880575E-14
  0.518999994       8.96623745E-14
  0.526000023       1.34493965E-13
  0.532999992       1.40103884E-13
  0.540000021       1.01671059E-13
  0.546999991       2.56551440E-14
  0.554000020      -7.17180831E-14
  0.560999990      -1.68983073E-13
  0.568000019      -2.45611013E-13
  0.574999988      -2.87852966E-13
  0.582000017      -2.92312398E-13
  0.588999987      -2.66044484E-13
  0.596000016      -2.23175292E-13
  0.602999985      -1.79281394E-13
  0.610000014      -1.45610127E-13
  0.616999984      -1.25322929E-13
  0.624000013      -1.13227576E-13
  0.630999982      -9.91553709E-14
  0.638000011      -7.36981006E-14
  0.644999981      -3.39902057E-14
  0.652000010       1.29693018E-14
  0.658999979       5.11804954E-14
  0.666000009       6.08846402E-14
  0.672999978       2.66277631E-14
  0.680000007      -5.47279744E-14
  0.686999977      -1.69256373E-13
  0.694000006      -2.86834928E-13
  0.700999975      -3.68142122E-13
  0.708000004      -3.76081490E-13
  0.714999974      -2.88129465E-13
  0.722000003      -1.05420670E-13
  0.728999972       1.44839124E-13
  0.736000001       4.14982122E-13
  0.742999971       6.49164858E-13
  0.750000000       7.98601148E-13
  0.757000029       8.34813609E-13
  0.763999999       7.56467968E-13
  0.771000028       5.87454076E-13
  0.777999997       3.66896129E-13
  0.785000026       1.34664103E-13
  0.791999996      -8.23589040E-14
  0.799000025      -2.78188822E-13
  0.805999994      -4.66849920E-13
  0.813000023      -6.72982774E-13
  0.819999993      -9.17559106E-13
  0.827000022      -1.20439249E-12
  0.833999991      -1.51312838E-12
  0.841000021      -1.80219511E-12
  0.847999990      -2.02149950E-12
  0.855000019      -2.13077689E-12
  0.861999989      -2.11692491E-12
  0.869000018      -2.00341870E-12
  0.875999987      -1.84731982E-12
  0.883000016      -1.72365919E-12
  0.889999986      -1.70170226E-12
  0.897000015      -1.82097479E-12
  0.903999984      -2.07564825E-12
  0.911000013      -2.41347263E-12
  0.917999983      -2.75060313E-12
  0.925000012      -2.99804495E-12
  0.931999981      -3.09100879E-12
  0.939000010      -3.01096669E-12
  0.945999980      -2.79234296E-12
  0.953000009      -2.51088126E-12
  0.959999979      -2.25719096E-12
  0.967000008      -2.10440584E-12
  0.973999977      -2.08127677E-12
  0.981000006      -2.16037800E-12
  0.987999976      -2.26584832E-12
  0.995000005      -2.29802744E-12
   1.00199997      -2.16591437E-12
   1.00899994      -1.81531320E-12
   1.01600003      -1.24159710E-12
   1.02300000      -4.81674433E-13
   1.02999997       4.12690281E-13
   1.03699994       1.41063702E-12
   1.04400003       2.53351983E-12
   1.05100000       3.86909211E-12
   1.05799997       5.56169260E-12
   1.06500006       7.78031459E-12
   1.07200003       1.06747979E-11
   1.07900000       1.43360159E-11
   1.08599997       1.87750943E-11
   1.09300005       2.39312355E-11
   1.10000002       2.97076704E-11
   1.10699999       3.60254500E-11
   1.11399996       4.28776181E-11
   1.12100005       5.03658469E-11
   1.12800002       5.87067409E-11
   1.13499999       6.82060797E-11
   1.14199996       7.92099997E-11
   1.14900005       9.20513457E-11
   1.15600002       1.07010824E-10
   1.16299999       1.24308203E-10
   1.16999996       1.44127987E-10
   1.17700005       1.66671135E-10
   1.18400002       1.92214633E-10
   1.19099998       2.21157898E-10
   1.19799995       2.54038457E-10
   1.20500004       2.91511815E-10
   1.21200001       3.34302169E-10
   1.21899998       3.83144738E-10
   1.22599995       4.38741321E-10
   1.23300004       5.01751474E-10
   1.24000001       5.72825065E-10
   1.24699998       6.52670751E-10
   1.25399995       7.42138739E-10
   1.26100004       8.42292125E-10
   1.26800001       9.54443191E-10
   1.27499998       1.08014508E-09
   1.28199995       1.22114130E-09
   1.28900003       1.37929634E-09
   1.29600000       1.55653390E-09
   1.30299997       1.75481185E-09
   1.30999994       1.97614525E-09
   1.31700003       2.22267982E-09
   1.32400000       2.49678855E-09
   1.33099997       2.80116952E-09
   1.33800006       3.13890669E-09
   1.34500003       3.51348306E-09
   1.35200000       3.92874266E-09
   1.35899997       4.38881553E-09
   1.36600006       4.89804997E-09
   1.37300003       5.46096945E-09
   1.38000000       6.08228579E-09
   1.38699996       6.76697320E-09
   1.39400005       7.52036744E-09
   1.40100002       8.34828207E-09
   1.40799999       9.25708932E-09
   1.41499996       1.02537614E-08
   1.42200005       1.13458309E-08
   1.42900002       1.25413235E-08
   1.43599999       1.38486751E-08
   1.44299996       1.52766759E-08
   1.45000005       1.68344680E-08
   1.45700002       1.85316029E-08
   1.46399999       2.03781614E-08
   1.47099996       2.23848655E-08
   1.47800004       2.45631746E-08
   1.48500001       2.69253277E-08
   1.49199998       2.94843119E-08
   1.49899995       3.22537659E-08
   1.50600004       3.52478757E-08
   1.51300001       3.84812360E-08
   1.51999998       4.19688533E-08
   1.52699995       4.57261002E-08
   1.53400004       4.97688468E-08
   1.54100001       5.41135492E-08
   1.54799998       5.87773492E-08
   1.55499995       6.37781170E-08
   1.56200004       6.91343871E-08
   1.56900001       7.48652909E-08
   1.57599998       8.09903540E-08
   1.58299994       8.75293367E-08
   1.59000003       9.45021554E-08
   1.59700000       1.01928769E-07
   1.60399997       1.09829237E-07
   1.61099994       1.18223760E-07
   1.61800003       1.27132807E-07
   1.62500000       1.36577086E-07
   1.63199997       1.46577491E-07
   1.63900006       1.57154915E-07
   1.64600003       1.68330018E-07
   1.65300000       1.80123124E-07
   1.65999997       1.92553912E-07
   1.66700006       2.05641371E-07
   1.67400002       2.19403773E-07
   1.68099999       2.33858700E-07
   1.68799996       2.49023117E-07
   1.69500005       2.64913325E-07
   1.70200002       2.81544970E-07
   1.70899999       2.98932662E-07
   1.71599996       3.17089899E-07
   1.72300005       3.36028734E-07
   1.73000002       3.55759425E-07
   1.73699999       3.76290586E-07
   1.74399996       3.97628753E-07
   1.75100005       4.19778615E-07
   1.75800002       4.42743300E-07
   1.76499999       4.66524085E-07
   1.77199996       4.91120488E-07
   1.77900004       5.16530179E-07
   1.78600001       5.42748808E-07
   1.79299998       5.69769156E-07
   1.79999995       5.97582243E-07
   1.80700004       6.26176131E-07
   1.81400001       6.55536269E-07
   1.82099998       6.85645432E-07
   1.82799995       7.16484180E-07
   1.83500004       7.48030629E-07
   1.84200001       7.80260677E-07
   1.84899998       8.13147608E-07
   1.85599995       8.46662545E-07
   1.86300004       8.80773712E-07
   1.87000000       9.15446833E-07
   1.87699997       9.50645131E-07
   1.88399994       9.86328814E-07
   1.89100003       1.02245644E-06
   1.89800000       1.05898334E-06
   1.90499997       1.09586381E-06
   1.91199994       1.13304975E-06
   1.91900003       1.17049171E-06
   1.92600000       1.20813911E-06
   1.93299997       1.24593942E-06
   1.94000006       1.28383806E-06
   1.94700003       1.32178025E-06
   1.95400000       1.35970879E-06
   1.96099997       1.39756582E-06
   1.96800005       1.43529269E-06
   1.97500002       1.47282958E-06
   1.98199999       1.51011670E-06
   1.98899996       1.54709414E-06
   1.99600005       1.58370187E-06
   2.00300002       1.61988066E-06
   2.00999999       1.65557128E-06
   2.01699996       1.69071484E-06
   2.02399993       1.72525313E-06
   2.03099990       1.75912817E-06
   2.03800011       1.79228357E-06
   2.04500008       1.82466351E-06
   2.05200005       1.85621479E-06
   2.05900002       1.88688580E-06
   2.06599998       1.91662730E-06
   2.07299995       1.94539166E-06
   2.07999992       1.97313443E-06
   2.08699989       1.99981287E-06
   2.09400010       2.02538649E-06
   2.10100007       2.04981643E-06
   2.10800004       2.07306675E-06
   2.11500001       2.09510381E-06
   2.12199998       2.11589690E-06
   2.12899995       2.13541762E-06
   2.13599992       2.15364321E-06
   2.14299989       2.17055231E-06
   2.15000010       2.18612763E-06
   2.15700006       2.20035554E-06
   2.16400003       2.21322398E-06
   2.17100000       2.22472431E-06
   2.17799997       2.23485176E-06
   2.18499994       2.24360338E-06
   2.19199991       2.25098074E-06
   2.19899988       2.25698841E-06
   2.20600009       2.26163502E-06
   2.21300006       2.26493239E-06
   2.22000003       2.26689576E-06
   2.22700000       2.26754378E-06
   2.23399997       2.26689554E-06
   2.24099994       2.26497468E-06
   2.24799991       2.26180532E-06
   2.25500011       2.25741519E-06
   2.26200008       2.25183385E-06
   2.26900005       2.24509449E-06
   2.27600002       2.23723305E-06
   2.28299999       2.22828953E-06
   2.28999996       2.21830510E-06
   2.29699993       2.20732363E-06
   2.30399990       2.19538992E-06
   2.31100011       2.18255036E-06
   2.31800008       2.16885269E-06
   2.32500005       2.15434511E-06
   2.33200002       2.13907765E-06
   2.33899999       2.12310283E-06
   2.34599996       2.10647386E-06
   2.35299993       2.08924575E-06
   2.35999990       2.07147514E-06
   2.36700010       2.05321930E-06
   2.37400007       2.03453556E-06
   2.38100004       2.01548096E-06
   2.38800001       1.99611100E-06
   2.39499998       1.97648114E-06
   2.40199995       1.95664620E-06
   2.40899992       1.93666096E-06
   2.41599989       1.91658182E-06
   2.42300010       1.89646403E-06
   2.43000007       1.87636397E-06
   2.43700004       1.85633655E-06
   2.44400001       1.83643544E-06
   2.45099998       1.81671146E-06
   2.45799994       1.79721280E-06
   2.46499991       1.77798518E-06
   2.47199988       1.75907178E-06
   2.47900009       1.74051490E-06
   2.48600006       1.72235457E-06
   2.49300003       1.70463011E-06
   2.50000000       1.68737938E-06
   2.50699997       1.67063797E-06
   2.51399994       1.65443828E-06
   2.52099991       1.63880770E-06
   2.52800012       1.62377012E-06
   2.53500009       1.60934485E-06
   2.54200006       1.59554759E-06
   2.54900002       1.58239129E-06
   2.55599999       1.56988642E-06
   2.56299996       1.55804139E-06
   2.56999993       1.54686268E-06
   2.57699990       1.53635301E-06
   2.58400011       1.52651171E-06
   2.59100008       1.51733309E-06
   2.59800005       1.50880715E-06
   2.60500002       1.50091955E-06
   2.61199999       1.49365201E-06
   2.61899996       1.48698371E-06
   2.62599993       1.48089168E-06
   2.63299990       1.47535116E-06
   2.64000010       1.47033586E-06
   2.64700007       1.46581681E-06
   2.65400004       1.46176285E-06
   2.66100001       1.45813931E-06
   2.66799998       1.45490833E-06
   2.67499995       1.45202921E-06
   2.68199992       1.44945921E-06
   2.68899989       1.44715455E-06
   2.69600010       1.44507146E-06
   2.70300007       1.44316618E-06
   2.71000004       1.44139653E-06
   2.71700001       1.43972090E-06
   2.72399998       1.43809768E-06
   2.73099995       1.43648549E-06
   2.73799992       1.43484226E-06
   2.74499989       1.43312604E-06
   2.75200009       1.43129580E-06
   2.75900006       1.42931117E-06
   2.76600003       1.42713486E-06
   2.77300000       1.42473266E-06
   2.77999997       1.42207273E-06
   2.78699994       1.41912813E-06
   2.79399991       1.41587429E-06
   2.80100012       1.41228998E-06
   2.80800009       1.40835607E-06
   2.81500006       1.40405598E-06
   2.82200003       1.39937583E-06
   2.82900000       1.39430517E-06
   2.83599997       1.38883718E-06
   2.84299994       1.38297014E-06
   2.84999990       1.37670679E-06
   2.85700011       1.37005509E-06
   2.86400008       1.36302776E-06
   2.87100005       1.35564142E-06
   2.87800002       1.34791628E-06
   2.88499999       1.33987476E-06
   2.89199996       1.33154128E-06
   2.89899993       1.32294326E-06
   2.90599990       1.31411025E-06
   2.91300011       1.30507533E-06
   2.92000008       1.29587579E-06
   2.92700005       1.28655233E-06
   2.93400002       1.27714998E-06
   2.94099998       1.26771602E-06
   2.94799995       1.25829990E-06
   2.95499992       1.24895189E-06
   2.96199989       1.23972109E-06
   2.96900010       1.23065672E-06
   2.97600007       1.22180722E-06
   2.98300004       1.21322114E-06
   2.99000001       1.20494815E-06
   2.99699998       1.19703839E-06
   3.00399995       1.18954324E-06
   3.01099992       1.18251376E-06
   3.01799989       1.17599973E-06
   3.02500010       1.17004845E-06
   3.03200006       1.16470358E-06
   3.03900003       1.16000388E-06
   3.04600000       1.15598380E-06
   3.05299997       1.15267449E-06
   3.05999994       1.15010437E-06
   3.06699991       1.14829959E-06
   3.07399988       1.14728425E-06
   3.08100009       1.14707984E-06
   3.08800006       1.14770421E-06
   3.09500003       1.14916952E-06
   3.10200000       1.15148180E-06
   3.10899997       1.15463990E-06
   3.11599994       1.15863622E-06
   3.12299991       1.16345666E-06
   3.13000011       1.16908234E-06
   3.13700008       1.17549064E-06
   3.14400005       1.18265677E-06
   3.15100002       1.19055164E-06
   3.15799999       1.19914284E-06
   3.16499996       1.20839172E-06
   3.17199993       1.21825326E-06
   3.17899990       1.22867516E-06
   3.18600011       1.23959728E-06
   3.19300008       1.25095426E-06
   3.20000005       1.26267514E-06
   3.20700002       1.27468695E-06
   3.21399999       1.28691397E-06
   3.22099996       1.29927935E-06
   3.22799993       1.31170441E-06
   3.23499990       1.32410719E-06
   3.24200010       1.33640219E-06
   3.24900007       1.34849938E-06
   3.25600004       1.36030371E-06
   3.26300001       1.37171719E-06
   3.26999998       1.38264011E-06
   3.27699995       1.39297276E-06
   3.28399992       1.40261773E-06
   3.29099989       1.41147996E-06
   3.29800010       1.41946623E-06
   3.30500007       1.42648571E-06
   3.31200004       1.43244745E-06
   3.31900001       1.43726129E-06
   3.32599998       1.44083606E-06
   3.33299994       1.44308160E-06
   3.33999991       1.44390992E-06
   3.34699988       1.44323781E-06
   3.35400009       1.44098817E-06
   3.36100006       1.43709167E-06
   3.36800003       1.43148611E-06
   3.37500000       1.42411659E-06
   3.38199997       1.41493399E-06
   3.38899994       1.40389375E-06
   3.39599991       1.39095641E-06
   3.40300012       1.37608765E-06
   3.41000009       1.35925870E-06
   3.41700006       1.34044944E-06
   3.42400002       1.31964907E-06
   3.43099999       1.29685782E-06
   3.43799996       1.27208716E-06
   3.44499993       1.24535882E-06
   3.45199990       1.21670371E-06
   3.45900011       1.18615969E-06
   3.46600008       1.15377134E-06
   3.47300005       1.11959014E-06
   3.48000002       1.08367374E-06
   3.48699999       1.04608853E-06
   3.49399996       1.00691045E-06
   3.50099993       9.66226935E-07
   3.50799990       9.24136714E-07
   3.51500010       8.80749212E-07
   3.52200007       8.36182551E-07
   3.52900004       7.90560989E-07
   3.53600001       7.44014301E-07
   3.54299998       6.96675841E-07
   3.54999995       6.48683510E-07
   3.55699992       6.00179817E-07
   3.56399989       5.51313917E-07
   3.57100010       5.02241619E-07
   3.57800007       4.53126319E-07
   3.58500004       4.04138063E-07
   3.59200001       3.55451220E-07
   3.59899998       3.07241777E-07
   3.60599995       2.59685265E-07
   3.61299992       2.12955541E-07
   3.61999989       1.67224684E-07
   3.62700009       1.22663749E-07
   3.63400006       7.94434669E-08
   3.64100003       3.77353331E-08
   3.64800000      -2.28815034E-09
   3.65499997      -4.04540899E-08
   3.66199994      -7.65913555E-08
   3.66899991      -1.10532469E-07
   3.67600012      -1.42115894E-07
   3.68300009      -1.71187736E-07
   3.69000006      -1.97602020E-07
   3.69700003      -2.21220702E-07
   3.70400000      -2.41912289E-07
   3.71099997      -2.59551086E-07
   3.71799994      -2.74016770E-07
   3.72499990      -2.85195540E-07
   3.73200011      -2.92980729E-07
   3.73900008      -2.97273829E-07
   3.74600005      -2.97986389E-07
   3.75300002      -2.95040877E-07
   3.75999999      -2.88371467E-07
   3.76699996      -2.77923704E-07
   3.77399993      -2.63653959E-07
   3.78099990      -2.45528184E-07
   3.78800011      -2.23521312E-07
   3.79500008      -1.97617425E-07
   3.80200005      -1.67810455E-07
   3.80900002      -1.34104681E-07
   3.81599998      -9.65152438E-08
   3.82299995      -5.50684618E-08
   3.82999992      -9.80274972E-09
   3.83699989       3.92318995E-08
   3.84400010       9.19741012E-08
   3.85100007       1.48352271E-07
   3.85800004       2.08285712E-07
   3.86500001       2.71685394E-07
   3.87199998       3.38453816E-07
   3.87899995       4.08484510E-07
   3.88599992       4.81662028E-07
   3.89299989       5.57861938E-07
   3.90000010       6.36951313E-07
   3.90700006       7.18788044E-07
   3.91400003       8.03221383E-07
   3.92100000       8.90093361E-07
   3.92799997       9.79239758E-07
   3.93499994       1.07049061E-06
   3.94199991       1.16367221E-06
   3.94899988       1.25860561E-06
   3.95600009       1.35510857E-06
   3.96300006       1.45299396E-06
   3.97000003       1.55207147E-06
   3.97700000       1.65214703E-06
   3.98399997       1.75302353E-06
   3.99099994       1.85450153E-06
   3.99799991       1.95637972E-06
   4.00500011       2.05845527E-06
   4.01200008       2.16052490E-06
   4.01900005       2.26238694E-06
   4.02600002       2.36383994E-06
   4.03299999       2.46468517E-06
   4.03999996       2.56472572E-06
   4.04699993       2.66376492E-06
   4.05399990       2.76161040E-06
   4.06099987       2.85807050E-06
   4.06799984       2.95295899E-06
   4.07499981       3.04609284E-06
   4.08199978       3.13729402E-06
   4.08900023       3.22639016E-06
   4.09600019       3.31321530E-06
   4.10300016       3.39761141E-06
   4.11000013       3.47942751E-06
   4.11700010       3.55852080E-06
   4.12400007       3.63475351E-06
   4.13100004       3.70799489E-06
   4.13800001       3.77811898E-06
   4.14499998       3.84500709E-06
   4.15199995       3.90854802E-06
   4.15899992       3.96864061E-06
   4.16599989       4.02518981E-06
   4.17299986       4.07811376E-06
   4.17999983       4.12734244E-06
   4.18699980       4.17281535E-06
   4.19399977       4.21448112E-06
   4.20100021       4.25229746E-06
   4.20800018       4.28622661E-06
   4.21500015       4.31624039E-06
   4.22200012       4.34231788E-06
   4.22900009       4.36444861E-06
   4.23600006       4.38263351E-06
   4.24300003       4.39688120E-06
   4.25000000       4.40721033E-06
   4.25699997       4.41365182E-06
   4.26399994       4.41624206E-06
   4.27099991       4.41502652E-06
   4.27799988       4.41005523E-06
   4.28499985       4.40138501E-06
   4.29199982       4.38907773E-06
   4.29899979       4.37320159E-06
   4.30600023       4.35383618E-06
   4.31300020       4.33106970E-06
   4.32000017       4.30499995E-06
   4.32700014       4.27572695E-06
   4.33400011       4.24335985E-06
   4.34100008       4.20800734E-06
   4.34800005       4.16978537E-06
   4.35500002       4.12880900E-06
   4.36199999       4.08520054E-06
   4.36899996       4.03908234E-06
   4.37599993       3.99058263E-06
   4.38299990       3.93983464E-06
   4.38999987       3.88697663E-06
   4.39699984       3.83214820E-06
   4.40399981       3.77548872E-06
   4.41099977       3.71713827E-06
   4.41800022       3.65723577E-06
   4.42500019       3.59592059E-06
   4.43200016       3.53333166E-06
   4.43900013       3.46960837E-06
   4.44600010       3.40489100E-06
   4.45300007       3.33932076E-06
   4.46000004       3.27303769E-06
   4.46700001       3.20618278E-06
   4.47399998       3.13889382E-06
   4.48099995       3.07130585E-06
   4.48799992       3.00354986E-06
   4.49499989       2.93575181E-06
   4.50199986       2.86803561E-06
   4.50899982       2.80052109E-06
   4.51599979       2.73332535E-06
   4.52299976       2.66656184E-06
   4.53000021       2.60034085E-06
   4.53700018       2.53476787E-06
   4.54400015       2.46994455E-06
   4.55100012       2.40596637E-06
   4.55800009       2.34292543E-06
   4.56500006       2.28090516E-06
   4.57200003       2.21998357E-06
   4.57900000       2.16023250E-06
   4.58599997       2.10171902E-06
   4.59299994       2.04450521E-06
   4.59999990       1.98864905E-06
   4.60699987       1.93420306E-06
   4.61399984       1.88121510E-06
   4.62099981       1.82972724E-06
   4.62799978       1.77977472E-06
   4.63500023       1.73138596E-06
   4.64200020       1.68458143E-06
   4.64900017       1.63937375E-06
   4.65600014       1.59577041E-06
   4.66300011       1.55377279E-06
   4.67000008       1.51337838E-06
   4.67700005       1.47458059E-06
   4.68400002       1.43736816E-06
   4.69099998       1.40172529E-06
   4.69799995       1.36763106E-06
   4.70499992       1.33505830E-06
   4.71199989       1.30397530E-06
   4.71899986       1.27434407E-06
   4.72599983       1.24612325E-06
   4.73299980       1.21926848E-06
   4.73999977       1.19373374E-06
   4.74700022       1.16947183E-06
   4.75400019       1.14643422E-06
   4.76100016       1.12456996E-06
   4.76800013       1.10382643E-06
   4.77500010       1.08414872E-06
   4.78200006       1.06547861E-06
   4.78900003       1.04775756E-06
   4.79600000       1.03092532E-06
   4.80299997       1.01492208E-06
   4.80999994       9.99689632E-07
   4.81699991       9.85171710E-07
   4.82399988       9.71314762E-07
   4.83099985       9.58067062E-07
   4.83799982       9.45378531E-07
   4.84499979       9.33200681E-07
   4.85200024       9.21486560E-07
   4.85900021       9.10190749E-07
   4.86600018       8.99270503E-07
   4.87300014       8.88686145E-07
   4.88000011       8.78401693E-07
   4.88700008       8.68385371E-07
   4.89400005       8.58610065E-07
   4.90100002       8.49054175E-07
   4.90799999       8.39700419E-07
   4.91499996       8.30535441E-07
   4.92199993       8.21548610E-07
   4.92899990       8.12731855E-07
   4.93599987       8.04079434E-07
   4.94299984       7.95587994E-07
   4.94999981       7.87257591E-07
   4.95699978       7.79091238E-07
   4.96400023       7.71096097E-07
   4.97100019       7.63283879E-07
   4.97800016       7.55670897E-07
   4.98500013       7.48277273E-07
   4.99200010       7.41125746E-07