  -1.00000000       1.78816530E-17
 -0.992999971       2.27320217E-16
 -0.986000001       7.76549165E-16
 -0.978999972       1.35376586E-15
 -0.972000003       1.58364181E-15
 -0.964999974       2.45634430E-15
 -0.958000004       7.72093317E-15
 -0.950999975       2.39534446E-14
 -0.944000006       5.90601447E-14
 -0.936999977       1.20017454E-13
 -0.930000007       2.10503950E-13
 -0.922999978       3.28252806E-13
 -0.916000009       4.62096995E-13
 -0.908999979       5.90346294E-13
 -0.902000010       6.83531140E-13
 -0.894999981       7.13134792E-13
 -0.888000011       6.63565828E-13
 -0.880999982       5.40628414E-13
 -0.874000013       3.70240134E-13
 -0.866999984       1.86812629E-13
 -0.860000014       1.75235514E-14
 -0.852999985      -1.28779582E-13
 -0.846000016      -2.62882625E-13
 -0.838999987      -4.07797439E-13
 -0.832000017      -5.87446378E-13
 -0.824999988      -8.15595421E-13
 -0.818000019      -1.08699378E-12
 -0.810999990      -1.37265080E-12
 -0.804000020      -1.62313175E-12
 -0.796999991      -1.78350845E-12
 -0.790000021      -1.81791409E-12
 -0.782999992      -1.73307289E-12
 -0.776000023      -1.58621152E-12
 -0.768999994      -1.46888166E-12
 -0.762000024      -1.47184858E-12
 -0.754999995      -1.64790371E-12
 -0.748000026      -1.99055486E-12
 -0.740999997      -2.43690268E-12
 -0.734000027      -2.89076141E-12
 -0.726999998      -3.25538468E-12
 -0.720000029      -3.46599789E-12
 -0.713000000      -3.51522197E-12
 -0.705999970      -3.46487357E-12
 -0.699000001      -3.43677474E-12
 -0.691999972      -3.57929593E-12
 -0.685000002      -4.01761914E-12
 -0.677999973      -4.80833645E-12
 -0.671000004      -5.92167418E-12
 -0.663999975      -7.26251264E-12
 -0.657000005      -8.72044017E-12
 -0.649999976      -1.02237697E-11
 -0.643000007      -1.17726462E-11
 -0.635999978      -1.34402099E-11
 -0.629000008      -1.53466701E-11
 -0.621999979      -1.76190642E-11
 -0.615000010      -2.03487678E-11
 -0.607999980      -2.35572378E-11
 -0.601000011      -2.71813370E-11
 -0.593999982      -3.10892700E-11
 -0.587000012      -3.51304263E-11
 -0.579999983      -3.92059163E-11
 -0.573000014      -4.33294685E-11
 -0.565999985      -4.76475595E-11
 -0.559000015      -5.24044731E-11
 -0.551999986      -5.78655734E-11
 -0.545000017      -6.42313563E-11
 -0.537999988      -7.15742049E-11
 -0.531000018      -7.98157443E-11
 -0.523999989      -8.87454901E-11
 -0.517000020      -9.80736811E-11
 -0.509999990      -1.07505956E-10
 -0.503000021      -1.16823190E-10
 -0.495999992      -1.25948002E-10
 -0.488999993      -1.34968245E-10
 -0.481999993      -1.44105047E-10
 -0.474999994      -1.53633953E-10
 -0.467999995      -1.63790842E-10
 -0.460999995      -1.74698159E-10
 -0.453999996      -1.86338403E-10
 -0.446999997      -1.98573449E-10
 -0.439999998      -2.11186818E-10
 -0.432999998      -2.23931873E-10
 -0.425999999      -2.36564240E-10
 -0.419000000      -2.48860682E-10
 -0.412000000      -2.60607924E-10
 -0.405000001      -2.71561468E-10
 -0.398000002      -2.81380419E-10
 -0.391000003      -2.89551494E-10
 -0.384000003      -2.95339558E-10
 -0.377000004      -2.97784908E-10
 -0.370000005      -2.95761943E-10
 -0.363000005      -2.88078256E-10
 -0.356000006      -2.73583767E-10
 -0.349000007      -2.51242971E-10
 -0.342000008      -2.20173060E-10
 -0.335000008      -1.79632531E-10
 -0.328000009      -1.28953057E-10
 -0.321000010      -6.74248088E-11
 -0.314000010       5.86235878E-12
 -0.307000011       9.21578647E-11
 -0.300000012       1.93153327E-10
 -0.293000013       3.10993731E-10
 -0.286000013       4.48226345E-10
 -0.279000014       6.07678019E-10
 -0.272000015       7.92325761E-10
 -0.264999986       1.00521569E-09
 -0.257999986       1.24943367E-09
 -0.250999987       1.52816104E-09
 -0.244000003       1.84476667E-09
 -0.237000003       2.20294138E-09
 -0.230000004       2.60676258E-09
 -0.223000005       3.06075099E-09
 -0.216000006       3.56982199E-09
 -0.209000006       4.13918055E-09
 -0.202000007       4.77417306E-09
 -0.194999993       5.48019319E-09
 -0.187999994       6.26263219E-09
 -0.180999994       7.12697279E-09
 -0.173999995       8.07894285E-09
 -0.166999996       9.12473119E-09
 -0.159999996       1.02711457E-08
 -0.152999997       1.15256062E-08
 -0.145999998       1.28960158E-08
 -0.138999999       1.43906025E-08
 -0.131999999       1.60176370E-08
 -0.125000000       1.77852737E-08
 -0.118000001       1.97013321E-08
 -0.111000001       2.17734009E-08
 -0.104000002       2.40089566E-08
  -9.70000029E-02   2.64154956E-08
  -9.00000036E-02   2.90008906E-08
  -8.29999968E-02   3.17734568E-08
  -7.59999976E-02   3.47418627E-08
  -6.89999983E-02   3.79150897E-08
  -6.19999990E-02   4.13021581E-08
  -5.49999997E-02   4.49118431E-08
  -4.80000004E-02   4.87524190E-08
  -4.10000011E-02   5.28315489E-08
  -3.40000018E-02   5.71562779E-08
  -2.70000007E-02   6.17330329E-08
  -1.99999996E-02   6.65676865E-08
  -1.30000003E-02   7.16657738E-08
  -6.00000005E-03   7.70321407E-08
   1.00000005E-03   8.26709083E-08
   8.00000038E-03   8.85852884E-08
   1.49999997E-02   9.47772065E-08
   2.19999999E-02   1.01247771E-07
   2.89999992E-02   1.07996421E-07
   3.59999985E-02   1.15021123E-07
   4.30000015E-02   1.22318340E-07
   5.00000007E-02   1.29883105E-07
   5.70000000E-02   1.37709179E-07
   6.40000030E-02   1.45788647E-07
   7.10000023E-02   1.54111746E-07
   7.80000016E-02   1.62666623E-07
   8.50000009E-02   1.71439396E-07
   9.20000002E-02   1.80413153E-07
   9.89999995E-02   1.89568595E-07
  0.105999999       1.98883185E-07
  0.112999998       2.08331102E-07
  0.119999997       2.17883169E-07
  0.127000004       2.27507300E-07
  0.134000003       2.37168052E-07
  0.141000003       2.46827113E-07
  0.148000002       2.56442888E-07
  0.155000001       2.65970812E-07
  0.162000000       2.75363163E-07
  0.169000000       2.84568415E-07
  0.175999999       2.93531656E-07
  0.182999998       3.02193570E-07
  0.189999998       3.10490236E-07
  0.196999997       3.18354296E-07
  0.203999996       3.25714865E-07
  0.210999995       3.32496711E-07
  0.217999995       3.38621021E-07
  0.224999994       3.44005514E-07
  0.231999993       3.48563930E-07
  0.238999993       3.52206030E-07
  0.246000007       3.54837283E-07
  0.252999991       3.56359521E-07
  0.259999990       3.56671620E-07
  0.266999990       3.55668760E-07
  0.273999989       3.53242541E-07
  0.280999988       3.49280526E-07
  0.287999988       3.43669427E-07
  0.294999987       3.36294278E-07
  0.301999986       3.27038322E-07
  0.308999985       3.15781335E-07
  0.316000015       3.02401247E-07
  0.323000014       2.86772234E-07
  0.330000013       2.68769327E-07
  0.337000012       2.48268208E-07
  0.344000012       2.25143580E-07
  0.351000011       1.99268783E-07
  0.358000010       1.70518291E-07
  0.365000010       1.38768399E-07
  0.372000009       1.03898003E-07
  0.379000008       6.57875674E-08
  0.386000007       2.43190481E-08
  0.393000007      -2.06225952E-08
  0.400000006      -6.91533373E-08
  0.407000005      -1.21382712E-07
  0.414000005      -1.77412744E-07
  0.421000004      -2.37337943E-07
  0.428000003      -3.01247695E-07
  0.435000002      -3.69226854E-07
  0.442000002      -4.41353194E-07
  0.449000001      -5.17695241E-07
  0.456000000      -5.98313534E-07
  0.463000000      -6.83262613E-07
  0.469999999      -7.72589942E-07
  0.476999998      -8.66333380E-07
  0.483999997      -9.64517085E-07
  0.490999997      -1.06715549E-06
  0.497999996      -1.17425316E-06
  0.504999995      -1.28580371E-06
  0.512000024      -1.40179247E-06
  0.518999994      -1.52219309E-06
  0.526000023      -1.64696303E-06
  0.532999992      -1.77604693E-06
  0.540000021      -1.90937862E-06
  0.546999991      -2.04688354E-06
  0.554000020      -2.18847458E-06
  0.560999990      -2.33404967E-06
  0.568000019      -2.48348965E-06
  0.574999988      -2.63666266E-06
  0.582000017      -2.79342771E-06
  0.588999987      -2.95363225E-06
  0.596000016      -3.11711210E-06
  0.602999985      -3.28369151E-06
  0.610000014      -3.45317994E-06
  0.616999984      -3.62537662E-06
  0.624000013      -3.80007259E-06
  0.630999982      -3.97704389E-06
  0.638000011      -4.15605837E-06
  0.644999981      -4.33687001E-06
  0.652000010      -4.51922870E-06
  0.658999979      -4.70287432E-06
  0.666000009      -4.88753631E-06
  0.672999978      -5.07294135E-06
  0.680000007      -5.25881160E-06
  0.686999977      -5.44485829E-06
  0.694000006      -5.63079129E-06
  0.700999975      -5.81631502E-06
  0.708000004      -6.00112890E-06
  0.714999974      -6.18493186E-06
  0.722000003      -6.36742197E-06
  0.728999972      -6.54829410E-06
  0.736000001      -6.72724127E-06
  0.742999971      -6.90395564E-06
  0.750000000      -7.07813479E-06
  0.757000029      -7.24947722E-06
  0.763999999      -7.41768645E-06
  0.771000028      -7.58247234E-06
  0.777999997      -7.74354703E-06
  0.785000026      -7.90062313E-06
  0.791999996      -8.05341369E-06
  0.799000025      -8.20164132E-06
  0.805999994      -8.34504772E-06
  0.813000023      -8.48337822E-06
  0.819999993      -8.61638637E-06
  0.827000022      -8.74382749E-06
  0.833999991      -8.86546877E-06
  0.841000021      -8.98109465E-06
  0.847999990      -9.09050505E-06
  0.855000019      -9.19350532E-06
  0.861999989      -9.28991176E-06
  0.869000018      -9.37954974E-06
  0.875999987      -9.46225100E-06
  0.883000016      -9.53786639E-06
  0.889999986      -9.60626858E-06
  0.897000015      -9.66734660E-06
  0.903999984      -9.72099224E-06
  0.911000013      -9.76710089E-06
  0.917999983      -9.80558798E-06
  0.925000012      -9.83638438E-06
  0.931999981      -9.85945098E-06
  0.939000010      -9.87475778E-06
  0.945999980      -9.88227202E-06
  0.953000009      -9.88197007E-06
  0.959999979      -9.87385010E-06
  0.967000008      -9.85792576E-06
  0.973999977      -9.83423524E-06
  0.981000006      -9.80282584E-06
  0.987999976      -9.76374213E-06
  0.995000005      -9.71703867E-06
   1.00199997      -9.66278003E-06
   1.00899994      -9.60105808E-06
   1.01600003      -9.53198651E-06
   1.02300000      -9.45567717E-06
   1.02999997      -9.37224831E-06
   1.03699994      -9.28180816E-06
   1.04400003      -9.18448495E-06
   1.05100000      -9.08043967E-06
   1.05799997      -8.96984056E-06
   1.06500006      -8.85286863E-06
   1.07200003      -8.72968121E-06
   1.07900000      -8.60044292E-06
   1.08599997      -8.46533658E-06
   1.09300005      -8.32457135E-06
   1.10000002      -8.17836280E-06
   1.10699999      -8.02691557E-06
   1.11399996      -7.87043518E-06
   1.12100005      -7.70912993E-06
   1.12800002      -7.54322764E-06
   1.13499999      -7.37296705E-06
   1.14199996      -7.19859781E-06
   1.14900005      -7.02035686E-06
   1.15600002      -6.83847111E-06
   1.16299999      -6.65317066E-06
   1.16999996      -6.46470244E-06
   1.17700005      -6.27333429E-06
   1.18400002      -6.07933498E-06
   1.19099998      -5.88296416E-06
   1.19799995      -5.68447149E-06
   1.20500004      -5.48410480E-06
   1.21200001      -5.28213559E-06
   1.21899998      -5.07885034E-06
   1.22599995      -4.87453053E-06
   1.23300004      -4.66943811E-06
   1.24000001      -4.46382001E-06
   1.24699998      -4.25793360E-06
   1.25399995      -4.05206129E-06
   1.26100004      -3.84649866E-06
   1.26800001      -3.64153425E-06
   1.27499998      -3.43743113E-06
   1.28199995      -3.23443714E-06
   1.28900003      -3.03280763E-06
   1.29600000      -2.83281611E-06
   1.30299997      -2.63474885E-06
   1.30999994      -2.43887848E-06
   1.31700003      -2.24545101E-06
   1.32400000      -2.05470201E-06
   1.33099997      -1.86688078E-06
   1.33800006      -1.68225245E-06
   1.34500003      -1.50108383E-06
   1.35200000      -1.32362004E-06
   1.35899997      -1.15007288E-06
   1.36600006      -9.80640266E-07
   1.37300003      -8.15527528E-07
   1.38000000      -6.54960445E-07
   1.38699996      -4.99163889E-07
   1.39400005      -3.48337295E-07
   1.40100002      -2.02647968E-07
   1.40799999      -6.22499314E-08
   1.41499996       7.26982492E-08
   1.42200005       2.02026371E-07
   1.42900002       3.25579208E-07
   1.43599999       4.43235365E-07
   1.44299996       5.54904489E-07
   1.45000005       6.60513365E-07
   1.45700002       7.59977070E-07
   1.46399999       8.53203915E-07
   1.47099996       9.40113637E-07
   1.47800004       1.02066167E-06
   1.48500001       1.09484006E-06
   1.49199998       1.16265812E-06
   1.49899995       1.22412382E-06
   1.50600004       1.27924159E-06
   1.51300001       1.32802802E-06
   1.51999998       1.37053405E-06
   1.52699995       1.40684347E-06
   1.53400004       1.43705290E-06
   1.54100001       1.46125717E-06
   1.54799998       1.47954859E-06
   1.55499995       1.49203390E-06
   1.56200004       1.49885261E-06
   1.56900001       1.50017399E-06
   1.57599998       1.49618313E-06
   1.58299994       1.48705874E-06
   1.59000003       1.47297249E-06
   1.59700000       1.45410695E-06
   1.60399997       1.43066904E-06
   1.61099994       1.40289330E-06
   1.61800003       1.37102506E-06
   1.62500000       1.33529716E-06
   1.63199997       1.29593570E-06
   1.63900006       1.25316933E-06
   1.64600003       1.20724940E-06
   1.65300000       1.15844637E-06
   1.65999997       1.10703411E-06
   1.66700006       1.05327149E-06
   1.67400002       9.97399979E-07
   1.68099999       9.39660652E-07
   1.68799996       8.80313223E-07
   1.69500005       8.19632248E-07
   1.70200002       7.57886426E-07
   1.70899999       6.95318704E-07
   1.71599996       6.32150829E-07
   1.72300005       5.68602616E-07
   1.73000002       5.04907462E-07
   1.73699999       4.41309595E-07
   1.74399996       3.78044064E-07
   1.75100005       3.15314765E-07
   1.75800002       2.53296662E-07
   1.76499999       1.92156051E-07
   1.77199996       1.32068507E-07
   1.77900004       7.32132648E-08
   1.78600001       1.57567506E-08
   1.79299998      -4.01667251E-08
   1.79999995      -9.44484029E-08
   1.80700004      -1.46986494E-07
   1.81400001      -1.97670374E-07
   1.82099998      -2.46385639E-07
   1.82799995      -2.93038966E-07
   1.83500004      -3.37572487E-07
   1.84200001      -3.79959943E-07
   1.84899998      -4.20184364E-07
   1.85599995      -4.58214288E-07
   1.86300004      -4.94008930E-07
   1.87000000      -5.27541999E-07
   1.87699997      -5.58817874E-07
   1.88399994      -5.87865998E-07
   1.89100003      -6.14720193E-07
   1.89800000      -6.39399389E-07
   1.90499997      -6.61917056E-07
   1.91199994      -6.82306791E-07
   1.91900003      -7.00639362E-07
   1.92600000      -7.17007595E-07
   1.93299997      -7.31494424E-07
   1.94000006      -7.44157205E-07
   1.94700003      -7.55036581E-07
   1.95400000      -7.64193203E-07
   1.96099997      -7.71719385E-07
   1.96800005      -7.77728587E-07
   1.97500002      -7.82321877E-07
   1.98199999      -7.85573150E-07
   1.98899996      -7.87544082E-07
   1.99600005      -7.88312946E-07
   2.00300002      -7.87989393E-07
   2.00999999      -7.86690634E-07
   2.01699996      -7.84508700E-07
   2.02399993      -7.81500887E-07
   2.03099990      -7.77708124E-07
   2.03800011      -7.73196632E-07
   2.04500008      -7.68063046E-07
   2.05200005      -7.62410650E-07
   2.05900002      -7.56313511E-07
   2.06599998      -7.49813239E-07
   2.07299995      -7.42943485E-07
   2.07999992      -7.35761546E-07
   2.08699989      -7.28349789E-07
   2.09400010      -7.20788307E-07
   2.10100007      -7.13123370E-07
   2.10800004      -7.05367484E-07
   2.11500001      -6.97528321E-07
   2.12199998      -6.89644708E-07
   2.12899995      -6.81785082E-07
   2.13599992      -6.74016519E-07
   2.14299989      -6.66370227E-07
   2.15000010      -6.58845124E-07
   2.15700006      -6.51437801E-07
   2.16400003      -6.44175429E-07
   2.17100000      -6.37112805E-07
   2.17799997      -6.30298018E-07
   2.18499994      -6.23744086E-07
   2.19199991      -6.17436456E-07
   2.19899988      -6.11375185E-07
   2.20600009      -6.05599837E-07
   2.21300006      -6.00175497E-07
   2.22000003      -5.95154802E-07
   2.22700000      -5.90547302E-07
   2.23399997      -5.86334352E-07
   2.24099994      -5.82513167E-07
   2.24799991      -5.79118989E-07
   2.25500011      -5.76214461E-07
   2.26200008      -5.73848581E-07
   2.26900005      -5.72034992E-07
   2.27600002      -5.70773182E-07
   2.28299999      -5.70082648E-07
   2.28999996      -5.70021882E-07
   2.29699993      -5.70662564E-07
   2.30399990      -5.72048975E-07
   2.31100011      -5.74185151E-07
   2.31800008      -5.77062394E-07
   2.32500005      -5.80699350E-07
   2.33200002      -5.85154226E-07
   2.33899999      -5.90494892E-07
   2.34599996      -5.96760458E-07
   2.35299993      -6.03953424E-07
   2.35999990      -6.12066231E-07
   2.36700010      -6.21117408E-07
   2.37400007      -6.31157661E-07
   2.38100004      -6.42236785E-07
   2.38800001      -6.54371490E-07
   2.39499998      -6.67546715E-07
   2.40199995      -6.81746997E-07
   2.40899992      -6.96984216E-07
   2.41599989      -7.13297766E-07
   2.42300010      -7.30717659E-07
   2.43000007      -7.49234403E-07
   2.43700004      -7.68805535E-07
   2.44400001      -7.89388935E-07
   2.45099998      -8.10975621E-07
   2.45799994      -8.33580827E-07
   2.46499991      -8.57209216E-07
   2.47199988      -8.81826963E-07
   2.47900009      -9.07375068E-07
   2.48600006      -9.33800834E-07
   2.49300003      -9.61074988E-07
   2.50000000      -9.89180990E-07
   2.50699997      -1.01808303E-06
   2.51399994      -1.04771175E-06
   2.52099991      -1.07798064E-06
   2.52800012      -1.10881933E-06
   2.53500009      -1.14018758E-06
   2.54200006      -1.17205866E-06
   2.54900002      -1.20438585E-06
   2.55599999      -1.23708980E-06
   2.56299996      -1.27007422E-06
   2.56999993      -1.30325714E-06
   2.57699990      -1.33658216E-06
   2.58400011      -1.37000347E-06
   2.59100008      -1.40345901E-06
   2.59800005      -1.43686418E-06
   2.60500002      -1.47012804E-06
   2.61199999      -1.50317737E-06
   2.61899996      -1.53596488E-06
   2.62599993      -1.56844749E-06
   2.63299990      -1.60056129E-06
   2.64000010      -1.63222001E-06
   2.64700007      -1.66333496E-06
   2.65400004      -1.69383804E-06
   2.66100001      -1.72369107E-06
   2.66799998      -1.75286561E-06
   2.67499995      -1.78131950E-06
   2.68199992      -1.80899269E-06
   2.68899989      -1.83582631E-06
   2.69600010      -1.86177601E-06
   2.70300007      -1.88681361E-06
   2.71000004      -1.91091181E-06
   2.71700001      -1.93403116E-06
   2.72399998      -1.95612370E-06
   2.73099995      -1.97714985E-06
   2.73799992      -1.99708848E-06
   2.74499989      -2.01593639E-06
   2.75200009      -2.03369655E-06
   2.75900006      -2.05036213E-06
   2.76600003      -2.06591199E-06
   2.77300000      -2.08032270E-06
   2.77999997      -2.09358291E-06
   2.78699994      -2.10570033E-06
   2.79399991      -2.11668589E-06
   2.80100012      -2.12654390E-06
   2.80800009      -2.13527323E-06
   2.81500006      -2.14287820E-06
   2.82200003      -2.14937859E-06
   2.82900000      -2.15480804E-06
   2.83599997      -2.15919931E-06
   2.84299994      -2.16257536E-06
   2.84999990      -2.16494686E-06
   2.85700011      -2.16632316E-06
   2.86400008      -2.16671901E-06
   2.87100005      -2.16616513E-06
   2.87800002      -2.16470426E-06
   2.88499999      -2.16237481E-06
   2.89199996      -2.15920272E-06
   2.89899993      -2.15521209E-06
   2.90599990      -2.15043201E-06
   2.91300011      -2.14490751E-06
   2.92000008      -2.13868930E-06
   2.92700005      -2.13181715E-06
   2.93400002      -2.12431155E-06
   2.94099998      -2.11618362E-06
   2.94799995      -2.10745452E-06
   2.95499992      -2.09816722E-06
   2.96199989      -2.08837378E-06
   2.96900010      -2.07811649E-06
   2.97600007      -2.06741674E-06
   2.98300004      -2.05628430E-06
   2.99000001      -2.04473781E-06
   2.99699998      -2.03281047E-06
   3.00399995      -2.02054275E-06
   3.01099992      -2.00795694E-06
   3.01799989      -1.99504984E-06
   3.02500010      -1.98180646E-06
   3.03200006      -1.96823203E-06
   3.03900003      -1.95435746E-06
   3.04600000      -1.94022073E-06
   3.05299997      -1.92583957E-06
   3.05999994      -1.91119830E-06
   3.06699991      -1.89627269E-06
   3.07399988      -1.88104855E-06
   3.08100009      -1.86553029E-06
   3.08800006      -1.84972180E-06
   3.09500003      -1.83360191E-06
   3.10200000      -1.81712289E-06
   3.10899997      -1.80023574E-06
   3.11599994      -1.78291691E-06
   3.12299991      -1.76516915E-06
   3.13000011      -1.74699335E-06
   3.13700008      -1.72835780E-06
   3.14400005      -1.70919611E-06
   3.15100002      -1.68943632E-06
   3.15799999      -1.66903089E-06
   3.16499996      -1.64795892E-06
   3.17199993      -1.62619654E-06
   3.17899990      -1.60369359E-06
   3.18600011      -1.58037551E-06
   3.19300008      -1.55617784E-06
   3.20000005      -1.53106680E-06
   3.20700002      -1.50503035E-06
   3.21399999      -1.47803962E-06
   3.22099996      -1.45002821E-06
   3.22799993      -1.42090346E-06
   3.23499990      -1.39058773E-06
   3.24200010      -1.35904236E-06
   3.24900007      -1.32625689E-06
   3.25600004      -1.29221189E-06
   3.26300001      -1.25685710E-06
   3.26999998      -1.22013057E-06
   3.27699995      -1.18198807E-06
   3.28399992      -1.14242221E-06
   3.29099989      -1.10144401E-06
   3.29800010      -1.05904394E-06
   3.30500007      -1.01518174E-06
   3.31200004      -9.69807843E-07
   3.31900001      -9.22908328E-07
   3.32599998      -8.74515592E-07
   3.33299994      -8.24683184E-07
   3.33999991      -7.73446686E-07
   3.34699988      -7.20808885E-07
   3.35400009      -6.66765459E-07
   3.36100006      -6.11345001E-07
   3.36800003      -5.54617031E-07
   3.37500000      -4.96661130E-07
   3.38199997      -4.37533942E-07
   3.38899994      -3.77267384E-07
   3.39599991      -3.15903293E-07
   3.40300012      -2.53529862E-07
   3.41000009      -1.90281810E-07
   3.41700006      -1.26298261E-07
   3.42400002      -6.16859381E-08
   3.43099999       3.47916118E-09
   3.43799996       6.91130779E-08
   3.44499993       1.35088811E-07
   3.45199990       2.01241335E-07
   3.45900011       2.67410087E-07
   3.46600008       3.33467710E-07
   3.47300005       3.99307226E-07
   3.48000002       4.64800280E-07
   3.48699999       5.29771057E-07
   3.49399996       5.94017536E-07
   3.50099993       6.57358669E-07
   3.50799990       7.19657237E-07
   3.51500010       7.80796654E-07
   3.52200007       8.40637426E-07
   3.52900004       8.98997314E-07
   3.53600001       9.55676114E-07
   3.54299998       1.01049864E-06
   3.54999995       1.06333187E-06
   3.55699992       1.11405984E-06
   3.56399989       1.16254125E-06
   3.57100010       1.20860534E-06
   3.57800007       1.25208055E-06
   3.58500004       1.29282944E-06
   3.59200001       1.33075957E-06
   3.59899998       1.36579138E-06
   3.60599995       1.39781662E-06
   3.61299992       1.42669705E-06
   3.61999989       1.45229717E-06
   3.62700009       1.47452477E-06
   3.63400006       1.49333414E-06
   3.64100003       1.50869005E-06
   3.64800000       1.52053224E-06
   3.65499997       1.52878101E-06
   3.66199994       1.53337146E-06
   3.66899991       1.53428618E-06
   3.67600012       1.53154485E-06
   3.68300009       1.52517055E-06
   3.69000006       1.51515599E-06
   3.69700003       1.50147969E-06
   3.70400000       1.48414506E-06
   3.71099997       1.46320872E-06
   3.71799994       1.43876161E-06
   3.72499990       1.41088583E-06
   3.73200011       1.37963298E-06
   3.73900008       1.34504478E-06
   3.74600005       1.30719286E-06
   3.75300002       1.26619466E-06
   3.75999999       1.22219001E-06
   3.76699996       1.17530362E-06
   3.77399993       1.12563066E-06
   3.78099990       1.07326355E-06
   3.78800011       1.01832700E-06
   3.79500008       9.60985744E-07
   3.80200005       9.01417934E-07
   3.80900002       8.39777726E-07
   3.81599998       7.76189665E-07
   3.82299995       7.10778693E-07
   3.82999992       6.43705619E-07
   3.83699989       5.75167292E-07
   3.84400010       5.05362948E-07
   3.85100007       4.34462521E-07
   3.85800004       3.62604624E-07
   3.86500001       2.89929062E-07
   3.87199998       2.16605315E-07
   3.87899995       1.42831354E-07
   3.88599992       6.87977817E-08
   3.89299989      -5.33687450E-09
   3.90000010      -7.94380028E-08
   3.90700006      -1.53362663E-07
   3.91400003      -2.26939321E-07
   3.92100000      -2.99980513E-07
   3.92799997      -3.72315668E-07
   3.93499994      -4.43811018E-07
   3.94199991      -5.14359328E-07
   3.94899988      -5.83840574E-07
   3.95600009      -6.52102472E-07
   3.96300006      -7.18977162E-07
   3.97000003      -7.84317081E-07
   3.97700000      -8.48011553E-07
   3.98399997      -9.09969970E-07
   3.99099994      -9.70093652E-07
   3.99799991      -1.02826425E-06
   4.00500011      -1.08436484E-06
   4.01200008      -1.13830458E-06
   4.01900005      -1.19002516E-06
   4.02600002      -1.23947609E-06
   4.03299999      -1.28658792E-06
   4.03999996      -1.33127151E-06
   4.04699993      -1.37344000E-06
   4.05399990      -1.41303599E-06
   4.06099987      -1.45003605E-06
   4.06799984      -1.48442757E-06
   4.07499981      -1.51618508E-06
   4.08199978      -1.54527061E-06
   4.08900023      -1.57165891E-06
   4.09600019      -1.59534909E-06
   4.10300016      -1.61636024E-06
   4.11000013      -1.63471168E-06
   4.11700010      -1.65040933E-06
   4.12400007      -1.66345728E-06
   4.13100004      -1.67387554E-06
   4.13800001      -1.68170948E-06
   4.14499998      -1.68702365E-06
   4.15199995      -1.68988242E-06
   4.15899992      -1.69034161E-06
   4.16599989      -1.68845497E-06
   4.17299986      -1.68428573E-06
   4.17999983      -1.67791347E-06
   4.18699980      -1.66942823E-06
   4.19399977      -1.65891947E-06
   4.20100021      -1.64647167E-06
   4.20800018      -1.63217248E-06
   4.21500015      -1.61612184E-06
   4.22200012      -1.59843432E-06
   4.22900009      -1.57922875E-06
   4.23600006      -1.55862085E-06
   4.24300003      -1.53671942E-06
   4.25000000      -1.51363326E-06
   4.25699997      -1.48947584E-06
   4.26399994      -1.46436628E-06
   4.27099991      -1.43842385E-06
   4.27799988      -1.41176497E-06
   4.28499985      -1.38450719E-06
   4.29199982      -1.35677340E-06
   4.29899979      -1.32869229E-06
   4.30600023      -1.30039155E-06
   4.31300020      -1.27199235E-06
   4.32000017      -1.24360929E-06
   4.32700014      -1.21535390E-06
   4.33400011      -1.18733487E-06
   4.34100008      -1.15965474E-06
   4.34800005      -1.13240628E-06
   4.35500002      -1.10567839E-06
   4.36199999      -1.07956180E-06
   4.36899996      -1.05415211E-06
   4.37599993      -1.02954391E-06
   4.38299990      -1.00581781E-06
   4.38999987      -9.83042014E-07
   4.39699984      -9.61277692E-07
   4.40399981      -9.40585323E-07
   4.41099977      -9.21027322E-07
   4.41800022      -9.02657348E-07
   4.42500019      -8.85513657E-07
   4.43200016      -8.69620749E-07
   4.43900013      -8.55002895E-07
   4.44600010      -8.41693236E-07
   4.45300007      -8.29728663E-07
   4.46000004      -8.19135209E-07
   4.46700001      -8.09920039E-07
   4.47399998      -8.02077011E-07
   4.48099995      -7.95601750E-07
   4.48799992      -7.90501019E-07
   4.49499989      -7.86784085E-07
   4.50199986      -7.84443444E-07
   4.50899982      -7.83450162E-07
   4.51599979      -7.83762403E-07
   4.52299976      -7.85349187E-07
   4.53000021      -7.88195166E-07
   4.53700018      -7.92286130E-07
   4.54400015      -7.97589450E-07
   4.55100012      -8.04049648E-07
   4.55800009      -8.11605673E-07
   4.56500006      -8.20209550E-07
   4.57200003      -8.29832288E-07
   4.57900000      -8.40443818E-07
   4.58599997      -8.51990819E-07
   4.59299994      -8.64402182E-07
   4.59999990      -8.77608841E-07
   4.60699987      -8.91566231E-07
   4.61399984      -9.06248886E-07
   4.62099981      -9.21627816E-07
   4.62799978      -9.37650043E-07
   4.63500023      -9.54239226E-07
   4.64200020      -9.71317377E-07
   4.64900017      -9.88828560E-07
   4.65600014      -1.00673731E-06
   4.66300011      -1.02500258E-06
   4.67000008      -1.04355843E-06
   4.67700005      -1.06232312E-06
   4.68400002      -1.08122606E-06
   4.69099998      -1.10022711E-06
   4.69799995      -1.11930342E-06
   4.70499992      -1.13842043E-06
   4.71199989      -1.15751084E-06
   4.71899986      -1.17648426E-06
   4.72599983      -1.19526146E-06
   4.73299980      -1.21379628E-06
   4.73999977      -1.23206144E-06
   4.74700022      -1.25002043E-06
   4.75400019      -1.26760847E-06
   4.76100016      -1.28474653E-06
   4.76800013      -1.30137289E-06
   4.77500010      -1.31745446E-06
   4.78200006      -1.33296635E-06
   4.78900003      -1.34785773E-06
   4.79600000      -1.36204244E-06
   4.80299997      -1.37542463E-06
   4.80999994      -1.38793791E-06
   4.81699991      -1.39955148E-06
   4.82399988      -1.41024850E-06
   4.83099985      -1.41998851E-06
   4.83799982      -1.42869953E-06
   4.84499979      -1.43630132E-06
   4.85200024      -1.44273383E-06
   4.85900021      -1.44796570E-06
   4.86600018      -1.45196236E-06
   4.87300014      -1.45466367E-06
   4.88000011      -1.45598221E-06
   4.88700008      -1.45583442E-06
   4.89400005      -1.45417130E-06
   4.90100002      -1.45097886E-06
   4.90799999      -1.44624448E-06
   4.91499996      -1.43992156E-06
   4.92199993      -1.43193120E-06
   4.92899990      -1.42219244E-06
   4.93599987      -1.41065584E-06
   4.94299984      -1.39730071E-06
   4.94999981      -1.38210657E-06
   4.95699978      -1.36502729E-06
   4.96400023      -1.34599793E-06
   4.97100019      -1.32496996E-06
   4.97800016      -1.30193189E-06
   4.98500013      -1.27690225E-06
   4.99200010      -1.24989106E-06