  -1.00000000       0.00000000    
 -0.992999971       3.25841900E-28
 -0.986000001       3.06140986E-26
 -0.978999972       5.52100131E-25
 -0.972000003       4.75930513E-24
 -0.964999974       2.61262465E-23
 -0.958000004       1.04696793E-22
 -0.950999975       3.30816078E-22
 -0.944000006       8.64053663E-22
 -0.936999977       1.92120210E-21
 -0.930000007       3.69754783E-21
 -0.922999978       6.18861759E-21
 -0.916000009       8.90306126E-21
 -0.908999979       1.05054789E-20
 -0.902000010       8.49459721E-21
 -0.894999981      -9.20122311E-22
 -0.888000011      -2.25785071E-20
 -0.880999982      -6.16935276E-20
 -0.874000013      -1.22829070E-19
 -0.866999984      -2.08742659E-19
 -0.860000014      -3.19232883E-19
 -0.852999985      -4.49821024E-19
 -0.846000016      -5.89739607E-19
 -0.838999987      -7.18723017E-19
 -0.832000017      -8.02903379E-19
 -0.824999988      -7.91735613E-19
 -0.818000019      -6.19661159E-19
 -0.810999990      -2.16955309E-19
 -0.804000020       4.67355288E-19
 -0.796999991       1.43203007E-18
 -0.790000021       2.58751856E-18
 -0.782999992       3.73119461E-18
 -0.776000023       4.55028705E-18
 -0.768999994       4.66481806E-18
 -0.762000024       3.71154576E-18
 -0.754999995       1.45405396E-18
 -0.748000026      -2.11028891E-18
 -0.740999997      -6.68110183E-18
 -0.734000027      -1.16491167E-17
 -0.726999998      -1.61564504E-17
 -0.720000029      -1.91974492E-17
 -0.713000000      -1.97143428E-17
 -0.705999970      -1.66432776E-17
 -0.699000001      -8.89432406E-18
 -0.691999972       4.70383659E-18
 -0.685000002       2.54184281E-17
 -0.677999973       5.44924816E-17
 -0.671000004       9.28259106E-17
 -0.663999975       1.40471097E-16
 -0.657000005       1.96057886E-16
 -0.649999976       2.56344569E-16
 -0.643000007       3.16105073E-16
 -0.635999978       3.68481937E-16
 -0.629000008       4.05769942E-16
 -0.621999979       4.20408419E-16
 -0.615000010       4.05835587E-16
 -0.607999980       3.56880445E-16
 -0.601000011       2.69564794E-16
 -0.593999982       1.40511503E-16
 -0.587000012      -3.35202337E-17
 -0.579999983      -2.55292025E-16
 -0.573000014      -5.25389656E-16
 -0.565999985      -8.39085343E-16
 -0.559000015      -1.18234619E-15
 -0.551999986      -1.52822415E-15
 -0.545000017      -1.83520954E-15
 -0.537999988      -2.04893776E-15
 -0.531000018      -2.10788511E-15
 -0.523999989      -1.95251936E-15
 -0.517000020      -1.53621548E-15
 -0.509999990      -8.35469518E-16
 -0.503000021       1.43029282E-16
 -0.495999992       1.36010950E-15
 -0.488999993       2.74686877E-15
 -0.481999993       4.21131102E-15
 -0.474999994       5.64682180E-15
 -0.467999995       6.94044990E-15
 -0.460999995       7.97985250E-15
 -0.453999996       8.65915768E-15
 -0.446999997       8.88510880E-15
 -0.439999998       8.58516681E-15
 -0.432999998       7.71820487E-15
 -0.425999999       6.28655148E-15
 -0.419000000       4.34597486E-15
 -0.412000000       2.00898893E-15
 -0.405000001      -5.62577049E-16
 -0.398000002      -3.17716765E-15
 -0.391000003      -5.64260400E-15
 -0.384000003      -7.79792168E-15
 -0.377000004      -9.53869043E-15
 -0.370000005      -1.08271029E-14
 -0.363000005      -1.16819667E-14
 -0.356000006      -1.21500524E-14
 -0.349000007      -1.22668607E-14
 -0.342000008      -1.20194907E-14
 -0.335000008      -1.13247560E-14
 -0.328000009      -1.00316602E-14
 -0.321000010      -7.94975488E-15
 -0.314000010      -4.89634553E-15
 -0.307000011      -7.49237858E-16
 -0.300000012       4.51002862E-15
 -0.293000013       1.07738135E-14
 -0.286000013       1.78105703E-14
 -0.279000014       2.52865999E-14
 -0.272000015       3.27963398E-14
 -0.264999986       3.98894479E-14
 -0.257999986       4.60878047E-14
 -0.250999987       5.08942355E-14
 -0.244000003       5.38032923E-14
 -0.237000003       5.43281511E-14
 -0.230000004       5.20544741E-14
 -0.223000005       4.67216699E-14
 -0.216000006       3.83174192E-14
 -0.209000006       2.71590594E-14
 -0.202000007       1.39302132E-14
 -0.194999993      -3.52578814E-16
 -0.187999994      -1.44514951E-14
 -0.180999994      -2.70821590E-14
 -0.173999995      -3.71143613E-14
 -0.166999996      -4.37494652E-14
 -0.159999996      -4.66277509E-14
 -0.152999997      -4.58375369E-14
 -0.145999998      -4.18265920E-14
 -0.138999999      -3.52465317E-14
 -0.131999999      -2.67815318E-14
 -0.125000000      -1.70165294E-14
 -0.118000001      -6.38470693E-15
 -0.111000001       4.79560874E-15
 -0.104000002       1.62181043E-14
  -9.70000029E-02   2.74687364E-14
  -9.00000036E-02   3.79455920E-14
  -8.29999968E-02   4.68613084E-14
  -7.59999976E-02   5.33399618E-14
  -6.89999983E-02   5.65841726E-14
  -6.19999990E-02   5.60596017E-14
  -5.49999997E-02   5.16351047E-14
  -4.80000004E-02   4.36317987E-14
  -4.10000011E-02   3.27683810E-14
  -3.40000018E-02   2.00304945E-14
  -2.70000007E-02   6.52229727E-15
  -1.99999996E-02  -6.63454226E-15
  -1.30000003E-02  -1.83110312E-14
  -6.00000005E-03  -2.72912999E-14
   1.00000005E-03  -3.21554341E-14
   8.00000038E-03  -3.12132488E-14
   1.49999997E-02  -2.25816968E-14
   2.19999999E-02  -4.46272903E-15
   2.89999992E-02   2.43898716E-14
   3.59999985E-02   6.41062182E-14
   4.30000015E-02   1.13192807E-13
   5.00000007E-02   1.68255804E-13
   5.70000000E-02   2.24092039E-13
   6.40000030E-02   2.74196545E-13
   7.10000023E-02   3.11620331E-13
   7.80000016E-02   3.30006909E-13
   8.50000009E-02   3.24576737E-13
   9.20000002E-02   2.92838507E-13
   9.89999995E-02   2.34884215E-13
  0.105999999       1.53248575E-13
  0.112999998       5.24376210E-14
  0.119999997      -6.16837852E-14
  0.127000004      -1.82446303E-13
  0.134000003      -3.02738412E-13
  0.141000003      -4.15162750E-13
  0.148000002      -5.12096062E-13
  0.155000001      -5.85838290E-13
  0.162000000      -6.29030519E-13
  0.169000000      -6.35422433E-13
  0.175999999      -6.00912386E-13
  0.182999998      -5.24624289E-13
  0.189999998      -4.09688424E-13
  0.196999997      -2.63410252E-13
  0.203999996      -9.66477129E-14
  0.210999995       7.75591749E-14
  0.217999995       2.45826498E-13
  0.224999994       3.96288742E-13
  0.231999993       5.20015183E-13
  0.238999993       6.11641271E-13
  0.246000007       6.69129249E-13
  0.252999991       6.92859019E-13
  0.259999990       6.84474558E-13
  0.266999990       6.45976979E-13
  0.273999989       5.79440359E-13
  0.280999988       4.87457459E-13
  0.287999988       3.74099135E-13
  0.294999987       2.45911581E-13
  0.301999986       1.12393039E-13
  0.308999985      -1.44791084E-14
  0.316000015      -1.21780095E-13
  0.323000014      -1.97941815E-13
  0.330000013      -2.35212430E-13
  0.337000012      -2.31520667E-13
  0.344000012      -1.91121939E-13
  0.351000011      -1.23761149E-13
  0.358000010      -4.25641612E-14
  0.365000010       3.87106932E-14
  0.372000009       1.08216821E-13
  0.379000008       1.57601878E-13
  0.386000007       1.82234097E-13
  0.393000007       1.80194875E-13
  0.400000006       1.50637464E-13
  0.407000005       9.23653989E-14
  0.414000005       3.40502120E-15
  0.421000004      -1.18056118E-13
  0.428000003      -2.71580691E-13
  0.435000002      -4.52009984E-13
  0.442000002      -6.47674948E-13
  0.449000001      -8.40258744E-13
  0.456000000      -1.00678840E-12
  0.463000000      -1.12350147E-12
  0.469999999      -1.17061417E-12
  0.476999998      -1.13657922E-12
  0.483999997      -1.02045683E-12
  0.490999997      -8.31546366E-13
  0.497999996      -5.86293438E-13
  0.504999995      -3.03399314E-13
  0.512000024       1.30827849E-15
  0.518999994       3.18564185E-13
  0.526000023       6.46715320E-13
  0.532999992       9.89841889E-13
  0.540000021       1.35370686E-12
  0.546999991       1.74108991E-12
  0.554000020       2.14830475E-12
  0.560999990       2.56429101E-12
  0.568000019       2.97272059E-12
  0.574999988       3.35641692E-12
  0.582000017       3.70246195E-12
  0.588999987       4.00602988E-12
  0.596000016       4.27138967E-12
  0.602999985       4.50953120E-12
  0.610000014       4.73315874E-12
  0.616999984       4.95086741E-12
  0.624000013       5.16273873E-12
  0.630999982       5.35918098E-12
  0.638000011       5.52370302E-12
  0.644999981       5.63875639E-12
  0.652000010       5.69258182E-12
  0.658999979       5.68430329E-12
  0.666000009       5.62502562E-12
  0.672999978       5.53393789E-12
  0.680000007       5.43023525E-12
  0.686999977       5.32332295E-12
  0.694000006       5.20457635E-12
  0.700999975       5.04370113E-12
  0.708000004       4.79127545E-12
  0.714999974       4.38713519E-12
  0.722000003       3.77214362E-12
  0.728999972       2.89965534E-12
  0.736000001       1.74304516E-12
  0.742999971       2.96883232E-13
  0.750000000      -1.42846835E-12
  0.757000029      -3.41685296E-12
  0.763999999      -5.65745627E-12
  0.771000028      -8.15321855E-12
  0.777999997      -1.09241227E-11
  0.785000026      -1.40047184E-11
  0.791999996      -1.74379504E-11
  0.799000025      -2.12686761E-11
  0.805999994      -2.55407379E-11
  0.813000023      -3.03000437E-11
  0.819999993      -3.56039434E-11
  0.827000022      -4.15341407E-11
  0.833999991      -4.82091485E-11
  0.841000021      -5.57913889E-11
  0.847999990      -6.44859097E-11
  0.855000019      -7.45300349E-11
  0.861999989      -8.61768157E-11
  0.869000018      -9.96772664E-11
  0.875999987      -1.15267608E-10
  0.883000016      -1.33166062E-10
  0.889999986      -1.53581051E-10
  0.897000015      -1.76728757E-10
  0.903999984      -2.02855219E-10
  0.911000013      -2.32256991E-10
  0.917999983      -2.65294314E-10
  0.925000012      -3.02394165E-10
  0.931999981      -3.44044376E-10
  0.939000010      -3.90782073E-10
  0.945999980      -4.43183823E-10
  0.953000009      -5.01861386E-10
  0.959999979      -5.67467628E-10
  0.967000008      -6.40711040E-10
  0.973999977      -7.22374605E-10
  0.981000006      -8.13333734E-10
  0.987999976      -9.14566423E-10
  0.995000005      -1.02715203E-09
   1.00199997      -1.15225973E-09
   1.00899994      -1.29113131E-09
   1.01600003      -1.44506618E-09
   1.02300000      -1.61541347E-09
   1.02999997      -1.80357684E-09
   1.03699994      -2.01103267E-09
   1.04400003      -2.23935626E-09
   1.05100000      -2.49024956E-09
   1.05799997      -2.76556045E-09
   1.06500006      -3.06729131E-09
   1.07200003      -3.39759443E-09
   1.07900000      -3.75875109E-09
   1.08599997      -4.15315471E-09
   1.09300005      -4.58329330E-09
   1.10000002      -5.05175013E-09
   1.10699999      -5.56121504E-09
   1.11399996      -6.11451023E-09
   1.12100005      -6.71461997E-09
   1.12800002      -7.36471772E-09
   1.13499999      -8.06817724E-09
   1.14199996      -8.82856988E-09
   1.14900005      -9.64965352E-09
   1.15600002      -1.05353370E-08
   1.16299999      -1.14896626E-08
   1.16999996      -1.25167832E-08
   1.17700005      -1.36209621E-08
   1.18400002      -1.48065844E-08
   1.19099998      -1.60781717E-08
   1.19799995      -1.74403869E-08
   1.20500004      -1.88980440E-08
   1.21200001      -2.04560866E-08
   1.21899998      -2.21195631E-08
   1.22599995      -2.38935591E-08
   1.23300004      -2.57831694E-08
   1.24000001      -2.77934635E-08
   1.24699998      -2.99294669E-08
   1.25399995      -3.21961444E-08
   1.26100004      -3.45984468E-08
   1.26800001      -3.71412945E-08
   1.27499998      -3.98295938E-08
   1.28199995      -4.26682369E-08
   1.28900003      -4.56620484E-08
   1.29600000      -4.88157461E-08
   1.30299997      -5.21338528E-08
   1.30999994      -5.56206494E-08
   1.31700003      -5.92801150E-08
   1.32400000      -6.31158841E-08
   1.33099997      -6.71312534E-08
   1.33800006      -7.13291399E-08
   1.34500003      -7.57120375E-08
   1.35200000      -8.02820139E-08
   1.35899997      -8.50406536E-08
   1.36600006      -8.99889514E-08
   1.37300003      -9.51273051E-08
   1.38000000      -1.00455424E-07
   1.38699996      -1.05972227E-07
   1.39400005      -1.11675810E-07
   1.40100002      -1.17563538E-07
   1.40799999      -1.23631935E-07
   1.41499996      -1.29876724E-07
   1.42200005      -1.36292897E-07
   1.42900002      -1.42874597E-07
   1.43599999      -1.49615090E-07
   1.44299996      -1.56506843E-07
   1.45000005      -1.63541287E-07
   1.45700002      -1.70708972E-07
   1.46399999      -1.77999368E-07
   1.47099996      -1.85400964E-07
   1.47800004      -1.92901268E-07
   1.48500001      -2.00486852E-07
   1.49199998      -2.08143376E-07
   1.49899995      -2.15855636E-07
   1.50600004      -2.23607600E-07
   1.51300001      -2.31382401E-07
   1.51999998      -2.39162404E-07
   1.52699995      -2.46929233E-07
   1.53400004      -2.54663689E-07
   1.54100001      -2.62345878E-07
   1.54799998      -2.69955393E-07
   1.55499995      -2.77471287E-07
   1.56200004      -2.84872129E-07
   1.56900001      -2.92136178E-07
   1.57599998      -2.99241577E-07
   1.58299994      -3.06166157E-07
   1.59000003      -3.12887778E-07
   1.59700000      -3.19384156E-07
   1.60399997      -3.25633096E-07
   1.61099994      -3.31612540E-07
   1.61800003      -3.37300463E-07
   1.62500000      -3.42675150E-07
   1.63199997      -3.47715400E-07
   1.63900006      -3.52400463E-07
   1.64600003      -3.56710302E-07
   1.65300000      -3.60625506E-07
   1.65999997      -3.64127629E-07
   1.66700006      -3.67198965E-07
   1.67400002      -3.69822885E-07
   1.68099999      -3.71983560E-07
   1.68799996      -3.73666126E-07
   1.69500005      -3.74856910E-07
   1.70200002      -3.75543181E-07
   1.70899999      -3.75713483E-07
   1.71599996      -3.75357672E-07
   1.72300005      -3.74466907E-07
   1.73000002      -3.73033657E-07
   1.73699999      -3.71051726E-07
   1.74399996      -3.68516083E-07
   1.75100005      -3.65423176E-07
   1.75800002      -3.61770532E-07
   1.76499999      -3.57556956E-07
   1.77199996      -3.52782422E-07
   1.77900004      -3.47448122E-07
   1.78600001      -3.41556358E-07
   1.79299998      -3.35110684E-07
   1.79999995      -3.28115931E-07
   1.80700004      -3.20577868E-07
   1.81400001      -3.12503403E-07
   1.82099998      -3.03900265E-07
   1.82799995      -2.94777152E-07
   1.83500004      -2.85143642E-07
   1.84200001      -2.75010080E-07
   1.84899998      -2.64387722E-07
   1.85599995      -2.53288334E-07
   1.86300004      -2.41724678E-07
   1.87000000      -2.29710125E-07
   1.87699997      -2.17258631E-07
   1.88399994      -2.04384818E-07
   1.89100003      -1.91103794E-07
   1.89800000      -1.77431176E-07
   1.90499997      -1.63382978E-07
   1.91199994      -1.48975715E-07
   1.91900003      -1.34226312E-07
   1.92600000      -1.19152226E-07
   1.93299997      -1.03771249E-07
   1.94000006      -8.81017144E-08
   1.94700003      -7.21622513E-08
   1.95400000      -5.59718529E-08
   1.96099997      -3.95498425E-08
   1.96800005      -2.29159411E-08
   1.97500002      -6.09015816E-09
   1.98199999       1.09071498E-08
   1.98899996       2.80552381E-08
   1.99600005       4.53330138E-08
   2.00300002       6.27190246E-08
   2.00999999       8.01915050E-08
   2.01699996       9.77284316E-08
   2.02399993       1.15307472E-07
   2.03099990       1.32906095E-07
   2.03800011       1.50501535E-07
   2.04500008       1.68070741E-07
   2.05200005       1.85590423E-07
   2.05900002       2.03037089E-07
   2.06599998       2.20387037E-07
   2.07299995       2.37616490E-07
   2.07999992       2.54701803E-07
   2.08699989       2.71619427E-07
   2.09400010       2.88346058E-07
   2.10100007       3.04858787E-07
   2.10800004       3.21135190E-07
   2.11500001       3.37153210E-07
   2.12199998       3.52891533E-07
   2.12899995       3.68329410E-07
   2.13599992       3.83446888E-07
   2.14299989       3.98224927E-07
   2.15000010       4.12645619E-07
   2.15700006       4.26692452E-07
   2.16400003       4.40350078E-07
   2.17100000       4.53604912E-07
   2.17799997       4.66444789E-07
   2.18499994       4.78859306E-07
   2.19199991       4.90839739E-07
   2.19899988       5.02379237E-07
   2.20600009       5.13472799E-07
   2.21300006       5.24117411E-07
   2.22000003       5.34312221E-07
   2.22700000       5.44058764E-07
   2.23399997       5.53360678E-07
   2.24099994       5.62224159E-07
   2.24799991       5.70657562E-07
   2.25500011       5.78671575E-07
   2.26200008       5.86279043E-07
   2.26900005       5.93494633E-07
   2.27600002       6.00335454E-07
   2.28299999       6.06820208E-07
   2.28999996       6.12969586E-07
   2.29699993       6.18806155E-07
   2.30399990       6.24353959E-07
   2.31100011       6.29638748E-07
   2.31800008       6.34687240E-07
   2.32500005       6.39527400E-07
   2.33200002       6.44187708E-07
   2.33899999       6.48696982E-07
   2.34599996       6.53084271E-07
   2.35299993       6.57378393E-07
   2.35999990       6.61607714E-07
   2.36700010       6.65799860E-07
   2.37400007       6.69981489E-07
   2.38100004       6.74177727E-07
   2.38800001       6.78412107E-07
   2.39499998       6.82705831E-07
   2.40199995       6.87077716E-07
   2.40899992       6.91543676E-07
   2.41599989       6.96116388E-07
   2.42300010       7.00804947E-07
   2.43000007       7.05614639E-07
   2.43700004       7.10546487E-07
   2.44400001       7.15597196E-07
   2.45099998       7.20758749E-07
   2.45799994       7.26018072E-07
   2.46499991       7.31356863E-07
   2.47199988       7.36751474E-07
   2.47900009       7.42172631E-07
   2.48600006       7.47585091E-07
   2.49300003       7.52947869E-07
   2.50000000       7.58214128E-07
   2.50699997       7.63331002E-07
   2.51399994       7.68239431E-07
   2.52099991       7.72874387E-07
   2.52800012       7.77164928E-07
   2.53500009       7.81034316E-07
   2.54200006       7.84399958E-07
   2.54900002       7.87174088E-07
   2.55599999       7.89263538E-07
   2.56299996       7.90570311E-07
   2.56999993       7.90991635E-07
   2.57699990       7.90420586E-07
   2.58400011       7.88746547E-07
   2.59100008       7.85854979E-07
   2.59800005       7.81628387E-07
   2.60500002       7.75946660E-07
   2.61199999       7.68687187E-07
   2.61899996       7.59726447E-07
   2.62599993       7.48939783E-07
   2.63299990       7.36202367E-07
   2.64000010       7.21389313E-07
   2.64700007       7.04377044E-07
   2.65400004       6.85043005E-07
   2.66100001       6.63266974E-07
   2.66799998       6.38931226E-07
   2.67499995       6.11921450E-07
   2.68199992       5.82127143E-07
   2.68899989       5.49442348E-07
   2.69600010       5.13766281E-07
   2.70300007       4.75004327E-07
   2.71000004       4.33068237E-07
   2.71700001       3.87876810E-07
   2.72399998       3.39355893E-07
   2.73099995       2.87439036E-07
   2.73799992       2.32068018E-07
   2.74499989       1.73193442E-07
   2.75200009       1.10775211E-07
   2.75900006       4.47828583E-08
   2.76600003      -2.48041658E-08
   2.77300000      -9.79961499E-08
   2.77999997      -1.74792845E-07
   2.78699994      -2.55183153E-07
   2.79399991      -3.39145089E-07
   2.80100012      -4.26646039E-07
   2.80800009      -5.17642661E-07
   2.81500006      -6.12081124E-07
   2.82200003      -7.09896710E-07
   2.82900000      -8.11013649E-07
   2.83599997      -9.15345368E-07
   2.84299994      -1.02279478E-06
   2.84999990      -1.13325405E-06
   2.85700011      -1.24660608E-06
   2.86400008      -1.36272365E-06
   2.87100005      -1.48147046E-06
   2.87800002      -1.60270122E-06
   2.88499999      -1.72626255E-06
   2.89199996      -1.85199315E-06
   2.89899993      -1.97972395E-06
   2.90599990      -2.10927942E-06
   2.91300011      -2.24047562E-06
   2.92000008      -2.37312315E-06
   2.92700005      -2.50702578E-06
   2.93400002      -2.64198320E-06
   2.94099998      -2.77779009E-06
   2.94799995      -2.91423794E-06
   2.95499992      -3.05111416E-06
   2.96199989      -3.18820435E-06
   2.96900010      -3.32529225E-06
   2.97600007      -3.46216007E-06
   2.98300004      -3.59858836E-06
   2.99000001      -3.73435773E-06
   2.99699998      -3.86924876E-06
   3.00399995      -4.00304134E-06
   3.01099992      -4.13551788E-06
   3.01799989      -4.26646284E-06
   3.02500010      -4.39566247E-06
   3.03200006      -4.52290760E-06
   3.03900003      -4.64799086E-06
   3.04600000      -4.77071080E-06
   3.05299997      -4.89086869E-06
   3.05999994      -5.00827173E-06
   3.06699991      -5.12273027E-06
   3.07399988      -5.23406152E-06
   3.08100009      -5.34208721E-06
   3.08800006      -5.44663590E-06
   3.09500003      -5.54754342E-06
   3.10200000      -5.64465336E-06
   3.10899997      -5.73781608E-06
   3.11599994      -5.82688835E-06
   3.12299991      -5.91173784E-06
   3.13000011      -5.99223677E-06
   3.13700008      -6.06826825E-06
   3.14400005      -6.13972134E-06
   3.15100002      -6.20649325E-06
   3.15799999      -6.26849123E-06
   3.16499996      -6.32563069E-06
   3.17199993      -6.37783614E-06
   3.17899990      -6.42504256E-06
   3.18600011      -6.46719172E-06
   3.19300008      -6.50423726E-06
   3.20000005      -6.53614006E-06
   3.20700002      -6.56287102E-06
   3.21399999      -6.58441013E-06
   3.22099996      -6.60074602E-06
   3.22799993      -6.61187551E-06
   3.23499990      -6.61780768E-06
   3.24200010      -6.61855665E-06
   3.24900007      -6.61414833E-06
   3.25600004      -6.60461728E-06
   3.26300001      -6.59000534E-06
   3.26999998      -6.57036526E-06
   3.27699995      -6.54575570E-06
   3.28399992      -6.51624441E-06
   3.29099989      -6.48190780E-06
   3.29800010      -6.44283000E-06
   3.30500007      -6.39910058E-06
   3.31200004      -6.35081824E-06
   3.31900001      -6.29808892E-06
   3.32599998      -6.24102631E-06
   3.33299994      -6.17975184E-06
   3.33999991      -6.11439100E-06
   3.34699988      -6.04507886E-06
   3.35400009      -5.97195458E-06
   3.36100006      -5.89516276E-06
   3.36800003      -5.81485438E-06
   3.37500000      -5.73118450E-06
   3.38199997      -5.64431184E-06
   3.38899994      -5.55439874E-06
   3.39599991      -5.46161255E-06
   3.40300012      -5.36612470E-06
   3.41000009      -5.26811164E-06
   3.41700006      -5.16775071E-06
   3.42400002      -5.06522201E-06
   3.43099999      -4.96070788E-06
   3.43799996      -4.85439341E-06
   3.44499993      -4.74646367E-06
   3.45199990      -4.63710649E-06
   3.45900011      -4.52650693E-06
   3.46600008      -4.41485327E-06
   3.47300005      -4.30233331E-06
   3.48000002      -4.18913487E-06
   3.48699999      -4.07544576E-06
   3.49399996      -3.96145288E-06
   3.50099993      -3.84734039E-06
   3.50799990      -3.73329090E-06
   3.51500010      -3.61948469E-06
   3.52200007      -3.50609980E-06
   3.52900004      -3.39331064E-06
   3.53600001      -3.28128931E-06
   3.54299998      -3.17020408E-06
   3.54999995      -3.06022048E-06
   3.55699992      -2.95150153E-06
   3.56399989      -2.84420526E-06
   3.57100010      -2.73848741E-06
   3.57800007      -2.63449738E-06
   3.58500004      -2.53237886E-06
   3.59200001      -2.43227078E-06
   3.59899998      -2.33430842E-06
   3.60599995      -2.23862071E-06
   3.61299992      -2.14533202E-06
   3.61999989      -2.05456081E-06
   3.62700009      -1.96641918E-06
   3.63400006      -1.88101478E-06
   3.64100003      -1.79845028E-06
   3.64800000      -1.71882084E-06
   3.65499997      -1.64221558E-06
   3.66199994      -1.56871681E-06
   3.66899991      -1.49840002E-06
   3.67600012      -1.43133559E-06
   3.68300009      -1.36758797E-06
   3.69000006      -1.30721617E-06
   3.69700003      -1.25027202E-06
   3.70400000      -1.19680055E-06
   3.71099997      -1.14684053E-06
   3.71799994      -1.10042458E-06
   3.72499990      -1.05757886E-06
   3.73200011      -1.01832325E-06
   3.73900008      -9.82669462E-07
   3.74600005      -9.50622791E-07
   3.75300002      -9.22182551E-07
   3.75999999      -8.97342545E-07
   3.76699996      -8.76091235E-07
   3.77399993      -8.58410942E-07
   3.78099990      -8.44276883E-07
   3.78800011      -8.33657793E-07
   3.79500008      -8.26516384E-07
   3.80200005      -8.22810193E-07
   3.80900002      -8.22490676E-07
   3.81599998      -8.25502980E-07
   3.82299995      -8.31785314E-07
   3.82999992      -8.41270435E-07
   3.83699989      -8.53885695E-07
   3.84400010      -8.69554412E-07
   3.85100007      -8.88194506E-07
   3.85800004      -9.09718381E-07
   3.86500001      -9.34032641E-07
   3.87199998      -9.61038722E-07
   3.87899995      -9.90634021E-07
   3.88599992      -1.02271235E-06
   3.89299989      -1.05716333E-06
   3.90000010      -1.09387190E-06
   3.90700006      -1.13271847E-06
   3.91400003      -1.17357979E-06
   3.92100000      -1.21633002E-06
   3.92799997      -1.26084092E-06
   3.93499994      -1.30698083E-06
   3.94199991      -1.35461505E-06
   3.94899988      -1.40360532E-06
   3.95600009      -1.45381239E-06
   3.96300006      -1.50509538E-06
   3.97000003      -1.55731300E-06
   3.97700000      -1.61032278E-06
   3.98399997      -1.66398104E-06
   3.99099994      -1.71814315E-06
   3.99799991      -1.77266520E-06
   4.00500011      -1.82740484E-06
   4.01200008      -1.88222145E-06
   4.01900005      -1.93697588E-06
   4.02600002      -1.99152919E-06
   4.03299999      -2.04574644E-06
   4.03999996      -2.09949417E-06
   4.04699993      -2.15264299E-06
   4.05399990      -2.20506786E-06
   4.06099987      -2.25664621E-06
   4.06799984      -2.30725936E-06
   4.07499981      -2.35679340E-06
   4.08199978      -2.40514078E-06
   4.08900023      -2.45220008E-06
   4.09600019      -2.49787718E-06
   4.10300016      -2.54208294E-06
   4.11000013      -2.58473574E-06
   4.11700010      -2.62576032E-06
   4.12400007      -2.66508960E-06
   4.13100004      -2.70266423E-06
   4.13800001      -2.73843375E-06
   4.14499998      -2.77235517E-06
   4.15199995      -2.80439372E-06
   4.15899992      -2.83452368E-06
   4.16599989      -2.86272871E-06
   4.17299986      -2.88900196E-06
   4.17999983      -2.91334550E-06
   4.18699980      -2.93576932E-06
   4.19399977      -2.95629206E-06
   4.20100021      -2.97493989E-06
   4.20800018      -2.99174962E-06
   4.21500015      -3.00676720E-06
   4.22200012      -3.02004719E-06
   4.22900009      -3.03165052E-06
   4.23600006      -3.04164791E-06
   4.24300003      -3.05011577E-06
   4.25000000      -3.05713797E-06
   4.25699997      -3.06280617E-06
   4.26399994      -3.06721722E-06
   4.27099991      -3.07047389E-06
   4.27799988      -3.07268351E-06
   4.28499985      -3.07395840E-06
   4.29199982      -3.07441587E-06
   4.29899979      -3.07417781E-06
   4.30600023      -3.07336722E-06
   4.31300020      -3.07210826E-06
   4.32000017      -3.07052733E-06
   4.32700014      -3.06875017E-06
   4.33400011      -3.06690413E-06
   4.34100008      -3.06511583E-06
   4.34800005      -3.06350989E-06
   4.35500002      -3.06221045E-06
   4.36199999      -3.06133666E-06
   4.36899996      -3.06100628E-06
   4.37599993      -3.06133256E-06
   4.38299990      -3.06242373E-06
   4.38999987      -3.06438255E-06
   4.39699984      -3.06730476E-06
   4.40399981      -3.07128039E-06
   4.41099977      -3.07639334E-06
   4.41800022      -3.08272183E-06
   4.42500019      -3.09033658E-06
   4.43200016      -3.09930033E-06
   4.43900013      -3.10966720E-06
   4.44600010      -3.12148177E-06
   4.45300007      -3.13478040E-06
   4.46000004      -3.14959061E-06
   4.46700001      -3.16593150E-06
   4.47399998      -3.18381262E-06
   4.48099995      -3.20323579E-06
   4.48799992      -3.22419396E-06
   4.49499989      -3.24667326E-06
   4.50199986      -3.27065231E-06
   4.50899982      -3.29610134E-06
   4.51599979      -3.32298305E-06
   4.52299976      -3.35125310E-06
   4.53000021      -3.38085920E-06
   4.53700018      -3.41174427E-06
   4.54400015      -3.44384625E-06
   4.55100012      -3.47709920E-06
   4.55800009      -3.51143217E-06
   4.56500006      -3.54677059E-06
   4.57200003      -3.58303782E-06
   4.57900000      -3.62015362E-06
   4.58599997      -3.65803703E-06
   4.59299994      -3.69660438E-06
   4.59999990      -3.73577245E-06
   4.60699987      -3.77545712E-06
   4.61399984      -3.81557538E-06
   4.62099981      -3.85604699E-06
   4.62799978      -3.89679417E-06
   4.63500023      -3.93774280E-06
   4.64200020      -3.97882150E-06
   4.64900017      -4.01996294E-06
   4.65600014      -4.06110303E-06
   4.66300011      -4.10218399E-06
   4.67000008      -4.14315127E-06
   4.67700005      -4.18395575E-06
   4.68400002      -4.22455469E-06
   4.69099998      -4.26490942E-06
   4.69799995      -4.30498949E-06
   4.70499992      -4.34476897E-06
   4.71199989      -4.38423012E-06
   4.71899986      -4.42335886E-06
   4.72599983      -4.46214881E-06
   4.73299980      -4.50059861E-06
   4.73999977      -4.53871098E-06
   4.74700022      -4.57649594E-06
   4.75400019      -4.61396849E-06
   4.76100016      -4.65114772E-06
   4.76800013      -4.68805865E-06
   4.77500010      -4.72472857E-06
   4.78200006      -4.76119067E-06
   4.78900003      -4.79747723E-06
   4.79600000      -4.83362555E-06
   4.80299997      -4.86967383E-06
   4.80999994      -4.90566026E-06
   4.81699991      -4.94162441E-06
   4.82399988      -4.97760630E-06
   4.83099985      -5.01364457E-06
   4.83799982      -5.04977925E-06
   4.84499979      -5.08604717E-06
   4.85200024      -5.12248380E-06
   4.85900021      -5.15912097E-06
   4.86600018      -5.19598734E-06
   4.87300014      -5.23310655E-06
   4.88000011      -5.27049770E-06
   4.88700008      -5.30817715E-06
   4.89400005      -5.34615401E-06
   4.90100002      -5.38443146E-06
   4.90799999      -5.42300813E-06
   4.91499996      -5.46187675E-06
   4.92199993      -5.50102095E-06
   4.92899990      -5.54041844E-06
   4.93599987      -5.58003876E-06
   4.94299984      -5.61984507E-06
   4.94999981      -5.65979144E-06
   4.95699978      -5.69982740E-06
   4.96400023      -5.73989519E-06
   4.97100019      -5.77992978E-06
   4.97800016      -5.81986160E-06
   4.98500013      -5.85961470E-06
   4.99200010      -5.89910678E-06