  -1.00000000       0.00000000    
 -0.992999971       0.00000000    
 -0.986000001      -6.94165138E-34
 -0.978999972      -6.75951628E-32
 -0.972000003      -1.70671774E-30
 -0.964999974      -2.15911432E-29
 -0.958000004      -1.75773920E-28
 -0.950999975      -1.04804283E-27
 -0.944000006      -4.94328670E-27
 -0.936999977      -1.93728091E-26
 -0.930000007      -6.51230069E-26
 -0.922999978      -1.91579641E-25
 -0.916000009      -4.98901274E-25
 -0.908999979      -1.15548667E-24
 -0.902000010      -2.37626007E-24
 -0.894999981      -4.29775287E-24
 -0.888000011      -6.67366071E-24
 -0.880999982      -8.36297162E-24
 -0.874000013      -6.73211293E-24
 -0.866999984       2.67045470E-24
 -0.860000014       2.56026842E-23
 -0.852999985       6.72624397E-23
 -0.846000016       1.29064081E-22
 -0.838999987       2.05043667E-22
 -0.832000017       2.79928441E-22
 -0.824999988       3.31197836E-22
 -0.818000019       3.36127321E-22
 -0.810999990       2.81613094E-22
 -0.804000020       1.70635663E-22
 -0.796999991       1.71338964E-23
 -0.790000021      -1.75989213E-22
 -0.782999992      -4.51276098E-22
 -0.776000023      -9.24646561E-22
 -0.768999994      -1.77594971E-21
 -0.762000024      -3.17226451E-21
 -0.754999995      -5.11710083E-21
 -0.748000026      -7.26365310E-21
 -0.740999997      -8.78243021E-21
 -0.734000027      -8.40416068E-21
 -0.726999998      -4.73532911E-21
 -0.720000029       3.15126470E-21
 -0.713000000       1.49978976E-20
 -0.705999970       2.88073468E-20
 -0.699000001       4.07992782E-20
 -0.691999972       4.61153224E-20
 -0.685000002       4.02249046E-20
 -0.677999973       2.06069334E-20
 -0.671000004      -1.20100227E-20
 -0.663999975      -5.35733637E-20
 -0.657000005      -9.81230529E-20
 -0.649999976      -1.40286730E-19
 -0.643000007      -1.77658556E-19
 -0.635999978      -2.11481571E-19
 -0.629000008      -2.44458909E-19
 -0.621999979      -2.75808615E-19
 -0.615000010      -2.95466278E-19
 -0.607999980      -2.80793464E-19
 -0.601000011      -1.99275823E-19
 -0.593999982      -1.88487707E-20
 -0.587000012       2.76121522E-19
 -0.579999983       6.69276125E-19
 -0.573000014       1.10571993E-18
 -0.565999985       1.50203840E-18
 -0.559000015       1.77489116E-18
 -0.551999986       1.88137060E-18
 -0.545000017       1.85546951E-18
 -0.537999988       1.82064996E-18
 -0.531000018       1.96236358E-18
 -0.523999989       2.45740781E-18
 -0.517000020       3.37588807E-18
 -0.509999990       4.58920548E-18
 -0.503000021       5.72530124E-18
 -0.495999992       6.20413377E-18
 -0.488999993       5.36169415E-18
 -0.481999993       2.63708674E-18
 -0.474999994      -2.23250547E-18
 -0.467999995      -9.07566769E-18
 -0.460999995      -1.72609433E-17
 -0.453999996      -2.57935131E-17
 -0.446999997      -3.34977178E-17
 -0.439999998      -3.92122157E-17
 -0.432999998      -4.19205572E-17
 -0.425999999      -4.07756863E-17
 -0.419000000      -3.50409424E-17
 -0.412000000      -2.40336748E-17
 -0.405000001      -7.18480064E-18
 -0.398000002       1.57059248E-17
 -0.391000003       4.40337622E-17
 -0.384000003       7.59097031E-17
 -0.377000004       1.07871274E-16
 -0.370000005       1.35027269E-16
 -0.363000005       1.51775546E-16
 -0.356000006       1.53030385E-16
 -0.349000007       1.35662636E-16
 -0.342000008       9.96919332E-17
 -0.335000008       4.87635015E-17
 -0.328000009      -1.03724354E-17
 -0.321000010      -6.93244653E-17
 -0.314000010      -1.20049146E-16
 -0.307000011      -1.56706826E-16
 -0.300000012      -1.76732339E-16
 -0.293000013      -1.80752185E-16
 -0.286000013      -1.71451605E-16
 -0.279000014      -1.51960358E-16
 -0.272000015      -1.24573016E-16
 -0.264999986      -9.04989986E-17
 -0.257999986      -5.08545247E-17
 -0.250999987      -8.44138229E-18
 -0.244000003       3.06977082E-17
 -0.237000003       5.71062135E-17
 -0.230000004       5.98727290E-17
 -0.223000005       3.05849039E-17
 -0.216000006      -3.18954491E-17
 -0.209000006      -1.17742927E-16
 -0.202000007      -2.05502171E-16
 -0.194999993      -2.65560923E-16
 -0.187999994      -2.67411425E-16
 -0.180999994      -1.88761411E-16
 -0.173999995      -2.35133253E-17
 -0.166999996       2.14346478E-16
 -0.159999996       4.92687143E-16
 -0.152999997       7.68679806E-16
 -0.145999998       9.99316448E-16
 -0.138999999       1.15127363E-15
 -0.131999999       1.20655598E-15
 -0.125000000       1.16203476E-15
 -0.118000001       1.02360639E-15
 -0.111000001       7.98153482E-16
 -0.104000002       4.87704789E-16
  -9.70000029E-02   8.94623361E-17
  -9.00000036E-02  -3.97185184E-16
  -8.29999968E-02  -9.58975657E-16
  -7.59999976E-02  -1.55759375E-15
  -6.89999983E-02  -2.12509703E-15
  -6.19999990E-02  -2.57034181E-15
  -5.49999997E-02  -2.79685345E-15
  -4.80000004E-02  -2.72779761E-15
  -4.10000011E-02  -2.33006101E-15
  -3.40000018E-02  -1.62859777E-15
  -2.70000007E-02  -7.04862702E-16
  -1.99999996E-02   3.21399770E-16
  -1.30000003E-02   1.32146658E-15
  -6.00000005E-03   2.18792972E-15
   1.00000005E-03   2.85498723E-15
   8.00000038E-03   3.30130032E-15
   1.49999997E-02   3.53483006E-15
   2.19999999E-02   3.56664398E-15
   2.89999992E-02   3.38589160E-15
   3.59999985E-02   2.94862482E-15
   4.30000015E-02   2.18824609E-15
   5.00000007E-02   1.04669513E-15
   5.70000000E-02  -4.83759839E-16
   6.40000030E-02  -2.32428827E-15
   7.10000023E-02  -4.29507029E-15
   7.80000016E-02  -6.13248932E-15
   8.50000009E-02  -7.53681361E-15
   9.20000002E-02  -8.23776557E-15
   9.89999995E-02  -8.05780325E-15
  0.105999999      -6.95250488E-15
  0.112999998      -5.01473617E-15
  0.119999997      -2.44188248E-15
  0.127000004       5.21168096E-16
  0.134000003       3.64170338E-15
  0.141000003       6.73908349E-15
  0.148000002       9.69035846E-15
  0.155000001       1.24011654E-14
  0.162000000       1.47563236E-14
  0.169000000       1.65743900E-14
  0.175999999       1.75909431E-14
  0.182999998       1.74858771E-14
  0.189999998       1.59533472E-14
  0.196999997       1.27952941E-14
  0.203999996       8.00765043E-15
  0.210999995       1.82730862E-15
  0.217999995      -5.28107255E-15
  0.224999994      -1.26994125E-14
  0.231999993      -1.97709721E-14
  0.238999993      -2.59192844E-14
  0.246000007      -3.07320121E-14
  0.252999991      -3.39823350E-14
  0.259999990      -3.55832409E-14
  0.266999990      -3.54966639E-14
  0.273999989      -3.36390597E-14
  0.280999988      -2.98302405E-14
  0.287999988      -2.38190933E-14
  0.294999987      -1.53920269E-14
  0.301999986      -4.53615832E-15
  0.308999985       8.39788783E-15
  0.316000015       2.25984257E-14
  0.323000014       3.68119875E-14
  0.330000013       4.94969632E-14
  0.337000012       5.90852101E-14
  0.344000012       6.42858569E-14
  0.351000011       6.43460640E-14
  0.358000010       5.91918211E-14
  0.365000010       4.94077029E-14
  0.372000009       3.60662800E-14
  0.379000008       2.04676686E-14
  0.386000007       3.87924149E-15
  0.393000007      -1.26375545E-14
  0.400000006      -2.82622843E-14
  0.407000005      -4.23186199E-14
  0.414000005      -5.41083969E-14
  0.421000004      -6.27738624E-14
  0.428000003      -6.72812636E-14
  0.435000002      -6.65749262E-14
  0.442000002      -5.98809942E-14
  0.449000001      -4.70690652E-14
  0.456000000      -2.89376169E-14
  0.463000000      -7.29341192E-15
  0.469999999       1.52483278E-14
  0.476999998       3.57253933E-14
  0.483999997       5.14386541E-14
  0.490999997       6.05339550E-14
  0.497999996       6.23737512E-14
  0.504999995       5.75756551E-14
  0.512000024       4.77029135E-14
  0.518999994       3.47109223E-14
  0.526000023       2.03415132E-14
  0.532999992       5.67861560E-15
  0.540000021      -8.97761327E-15
  0.546999991      -2.38778520E-14
  0.554000020      -3.93292576E-14
  0.560999990      -5.51436135E-14
  0.568000019      -7.02656249E-14
  0.574999988      -8.27619697E-14
  0.582000017      -9.02207183E-14
  0.588999987      -9.04503320E-14
  0.596000016      -8.22382391E-14
  0.602999985      -6.58822836E-14
  0.610000014      -4.32684995E-14
  0.616999984      -1.74209707E-14
  0.624000013       8.35661953E-15
  0.630999982       3.14637334E-14
  0.638000011       5.07551595E-14
  0.644999981       6.67655493E-14
  0.652000010       8.12838159E-14
  0.658999979       9.63905808E-14
  0.666000009       1.13285818E-13
  0.672999978       1.31343260E-13
  0.680000007       1.47784657E-13
  0.686999977       1.58172791E-13
  0.694000006       1.57638402E-13
  0.700999975       1.42477718E-13
  0.708000004       1.11589848E-13
  0.714999974       6.72336332E-14
  0.722000003       1.47857648E-14
  0.728999972      -3.84893838E-14
  0.736000001      -8.52978170E-14
  0.742999971      -1.20201903E-13
  0.750000000      -1.40896612E-13
  0.757000029      -1.48432278E-13
  0.763999999      -1.46306673E-13
  0.771000028      -1.38763770E-13
  0.777999997      -1.28946875E-13
  0.785000026      -1.17635394E-13
  0.791999996      -1.03101216E-13
  0.799000025      -8.22069260E-14
  0.805999994      -5.23753302E-14
  0.813000023      -1.36736156E-14
  0.819999993       2.98678894E-14
  0.827000022       7.03726763E-14
  0.833999991       9.78490902E-14
  0.841000021       1.03105702E-13
  0.847999990       8.09184940E-14
  0.855000019       3.23211611E-14
  0.861999989      -3.48974491E-14
  0.869000018      -1.07831739E-13
  0.875999987      -1.71828453E-13
  0.883000016      -2.14528224E-13
  0.889999986      -2.29214786E-13
  0.897000015      -2.16288183E-13
  0.903999984      -1.82310222E-13
  0.911000013      -1.36947189E-13
  0.917999983      -8.89351323E-14
  0.925000012      -4.26113070E-14
  0.931999981       3.59448341E-15
  0.939000010       5.60114936E-14
  0.945999980       1.22236029E-13
  0.953000009       2.06565776E-13
  0.959999979       3.06159503E-13
  0.967000008       4.09589246E-13
  0.973999977       4.98663990E-13
  0.981000006       5.53215405E-13
  0.987999976       5.57374784E-13
  0.995000005       5.05180695E-13
   1.00199997       4.03433580E-13
   1.00899994       2.70576205E-13
   1.01600003       1.31750242E-13
   1.02300000       1.15772675E-14
   1.02999997      -7.28946864E-14
   1.03699994      -1.16602976E-13
   1.04400003      -1.26651321E-13
   1.05100000      -1.18186345E-13
   1.05799997      -1.07500963E-13
   1.06500006      -1.04984536E-13
   1.07200003      -1.10679830E-13
   1.07900000      -1.14297772E-13
   1.08599997      -9.98814340E-14
   1.09300005      -5.34967171E-14
   1.10000002       2.89580947E-14
   1.10699999       1.36969063E-13
   1.11399996       2.45842653E-13
   1.12100005       3.22709524E-13
   1.12800002       3.36360632E-13
   1.13499999       2.67628638E-13
   1.14199996       1.16619117E-13
   1.14900005      -9.59588650E-14
   1.15600002      -3.34108202E-13
   1.16299999      -5.56880930E-13
   1.16999996      -7.30242906E-13
   1.17700005      -8.36318373E-13
   1.18400002      -8.76719379E-13
   1.19099998      -8.68753149E-13
   1.19799995      -8.35908220E-13
   1.20500004      -7.96180179E-13
   1.21200001      -7.52697167E-13
   1.21899998      -6.90375545E-13
   1.22599995      -5.80167479E-13
   1.23300004      -3.89644019E-13
   1.24000001      -9.61945367E-14
   1.24699998       3.02036445E-13
   1.25399995       7.81736600E-13
   1.26100004       1.29856358E-12
   1.26800001       1.79878530E-12
   1.27499998       2.23456648E-12
   1.28199995       2.57755449E-12
   1.28900003       2.82585695E-12
   1.29600000       3.00175748E-12
   1.30299997       3.14084717E-12
   1.30999994       3.27640801E-12
   1.31700003       3.42478346E-12
   1.32400000       3.57726479E-12
   1.33099997       3.70178844E-12
   1.33800006       3.75422393E-12
   1.34500003       3.69541507E-12
   1.35200000       3.50786023E-12
   1.35899997       3.20576378E-12
   1.36600006       2.83433693E-12
   1.37300003       2.45798672E-12
   1.38000000       2.14099224E-12
   1.38699996       1.92709325E-12
   1.39400005       1.82502147E-12
   1.40100002       1.80502726E-12
   1.40799999       1.80767326E-12
   1.41499996       1.76177757E-12
   1.42200005       1.60515915E-12
   1.42900002       1.30071724E-12
   1.43599999       8.42102809E-13
   1.44299996       2.46999849E-13
   1.45000005      -4.59377870E-13
   1.45700002      -1.26406275E-12
   1.46399999      -2.18178036E-12
   1.47099996      -3.25957100E-12
   1.47800004      -4.56818828E-12
   1.48500001      -6.18277912E-12
   1.49199998      -8.15946789E-12
   1.49899995      -1.05163499E-11
   1.50600004      -1.32264512E-11
   1.51300001      -1.62259321E-11
   1.51999998      -1.94356475E-11
   1.52699995      -2.27894544E-11
   1.53400004      -2.62596958E-11
   1.54100001      -2.98716572E-11
   1.54799998      -3.37020932E-11
   1.55499995      -3.78628066E-11
   1.56200004      -4.24751831E-11
   1.56900001      -4.76455091E-11
   1.57599998      -5.34500291E-11
   1.58299994      -5.99352998E-11
   1.59000003      -6.71342079E-11
   1.59700000      -7.50917037E-11
   1.60399997      -8.38908179E-11
   1.61099994      -9.36692737E-11
   1.61800003      -1.04620576E-10
   1.62500000      -1.16978302E-10
   1.63199997      -1.30990122E-10
   1.63900006      -1.46890236E-10
   1.64600003      -1.64881178E-10
   1.65300000      -1.85132049E-10
   1.65999997      -2.07794587E-10
   1.66700006      -2.33032094E-10
   1.67400002      -2.61051930E-10
   1.68099999      -2.92129598E-10
   1.68799996      -3.26615318E-10
   1.69500005      -3.64922703E-10
   1.70200002      -4.07502893E-10
   1.70899999      -4.54814630E-10
   1.71599996      -5.07300812E-10
   1.72300005      -5.65380631E-10
   1.73000002      -6.29461150E-10
   1.73699999      -6.99964586E-10
   1.74399996      -7.77360898E-10
   1.75100005      -8.62196259E-10
   1.75800002      -9.55104884E-10
   1.76499999      -1.05680276E-09
   1.77199996      -1.16806598E-09
   1.77900004      -1.28969913E-09
   1.78600001      -1.42250767E-09
   1.79299998      -1.56728630E-09
   1.79999995      -1.72482384E-09
   1.80700004      -1.89592742E-09
   1.81400001      -2.08145146E-09
   1.82099998      -2.28232344E-09
   1.82799995      -2.49955767E-09
   1.83500004      -2.73425016E-09
   1.84200001      -2.98755576E-09
   1.84899998      -3.26065486E-09
   1.85599995      -3.55472540E-09
   1.86300004      -3.87092580E-09
   1.87000000      -4.21039248E-09
   1.87699997      -4.57425919E-09
   1.88399994      -4.96368413E-09
   1.89100003      -5.37987299E-09
   1.89800000      -5.82409854E-09
   1.90499997      -6.29769659E-09
   1.91199994      -6.80203982E-09
   1.91900003      -7.33851380E-09
   1.92600000      -7.90848276E-09
   1.93299997      -8.51326565E-09
   1.94000006      -9.15413345E-09
   1.94700003      -9.83231363E-09
   1.95400000      -1.05490097E-08
   1.96099997      -1.13054250E-08
   1.96800005      -1.21027677E-08
   1.97500002      -1.29422340E-08
   1.98199999      -1.38249794E-08
   1.98899996      -1.47520938E-08
   1.99600005      -1.57245577E-08
   2.00300002      -1.67432095E-08
   2.00999999      -1.78087483E-08
   2.01699996      -1.89217264E-08
   2.02399993      -2.00825774E-08
   2.03099990      -2.12916120E-08
   2.03800011      -2.25490062E-08
   2.04500008      -2.38548026E-08
   2.05200005      -2.52088608E-08
   2.05900002      -2.66108220E-08
   2.06599998      -2.80601089E-08
   2.07299995      -2.95558582E-08
   2.07999992      -3.10969419E-08
   2.08699989      -3.26819745E-08
   2.09400010      -3.43092985E-08
   2.10100007      -3.59770098E-08
   2.10800004      -3.76828986E-08
   2.11500001      -3.94245099E-08
   2.12199998      -4.11990762E-08
   2.12899995      -4.30035065E-08
   2.13599992      -4.48343549E-08
   2.14299989      -4.66878660E-08
   2.15000010      -4.85599436E-08
   2.15700006      -5.04461859E-08
   2.16400003      -5.23418784E-08
   2.17100000      -5.42420047E-08
   2.17799997      -5.61412676E-08
   2.18499994      -5.80340682E-08
   2.19199991      -5.99145054E-08
   2.19899988      -6.17763902E-08
   2.20600009      -6.36131858E-08
   2.21300006      -6.54181207E-08
   2.22000003      -6.71841676E-08
   2.22700000      -6.89040576E-08
   2.23399997      -7.05703229E-08
   2.24099994      -7.21752969E-08
   2.24799991      -7.37111421E-08
   2.25500011      -7.51699076E-08
   2.26200008      -7.65434720E-08
   2.26900005      -7.78236000E-08
   2.27600002      -7.90019499E-08
   2.28299999      -8.00701869E-08
   2.28999996      -8.10199836E-08
   2.29699993      -8.18430976E-08
   2.30399990      -8.25314359E-08
   2.31100011      -8.30769338E-08
   2.31800008      -8.34716687E-08
   2.32500005      -8.37078673E-08
   2.33200002      -8.37779410E-08
   2.33899999      -8.36745002E-08
   2.34599996      -8.33904821E-08
   2.35299993      -8.29190512E-08
   2.35999990      -8.22536492E-08
   2.36700010      -8.13880874E-08
   2.37400007      -8.03166103E-08
   2.38100004      -7.90338035E-08
   2.38800001      -7.75346081E-08
   2.39499998      -7.58143344E-08
   2.40199995      -7.38686552E-08
   2.40899992      -7.16936910E-08
   2.41599989      -6.92859885E-08
   2.42300010      -6.66426416E-08
   2.43000007      -6.37611350E-08
   2.43700004      -6.06395076E-08
   2.44400001      -5.72762140E-08
   2.45099998      -5.36700711E-08
   2.45799994      -4.98203221E-08
   2.46499991      -4.57266047E-08
   2.47199988      -4.13890113E-08
   2.47900009      -3.68081210E-08
   2.48600006      -3.19848823E-08
   2.49300003      -2.69206950E-08
   2.50000000      -2.16174438E-08
   2.50699997      -1.60775109E-08
   2.51399994      -1.03036948E-08
   2.52099991      -4.29910196E-09
   2.52800012       1.93279281E-09
   2.53500009       8.38817638E-09
   2.54200006       1.50628559E-08
   2.54900002       2.19522143E-08
   2.55599999       2.90513107E-08
   2.56299996       3.63549049E-08
   2.56999993       4.38574119E-08
   2.57699990       5.15529486E-08
   2.58400011       5.94353260E-08
   2.59100008       6.74980640E-08
   2.59800005       7.57343557E-08
   2.60500002       8.41370920E-08
   2.61199999       9.26988832E-08
   2.61899996       1.01412041E-07
   2.62599993       1.10268623E-07
   2.63299990       1.19260378E-07
   2.64000010       1.28378730E-07
   2.64700007       1.37614663E-07
   2.65400004       1.46958868E-07
   2.66100001       1.56401583E-07
   2.66799998       1.65932690E-07
   2.67499995       1.75541658E-07
   2.68199992       1.85217701E-07
   2.68899989       1.94949635E-07
   2.69600010       2.04726007E-07
   2.70300007       2.14535163E-07
   2.71000004       2.24365252E-07
   2.71700001       2.34204123E-07
   2.72399998       2.44039228E-07
   2.73099995       2.53857507E-07
   2.73799992       2.63645774E-07
   2.74499989       2.73390242E-07
   2.75200009       2.83077128E-07
   2.75900006       2.92692420E-07
   2.76600003       3.02222162E-07
   2.77300000       3.11652371E-07
   2.77999997       3.20968951E-07
   2.78699994       3.30157945E-07
   2.79399991       3.39205229E-07
   2.80100012       3.48096393E-07
   2.80800009       3.56816940E-07
   2.81500006       3.65352435E-07
   2.82200003       3.73688636E-07
   2.82900000       3.81811788E-07
   2.83599997       3.89708816E-07
   2.84299994       3.97367131E-07
   2.84999990       4.04774823E-07
   2.85700011       4.11920183E-07
   2.86400008       4.18791956E-07
   2.87100005       4.25379312E-07
   2.87800002       4.31671481E-07
   2.88499999       4.37658429E-07
   2.89199996       4.43330720E-07
   2.89899993       4.48679913E-07
   2.90599990       4.53698760E-07
   2.91300011       4.58381322E-07
   2.92000008       4.62722710E-07
   2.92700005       4.66719030E-07
   2.93400002       4.70367041E-07
   2.94099998       4.73663988E-07
   2.94799995       4.76607710E-07
   2.95499992       4.79196956E-07
   2.96199989       4.81431357E-07
   2.96900010       4.83311965E-07
   2.97600007       4.84840939E-07
   2.98300004       4.86021861E-07
   2.99000001       4.86859449E-07
   2.99699998       4.87359443E-07
   3.00399995       4.87527984E-07
   3.01099992       4.87371722E-07
   3.01799989       4.86897534E-07
   3.02500010       4.86112469E-07
   3.03200006       4.85024430E-07
   3.03900003       4.83642111E-07
   3.04600000       4.81975576E-07
   3.05299997       4.80035453E-07
   3.05999994       4.77833566E-07
   3.06699991       4.75381569E-07
   3.07399988       4.72691511E-07
   3.08100009       4.69775387E-07
   3.08800006       4.66644991E-07
   3.09500003       4.63311522E-07
   3.10200000       4.59786065E-07
   3.10899997       4.56079931E-07
   3.11599994       4.52204773E-07
   3.12299991       4.48172869E-07
   3.13000011       4.43996697E-07
   3.13700008       4.39688364E-07
   3.14400005       4.35259523E-07
   3.15100002       4.30721002E-07
   3.15799999       4.26083176E-07
   3.16499996       4.21355509E-07
   3.17199993       4.16547095E-07
   3.17899990       4.11666662E-07
   3.18600011       4.06722819E-07
   3.19300008       4.01724122E-07
   3.20000005       3.96679525E-07
   3.20700002       3.91597979E-07
   3.21399999       3.86487926E-07
   3.22099996       3.81356756E-07
   3.22799993       3.76210863E-07
   3.23499990       3.71055989E-07
   3.24200010       3.65897762E-07
   3.24900007       3.60741751E-07
   3.25600004       3.55593784E-07
   3.26300001       3.50459601E-07
   3.26999998       3.45344915E-07
   3.27699995       3.40255696E-07
   3.28399992       3.35198081E-07
   3.29099989       3.30178182E-07
   3.29800010       3.25201881E-07
   3.30500007       3.20274523E-07
   3.31200004       3.15401451E-07
   3.31900001       3.10588234E-07
   3.32599998       3.05841240E-07
   3.33299994       3.01167290E-07
   3.33999991       2.96573546E-07
   3.34699988       2.92067256E-07
   3.35400009       2.87655666E-07
   3.36100006       2.83346537E-07
   3.36800003       2.79147827E-07
   3.37500000       2.75068004E-07
   3.38199997       2.71115766E-07
   3.38899994       2.67299725E-07
   3.39599991       2.63628976E-07
   3.40300012       2.60113552E-07
   3.41000009       2.56763940E-07
   3.41700006       2.53590883E-07
   3.42400002       2.50605069E-07
   3.43099999       2.47817241E-07
   3.43799996       2.45238510E-07
   3.44499993       2.42880247E-07
   3.45199990       2.40754161E-07
   3.45900011       2.38872047E-07
   3.46600008       2.37245487E-07
   3.47300005       2.35885693E-07
   3.48000002       2.34803721E-07
   3.48699999       2.34010571E-07
   3.49399996       2.33517170E-07
   3.50099993       2.33334291E-07
   3.50799990       2.33472292E-07
   3.51500010       2.33941350E-07
   3.52200007       2.34751411E-07
   3.52900004       2.35912040E-07
   3.53600001       2.37432118E-07
   3.54299998       2.39319490E-07
   3.54999995       2.41580693E-07
   3.55699992       2.44221383E-07
   3.56399989       2.47246646E-07
   3.57100010       2.50661230E-07
   3.57800007       2.54469455E-07
   3.58500004       2.58674845E-07
   3.59200001       2.63280015E-07
   3.59899998       2.68286470E-07
   3.60599995       2.73694269E-07
   3.61299992       2.79501990E-07
   3.61999989       2.85706136E-07
   3.62700009       2.92301536E-07
   3.63400006       2.99281311E-07
   3.64100003       3.06638015E-07
   3.64800000       3.14363490E-07
   3.65499997       3.22448699E-07
   3.66199994       3.30883495E-07
   3.66899991       3.39656054E-07
   3.67600012       3.48752707E-07
   3.68300009       3.58157791E-07
   3.69000006       3.67853630E-07
   3.69700003       3.77820328E-07
   3.70400000       3.88036227E-07
   3.71099997       3.98477965E-07
   3.71799994       4.09121213E-07
   3.72499990       4.19940648E-07
   3.73200011       4.30909751E-07
   3.73900008       4.42000101E-07
   3.74600005       4.53181002E-07
   3.75300002       4.64419031E-07
   3.75999999       4.75678490E-07
   3.76699996       4.86921749E-07
   3.77399993       4.98109500E-07
   3.78099990       5.09200845E-07
   3.78800011       5.20153662E-07
   3.79500008       5.30924467E-07
   3.80200005       5.41468751E-07
   3.80900002       5.51740527E-07
   3.81599998       5.61691934E-07
   3.82299995       5.71272494E-07
   3.82999992       5.80429514E-07
   3.83699989       5.89108140E-07
   3.84400010       5.97253006E-07
   3.85100007       6.04807724E-07
   3.85800004       6.11715222E-07
   3.86500001       6.17917237E-07
   3.87199998       6.23354651E-07
   3.87899995       6.27967381E-07
   3.88599992       6.31694604E-07
   3.89299989       6.34474702E-07
   3.90000010       6.36245090E-07
   3.90700006       6.36942787E-07
   3.91400003       6.36504410E-07
   3.92100000       6.34867035E-07
   3.92799997       6.31968760E-07
   3.93499994       6.27748193E-07
   3.94199991       6.22144626E-07
   3.94899988       6.15097349E-07
   3.95600009       6.06546223E-07
   3.96300006       5.96432017E-07
   3.97000003       5.84698057E-07
   3.97700000       5.71289263E-07
   3.98399997       5.56152486E-07
   3.99099994       5.39236339E-07
   3.99799991       5.20491710E-07
   4.00500011       4.99872726E-07
   4.01200008       4.77336641E-07
   4.01900005       4.52843722E-07
   4.02600002       4.26357275E-07
   4.03299999       3.97843337E-07
   4.03999996       3.67272492E-07
   4.04699993       3.34620069E-07
   4.05399990       2.99866542E-07
   4.06099987       2.62996792E-07
   4.06799984       2.23999379E-07
   4.07499981       1.82866927E-07
   4.08199978       1.39596565E-07
   4.08900023       9.41910159E-08
   4.09600019       4.66586734E-08
   4.10300016      -2.98658875E-09
   4.11000013      -5.47258843E-08
   4.11700010      -1.08534536E-07
   4.12400007      -1.64381518E-07
   4.13100004      -2.22229190E-07
   4.13800001      -2.82034165E-07
   4.14499998      -3.43747615E-07
   4.15199995      -4.07316634E-07
   4.15899992      -4.72683439E-07
   4.16599989      -5.39784310E-07
   4.17299986      -6.08549215E-07
   4.17999983      -6.78901870E-07
   4.18699980      -7.50760535E-07
   4.19399977      -8.24037954E-07
   4.20100021      -8.98641929E-07
   4.20800018      -9.74474688E-07
   4.21500015      -1.05143340E-06
   4.22200012      -1.12941132E-06
   4.22900009      -1.20829748E-06
   4.23600006      -1.28797842E-06
   4.24300003      -1.36833648E-06
   4.25000000      -1.44925025E-06
   4.25699997      -1.53059398E-06
   4.26399994      -1.61223795E-06
   4.27099991      -1.69405030E-06
   4.27799988      -1.77589686E-06
   4.28499985      -1.85764225E-06
   4.29199982      -1.93915002E-06
   4.29899979      -2.02028173E-06
   4.30600023      -2.10089775E-06
   4.31300020      -2.18085916E-06
   4.32000017      -2.26002771E-06
   4.32700014      -2.33826404E-06
   4.33400011      -2.41543034E-06
   4.34100008      -2.49138725E-06
   4.34800005      -2.56599787E-06
   4.35500002      -2.63912648E-06
   4.36199999      -2.71064164E-06
   4.36899996      -2.78041489E-06
   4.37599993      -2.84831981E-06
   4.38299990      -2.91423430E-06
   4.38999987      -2.97803786E-06
   4.39699984      -3.03961701E-06
   4.40399981      -3.09886104E-06
   4.41099977      -3.15566422E-06
   4.41800022      -3.20992490E-06
   4.42500019      -3.26154759E-06
   4.43200016      -3.31044293E-06
   4.43900013      -3.35652862E-06
   4.44600010      -3.39972848E-06
   4.45300007      -3.43997317E-06
   4.46000004      -3.47719970E-06
   4.46700001      -3.51135145E-06
   4.47399998      -3.54237841E-06
   4.48099995      -3.57023805E-06
   4.48799992      -3.59489536E-06
   4.49499989      -3.61632306E-06
   4.50199986      -3.63450181E-06
   4.50899982      -3.64941980E-06
   4.51599979      -3.66107406E-06
   4.52299976      -3.66946938E-06
   4.53000021      -3.67461780E-06
   4.53700018      -3.67653820E-06
   4.54400015      -3.67525718E-06
   4.55100012      -3.67081066E-06
   4.55800009      -3.66324070E-06
   4.56500006      -3.65259893E-06
   4.57200003      -3.63894242E-06
   4.57900000      -3.62233459E-06
   4.58599997      -3.60284707E-06
   4.59299994      -3.58055718E-06
   4.59999990      -3.55554948E-06
   4.60699987      -3.52791449E-06
   4.61399984      -3.49774677E-06
   4.62099981      -3.46514753E-06
   4.62799978      -3.43022157E-06
   4.63500023      -3.39308076E-06
   4.64200020      -3.35383970E-06
   4.64900017      -3.31261754E-06
   4.65600014      -3.26953500E-06
   4.66300011      -3.22471442E-06
   4.67000008      -3.17828381E-06
   4.67700005      -3.13037367E-06
   4.68400002      -3.08111771E-06
   4.69099998      -3.03064780E-06
   4.69799995      -2.97909583E-06
   4.70499992      -2.92659274E-06
   4.71199989      -2.87327134E-06
   4.71899986      -2.81926555E-06
   4.72599983      -2.76470814E-06
   4.73299980      -2.70972805E-06
   4.73999977      -2.65445169E-06
   4.74700022      -2.59900366E-06
   4.75400019      -2.54350607E-06
   4.76100016      -2.48807942E-06
   4.76800013      -2.43283898E-06
   4.77500010      -2.37789254E-06
   4.78200006      -2.32334378E-06
   4.78900003      -2.26929251E-06
   4.79600000      -2.21583514E-06
   4.80299997      -2.16306603E-06
   4.80999994      -2.11107204E-06
   4.81699991      -2.05993251E-06
   4.82399988      -2.00971999E-06
   4.83099985      -1.96049837E-06
   4.83799982      -1.91232857E-06
   4.84499979      -1.86526438E-06
   4.85200024      -1.81935138E-06
   4.85900021      -1.77462744E-06
   4.86600018      -1.73112426E-06
   4.87300014      -1.68887016E-06
   4.88000011      -1.64788969E-06
   4.88700008      -1.60820207E-06
   4.89400005      -1.56981753E-06
   4.90100002      -1.53273584E-06
   4.90799999      -1.49694904E-06
   4.91499996      -1.46244452E-06
   4.92199993      -1.42920669E-06
   4.92899990      -1.39721715E-06
   4.93599987      -1.36645190E-06
   4.94299984      -1.33688093E-06
   4.94999981      -1.30847081E-06
   4.95699978      -1.28118518E-06
   4.96400023      -1.25498639E-06
   4.97100019      -1.22983158E-06
   4.97800016      -1.20567131E-06
   4.98500013      -1.18245214E-06
   4.99200010      -1.16011813E-06