  -1.00000000      -5.10395981E-17
 -0.992999971      -7.74660493E-16
 -0.986000001      -3.54098037E-15
 -0.978999972      -9.59825294E-15
 -0.972000003      -1.92199043E-14
 -0.964999974      -3.19384886E-14
 -0.958000004      -4.84102165E-14
 -0.950999975      -7.30701510E-14
 -0.944000006      -1.15282607E-13
 -0.936999977      -1.86618529E-13
 -0.930000007      -2.93991177E-13
 -0.922999978      -4.31690436E-13
 -0.916000009      -5.77509340E-13
 -0.908999979      -6.97129203E-13
 -0.902000010      -7.56817731E-13
 -0.894999981      -7.39627760E-13
 -0.888000011      -6.57633019E-13
 -0.880999982      -5.53858066E-13
 -0.874000013      -4.91826089E-13
 -0.866999984      -5.35974043E-13
 -0.860000014      -7.30434918E-13
 -0.852999985      -1.08530730E-12
 -0.846000016      -1.57763191E-12
 -0.838999987      -2.16873112E-12
 -0.832000017      -2.83169170E-12
 -0.824999988      -3.57591929E-12
 -0.818000019      -4.45416100E-12
 -0.810999990      -5.54375252E-12
 -0.804000020      -6.90639082E-12
 -0.796999991      -8.54338648E-12
 -0.790000021      -1.03688022E-11
 -0.782999992      -1.22173894E-11
 -0.776000023      -1.38895952E-11
 -0.768999994      -1.52191870E-11
 -0.762000024      -1.61377474E-11
 -0.754999995      -1.67093821E-11
 -0.748000026      -1.71188307E-11
 -0.740999997      -1.76134541E-11
 -0.734000027      -1.84185011E-11
 -0.726999998      -1.96587156E-11
 -0.720000029      -2.13211844E-11
 -0.713000000      -2.32807888E-11
 -0.705999970      -2.53843058E-11
 -0.699000001      -2.75612380E-11
 -0.691999972      -2.99129922E-11
 -0.685000002      -3.27361263E-11
 -0.677999973      -3.64609384E-11
 -0.671000004      -4.15224452E-11
 -0.663999975      -4.82115146E-11
 -0.657000005      -5.65658700E-11
 -0.649999976      -6.63485863E-11
 -0.643000007      -7.71302328E-11
 -0.635999978      -8.84520304E-11
 -0.629000008      -1.00013414E-10
 -0.621999979      -1.11813253E-10
 -0.615000010      -1.24185190E-10
 -0.607999980      -1.37703987E-10
 -0.601000011      -1.52989815E-10
 -0.593999982      -1.70482323E-10
 -0.587000012      -1.90273658E-10
 -0.579999983      -2.12072804E-10
 -0.573000014      -2.35322956E-10
 -0.565999985      -2.59434169E-10
 -0.559000015      -2.84044704E-10
 -0.551999986      -3.09211295E-10
 -0.545000017      -3.35451944E-10
 -0.537999988      -3.63617442E-10
 -0.531000018      -3.94631827E-10
 -0.523999989      -4.29191988E-10
 -0.517000020      -4.67536621E-10
 -0.509999990      -5.09376652E-10
 -0.503000021      -5.54020274E-10
 -0.495999992      -6.00654804E-10
 -0.488999993      -6.48683274E-10
 -0.481999993      -6.97984948E-10
 -0.474999994      -7.48998141E-10
 -0.467999995      -8.02586497E-10
 -0.460999995      -8.59731675E-10
 -0.453999996      -9.21170973E-10
 -0.446999997      -9.87108839E-10
 -0.439999998      -1.05711540E-09
 -0.432999998      -1.13025400E-09
 -0.425999999      -1.20539545E-09
 -0.419000000      -1.28160993E-09
 -0.412000000      -1.35848877E-09
 -0.405000001      -1.43627532E-09
 -0.398000002      -1.51574320E-09
 -0.391000003      -1.59785207E-09
 -0.384000003      -1.68330083E-09
 -0.377000004      -1.77213655E-09
 -0.370000005      -1.86356131E-09
 -0.363000005      -1.95599648E-09
 -0.356000006      -2.04738604E-09
 -0.349000007      -2.13561879E-09
 -0.342000008      -2.21891283E-09
 -0.335000008      -2.29603070E-09
 -0.328000009      -2.36624498E-09
 -0.321000010      -2.42906872E-09
 -0.314000010      -2.48384580E-09
 -0.307000011      -2.52935206E-09
 -0.300000012      -2.56354471E-09
 -0.293000013      -2.58355271E-09
 -0.286000013      -2.58591459E-09
 -0.279000014      -2.56697330E-09
 -0.272000015      -2.52328047E-09
 -0.264999986      -2.45186493E-09
 -0.257999986      -2.35027864E-09
 -0.250999987      -2.21638263E-09
 -0.244000003      -2.04797934E-09
 -0.237000003      -1.84238191E-09
 -0.230000004      -1.59607794E-09
 -0.223000005      -1.30458677E-09
 -0.216000006      -9.62535940E-10
 -0.209000006      -5.63957769E-10
 -0.202000007      -1.02684777E-10
 -0.194999993       4.27273134E-10
 -0.187999994       1.03149711E-09
 -0.180999994       1.71515235E-09
 -0.173999995       2.48318210E-09
 -0.166999996       3.34066663E-09
 -0.159999996       4.29322311E-09
 -0.152999997       5.34730482E-09
 -0.145999998       6.51035803E-09
 -0.138999999       7.79075648E-09
 -0.131999999       9.19751209E-09
 -0.125000000       1.07398987E-08
 -0.118000001       1.24270327E-08
 -0.111000001       1.42675720E-08
 -0.104000002       1.62696328E-08
  -9.70000029E-02   1.84409181E-08
  -9.00000036E-02   2.07890896E-08
  -8.29999968E-02   2.33221584E-08
  -7.59999976E-02   2.60488289E-08
  -6.89999983E-02   2.89786843E-08
  -6.19999990E-02   3.21221272E-08
  -5.49999997E-02   3.54899861E-08
  -4.80000004E-02   3.90930310E-08
  -4.10000011E-02   4.29414229E-08
  -3.40000018E-02   4.70443169E-08
  -2.70000007E-02   5.14097778E-08
  -1.99999996E-02   5.60449571E-08
  -1.30000003E-02   6.09565305E-08
  -6.00000005E-03   6.61512729E-08
   1.00000005E-03   7.16363999E-08
   8.00000038E-03   7.74197417E-08
   1.49999997E-02   8.35095975E-08
   2.19999999E-02   8.99142165E-08
   2.89999992E-02   9.66410738E-08
   3.59999985E-02   1.03696358E-07
   4.30000015E-02   1.11084489E-07
   5.00000007E-02   1.18808046E-07
   5.70000000E-02   1.26868031E-07
   6.40000030E-02   1.35264415E-07
   7.10000023E-02   1.43996516E-07
   7.80000016E-02   1.53063567E-07
   8.50000009E-02   1.62464403E-07
   9.20000002E-02   1.72197318E-07
   9.89999995E-02   1.82259427E-07
  0.105999999       1.92645828E-07
  0.112999998       2.03349003E-07
  0.119999997       2.14358423E-07
  0.127000004       2.25660600E-07
  0.134000003       2.37239462E-07
  0.141000003       2.49077175E-07
  0.148000002       2.61154923E-07
  0.155000001       2.73453139E-07
  0.162000000       2.85951899E-07
  0.169000000       2.98630255E-07
  0.175999999       3.11465357E-07
  0.182999998       3.24431682E-07
  0.189999998       3.37500381E-07
  0.196999997       3.50639226E-07
  0.203999996       3.63812859E-07
  0.210999995       3.76983593E-07
  0.217999995       3.90112007E-07
  0.224999994       4.03158111E-07
  0.231999993       4.16081889E-07
  0.238999993       4.28843094E-07
  0.246000007       4.41401397E-07
  0.252999991       4.53715444E-07
  0.259999990       4.65742403E-07
  0.266999990       4.77437709E-07
  0.273999989       4.88755290E-07
  0.280999988       4.99648706E-07
  0.287999988       5.10071914E-07
  0.294999987       5.19980802E-07
  0.301999986       5.29335182E-07
  0.308999985       5.38098675E-07
  0.316000015       5.46239733E-07
  0.323000014       5.53730899E-07
  0.330000013       5.60548585E-07
  0.337000012       5.66672156E-07
  0.344000012       5.72084446E-07
  0.351000011       5.76771299E-07
  0.358000010       5.80724475E-07
  0.365000010       5.83942779E-07
  0.372000009       5.86433998E-07
  0.379000008       5.88215869E-07
  0.386000007       5.89316471E-07
  0.393000007       5.89774345E-07
  0.400000006       5.89638660E-07
  0.407000005       5.88969101E-07
  0.414000005       5.87835530E-07
  0.421000004       5.86318663E-07
  0.428000003       5.84512009E-07
  0.435000002       5.82521750E-07
  0.442000002       5.80469134E-07
  0.449000001       5.78490187E-07
  0.456000000       5.76735886E-07
  0.463000000       5.75371132E-07
  0.469999999       5.74574926E-07
  0.476999998       5.74540820E-07
  0.483999997       5.75476804E-07
  0.490999997       5.77605476E-07
  0.497999996       5.81164556E-07
  0.504999995       5.86406770E-07
  0.512000024       5.93598713E-07
  0.518999994       6.03020283E-07
  0.526000023       6.14962858E-07
  0.532999992       6.29728845E-07
  0.540000021       6.47631566E-07
  0.546999991       6.68994574E-07
  0.554000020       6.94151993E-07
  0.560999990       7.23448068E-07
  0.568000019       7.57235114E-07
  0.574999988       7.95871927E-07
  0.582000017       8.39719405E-07
  0.588999987       8.89138562E-07
  0.596000016       9.44488249E-07
  0.602999985       1.00612442E-06
  0.610000014       1.07439962E-06
  0.616999984       1.14966213E-06
  0.624000013       1.23225709E-06
  0.630999982       1.32252558E-06
  0.638000011       1.42080114E-06
  0.644999981       1.52740699E-06
  0.652000010       1.64265055E-06
  0.658999979       1.76681965E-06
  0.666000009       1.90017954E-06
  0.672999978       2.04297089E-06
  0.680000007       2.19541153E-06
  0.686999977       2.35769608E-06
  0.694000006       2.52999689E-06
  0.700999975       2.71246358E-06
  0.708000004       2.90521984E-06
  0.714999974       3.10836049E-06
  0.722000003       3.32194622E-06
  0.728999972       3.54599979E-06
  0.736000001       3.78050163E-06
  0.742999971       4.02539263E-06
  0.750000000       4.28057410E-06
  0.757000029       4.54591463E-06
  0.763999999       4.82124597E-06
  0.771000028       5.10636801E-06
  0.777999997       5.40104656E-06
  0.785000026       5.70500879E-06
  0.791999996       6.01794272E-06
  0.799000025       6.33949367E-06
  0.805999994       6.66926189E-06
  0.813000023       7.00680539E-06
  0.819999993       7.35164349E-06
  0.827000022       7.70325732E-06
  0.833999991       8.06110074E-06
  0.841000021       8.42459940E-06
  0.847999990       8.79315212E-06
  0.855000019       9.16612862E-06
  0.861999989       9.54287134E-06
  0.869000018       9.92269815E-06
  0.875999987       1.03048951E-05
  0.883000016       1.06887219E-05
  0.889999986       1.10734163E-05
  0.897000015       1.14581999E-05
  0.903999984       1.18422822E-05
  0.911000013       1.22248675E-05
  0.917999983       1.26051591E-05
  0.925000012       1.29823575E-05
  0.931999981       1.33556623E-05
  0.939000010       1.37242714E-05
  0.945999980       1.40873781E-05
  0.953000009       1.44441847E-05
  0.959999979       1.47938990E-05
  0.967000008       1.51357399E-05
  0.973999977       1.54689424E-05
  0.981000006       1.57927607E-05
  0.987999976       1.61064800E-05
  0.995000005       1.64094072E-05
   1.00199997       1.67008839E-05
   1.00899994       1.69802861E-05
   1.01600003       1.72470118E-05
   1.02300000       1.75004861E-05
   1.02999997       1.77401762E-05
   1.03699994       1.79655835E-05
   1.04400003       1.81762443E-05
   1.05100000       1.83717475E-05
   1.05799997       1.85517256E-05
   1.06500006       1.87158512E-05
   1.07200003       1.88638460E-05
   1.07900000       1.89954881E-05
   1.08599997       1.91106028E-05
   1.09300005       1.92090574E-05
   1.10000002       1.92907646E-05
   1.10699999       1.93556825E-05
   1.11399996       1.94038257E-05
   1.12100005       1.94352469E-05
   1.12800002       1.94500499E-05
   1.13499999       1.94483855E-05
   1.14199996       1.94304612E-05
   1.14900005       1.93965188E-05
   1.15600002       1.93468622E-05
   1.16299999       1.92818279E-05
   1.16999996       1.92017942E-05
   1.17700005       1.91071758E-05
   1.18400002       1.89984294E-05
   1.19099998       1.88760368E-05
   1.19799995       1.87405258E-05
   1.20500004       1.85924382E-05
   1.21200001       1.84323562E-05
   1.21899998       1.82608892E-05
   1.22599995       1.80786683E-05
   1.23300004       1.78863593E-05
   1.24000001       1.76846424E-05
   1.24699998       1.74742090E-05
   1.25399995       1.72557575E-05
   1.26100004       1.70299936E-05
   1.26800001       1.67976323E-05
   1.27499998       1.65593883E-05
   1.28199995       1.63159821E-05
   1.28900003       1.60681520E-05
   1.29600000       1.58166131E-05
   1.30299997       1.55620965E-05
   1.30999994       1.53053061E-05
   1.31700003       1.50469477E-05
   1.32400000       1.47877008E-05
   1.33099997       1.45282320E-05
   1.33800006       1.42691861E-05
   1.34500003       1.40111797E-05
   1.35200000       1.37548204E-05
   1.35899997       1.35006903E-05
   1.36600006       1.32493524E-05
   1.37300003       1.30013459E-05
   1.38000000       1.27571766E-05
   1.38699996       1.25173183E-05
   1.39400005       1.22822130E-05
   1.40100002       1.20522709E-05
   1.40799999       1.18278685E-05
   1.41499996       1.16093452E-05
   1.42200005       1.13970091E-05
   1.42900002       1.11911404E-05
   1.43599999       1.09919829E-05
   1.44299996       1.07997566E-05
   1.45000005       1.06146463E-05
   1.45700002       1.04368046E-05
   1.46399999       1.02663425E-05
   1.47099996       1.01033374E-05
   1.47800004       9.94783477E-06
   1.48500001       9.79984998E-06
   1.49199998       9.65937306E-06
   1.49899995       9.52636583E-06
   1.50600004       9.40076279E-06
   1.51300001       9.28247755E-06
   1.51999998       9.17139641E-06
   1.52699995       9.06738660E-06
   1.53400004       8.97029349E-06
   1.54100001       8.87994247E-06
   1.54799998       8.79613344E-06
   1.55499995       8.71865268E-06
   1.56200004       8.64727008E-06
   1.56900001       8.58175281E-06
   1.57599998       8.52184985E-06
   1.58299994       8.46730291E-06
   1.59000003       8.41784549E-06
   1.59700000       8.37320022E-06
   1.60399997       8.33308604E-06
   1.61099994       8.29722921E-06
   1.61800003       8.26534961E-06
   1.62500000       8.23716709E-06
   1.63199997       8.21240246E-06
   1.63900006       8.19078468E-06
   1.64600003       8.17204545E-06
   1.65300000       8.15592375E-06
   1.65999997       8.14216310E-06
   1.66700006       8.13051065E-06
   1.67400002       8.12071812E-06
   1.68099999       8.11255632E-06
   1.68799996       8.10580786E-06
   1.69500005       8.10026904E-06
   1.70200002       8.09574976E-06
   1.70899999       8.09206904E-06
   1.71599996       8.08906043E-06
   1.72300005       8.08656569E-06
   1.73000002       8.08444292E-06
   1.73699999       8.08256027E-06
   1.74399996       8.08080040E-06
   1.75100005       8.07905872E-06
   1.75800002       8.07724246E-06
   1.76499999       8.07528158E-06
   1.77199996       8.07312153E-06
   1.77900004       8.07072047E-06
   1.78600001       8.06804837E-06
   1.79299998       8.06507705E-06
   1.79999995       8.06178377E-06
   1.80700004       8.05815580E-06
   1.81400001       8.05419131E-06
   1.82099998       8.04989304E-06
   1.82799995       8.04527645E-06
   1.83500004       8.04036699E-06
   1.84200001       8.03520379E-06
   1.84899998       8.02982959E-06
   1.85599995       8.02429531E-06
   1.86300004       8.01865190E-06
   1.87000000       8.01294573E-06
   1.87699997       8.00721318E-06
   1.88399994       8.00149792E-06
   1.89100003       7.99584450E-06
   1.89800000       7.99030295E-06
   1.90499997       7.98492965E-06
   1.91199994       7.97978191E-06
   1.91900003       7.97491793E-06
   1.92600000       7.97039229E-06
   1.93299997       7.96625318E-06
   1.94000006       7.96253607E-06
   1.94700003       7.95926644E-06
   1.95400000       7.95646247E-06
   1.96099997       7.95413689E-06
   1.96800005       7.95230699E-06
   1.97500002       7.95099731E-06
   1.98199999       7.95023334E-06
   1.98899996       7.95003689E-06
   1.99600005       7.95042342E-06
   2.00300002       7.95139749E-06
   2.00999999       7.95295000E-06
   2.01699996       7.95506548E-06
   2.02399993       7.95771575E-06
   2.03099990       7.96087352E-06
   2.03800011       7.96451241E-06
   2.04500008       7.96861059E-06
   2.05200005       7.97314897E-06
   2.05900002       7.97811117E-06
   2.06599998       7.98347719E-06
   2.07299995       7.98921519E-06
   2.07999992       7.99528243E-06
   2.08699989       8.00163343E-06
   2.09400010       8.00821363E-06
   2.10100007       8.01497390E-06
   2.10800004       8.02186605E-06
   2.11500001       8.02885006E-06
   2.12199998       8.03589046E-06
   2.12899995       8.04296087E-06
   2.13599992       8.05003128E-06
   2.14299989       8.05706441E-06
   2.15000010       8.06402022E-06
   2.15700006       8.07085235E-06
   2.16400003       8.07751712E-06
   2.17100000       8.08396999E-06
   2.17799997       8.09017911E-06
   2.18499994       8.09611811E-06
   2.19199991       8.10177517E-06
   2.19899988       8.10713300E-06
   2.20600009       8.11217888E-06
   2.21300006       8.11689551E-06
   2.22000003       8.12126018E-06
   2.22700000       8.12524740E-06
   2.23399997       8.12883172E-06
   2.24099994       8.13199313E-06
   2.24799991       8.13471797E-06
   2.25500011       8.13700353E-06
   2.26200008       8.13885617E-06
   2.26900005       8.14027953E-06
   2.27600002       8.14128543E-06
   2.28299999       8.14187479E-06
   2.28999996       8.14205123E-06
   2.29699993       8.14181476E-06
   2.30399990       8.14116356E-06
   2.31100011       8.14010309E-06
   2.31800008       8.13863880E-06
   2.32500005       8.13679071E-06
   2.33200002       8.13457791E-06
   2.33899999       8.13202587E-06
   2.34599996       8.12915732E-06
   2.35299993       8.12599137E-06
   2.35999990       8.12254439E-06
   2.36700010       8.11882455E-06
   2.37400007       8.11483824E-06
   2.38100004       8.11059090E-06
   2.38800001       8.10609163E-06
   2.39499998       8.10135498E-06
   2.40199995       8.09640005E-06
   2.40899992       8.09125322E-06
   2.41599989       8.08593995E-06
   2.42300010       8.08048208E-06
   2.43000007       8.07489960E-06
   2.43700004       8.06920252E-06
   2.44400001       8.06339176E-06
   2.45099998       8.05747368E-06
   2.45799994       8.05145010E-06
   2.46499991       8.04532192E-06
   2.47199988       8.03909461E-06
   2.47900009       8.03277635E-06
   2.48600006       8.02637169E-06
   2.49300003       8.01988699E-06
   2.50000000       8.01331771E-06
   2.50699997       8.00665657E-06
   2.51399994       7.99988447E-06
   2.52099991       7.99298050E-06
   2.52800012       7.98592191E-06
   2.53500009       7.97869325E-06
   2.54200006       7.97127723E-06
   2.54900002       7.96366021E-06
   2.55599999       7.95582855E-06
   2.56299996       7.94775951E-06
   2.56999993       7.93942945E-06
   2.57699990       7.93080562E-06
   2.58400011       7.92185074E-06
   2.59100008       7.91252751E-06
   2.59800005       7.90279410E-06
   2.60500002       7.89261503E-06
   2.61199999       7.88196030E-06
   2.61899996       7.87080080E-06
   2.62599993       7.85910743E-06
   2.63299990       7.84684380E-06
   2.64000010       7.83397354E-06
   2.64700007       7.82045117E-06
   2.65400004       7.80623304E-06
   2.66100001       7.79127822E-06
   2.66799998       7.77555215E-06
   2.67499995       7.75902481E-06
   2.68199992       7.74167074E-06
   2.68899989       7.72347266E-06
   2.69600010       7.70441420E-06
   2.70300007       7.68448081E-06
   2.71000004       7.66365520E-06
   2.71700001       7.64192100E-06
   2.72399998       7.61926049E-06
   2.73099995       7.59566683E-06
   2.73799992       7.57113958E-06
   2.74499989       7.54568873E-06
   2.75200009       7.51932976E-06
   2.75900006       7.49208039E-06
   2.76600003       7.46396154E-06
   2.77300000       7.43499277E-06
   2.77999997       7.40519772E-06
   2.78699994       7.37460459E-06
   2.79399991       7.34324658E-06
   2.80100012       7.31116234E-06
   2.80800009       7.27840188E-06
   2.81500006       7.24502388E-06
   2.82200003       7.21109018E-06
   2.82900000       7.17666489E-06
   2.83599997       7.14181351E-06
   2.84299994       7.10659424E-06
   2.84999990       7.07107074E-06
   2.85700011       7.03531305E-06
   2.86400008       6.99939665E-06
   2.87100005       6.96340248E-06
   2.87800002       6.92741332E-06
   2.88499999       6.89151284E-06
   2.89199996       6.85577970E-06
   2.89899993       6.82029076E-06
   2.90599990       6.78512015E-06
   2.91300011       6.75033652E-06
   2.92000008       6.71601310E-06
   2.92700005       6.68222310E-06
   2.93400002       6.64904837E-06
   2.94099998       6.61657577E-06
   2.94799995       6.58489444E-06
   2.95499992       6.55408985E-06
   2.96199989       6.52423569E-06
   2.96900010       6.49539743E-06
   2.97600007       6.46763283E-06
   2.98300004       6.44099782E-06
   2.99000001       6.41554334E-06
   2.99699998       6.39132486E-06
   3.00399995       6.36839468E-06
   3.01099992       6.34680691E-06
   3.01799989       6.32661158E-06
   3.02500010       6.30785780E-06
   3.03200006       6.29058377E-06
   3.03900003       6.27481541E-06
   3.04600000       6.26056908E-06
   3.05299997       6.24785571E-06
   3.05999994       6.23668620E-06
   3.06699991       6.22707921E-06
   3.07399988       6.21905792E-06
   3.08100009       6.21264144E-06
   3.08800006       6.20784749E-06
   3.09500003       6.20468563E-06
   3.10200000       6.20315541E-06
   3.10899997       6.20324363E-06
   3.11599994       6.20492892E-06
   3.12299991       6.20818128E-06
   3.13000011       6.21297113E-06
   3.13700008       6.21927029E-06
   3.14400005       6.22706102E-06
   3.15100002       6.23632604E-06
   3.15799999       6.24704853E-06
   3.16499996       6.25919756E-06
   3.17199993       6.27273403E-06
   3.17899990       6.28760154E-06
   3.18600011       6.30373870E-06
   3.19300008       6.32107685E-06
   3.20000005       6.33954869E-06
   3.20700002       6.35908873E-06
   3.21399999       6.37963967E-06
   3.22099996       6.40115377E-06
   3.22799993       6.42358509E-06
   3.23499990       6.44688180E-06
   3.24200010       6.47098204E-06
   3.24900007       6.49580488E-06
   3.25600004       6.52125891E-06
   3.26300001       6.54724363E-06
   3.26999998       6.57366172E-06
   3.27699995       6.60042224E-06
   3.28399992       6.62744424E-06
   3.29099989       6.65465677E-06
   3.29800010       6.68199300E-06
   3.30500007       6.70938925E-06
   3.31200004       6.73677232E-06
   3.31900001       6.76405898E-06
   3.32599998       6.79115055E-06
   3.33299994       6.81794063E-06
   3.33999991       6.84432416E-06
   3.34699988       6.87020474E-06
   3.35400009       6.89550461E-06
   3.36100006       6.92015783E-06
   3.36800003       6.94410937E-06
   3.37500000       6.96730558E-06
   3.38199997       6.98968961E-06
   3.38899994       7.01120007E-06
   3.39599991       7.03176875E-06
   3.40300012       7.05132197E-06
   3.41000009       7.06978653E-06
   3.41700006       7.08710013E-06
   3.42400002       7.10321592E-06
   3.43099999       7.11810844E-06
   3.43799996       7.13176587E-06
   3.44499993       7.14418184E-06
   3.45199990       7.15534634E-06
   3.45900011       7.16524573E-06
   3.46600008       7.17386092E-06
   3.47300005       7.18117371E-06
   3.48000002       7.18717092E-06
   3.48699999       7.19185255E-06
   3.49399996       7.19523268E-06
   3.50099993       7.19734180E-06
   3.50799990       7.19822356E-06
   3.51500010       7.19792888E-06
   3.52200007       7.19650780E-06
   3.52900004       7.19400487E-06
   3.53600001       7.19045693E-06
   3.54299998       7.18590263E-06
   3.54999995       7.18038427E-06
   3.55699992       7.17396051E-06
   3.56399989       7.16670183E-06
   3.57100010       7.15869010E-06
   3.57800007       7.15001352E-06
   3.58500004       7.14076032E-06
   3.59200001       7.13101736E-06
   3.59899998       7.12086148E-06
   3.60599995       7.11036728E-06
   3.61299992       7.09960341E-06
   3.61999989       7.08864172E-06
   3.62700009       7.07756044E-06
   3.63400006       7.06644823E-06
   3.64100003       7.05539969E-06
   3.64800000       7.04450576E-06
   3.65499997       7.03385058E-06
   3.66199994       7.02350826E-06
   3.66899991       7.01354065E-06
   3.67600012       7.00400506E-06
   3.68300009       6.99495968E-06
   3.69000006       6.98646090E-06
   3.69700003       6.97857013E-06
   3.70400000       6.97135010E-06
   3.71099997       6.96486086E-06
   3.71799994       6.95915514E-06
   3.72499990       6.95427389E-06
   3.73200011       6.95023709E-06
   3.73900008       6.94705614E-06
   3.74600005       6.94473147E-06
   3.75300002       6.94326491E-06
   3.75999999       6.94266055E-06
   3.76699996       6.94292612E-06
   3.77399993       6.94406663E-06
   3.78099990       6.94607525E-06
   3.78800011       6.94893652E-06
   3.79500008       6.95261633E-06
   3.80200005       6.95706740E-06
   3.80900002       6.96223333E-06
   3.81599998       6.96804909E-06
   3.82299995       6.97445512E-06
   3.82999992       6.98139684E-06
   3.83699989       6.98882286E-06
   3.84400010       6.99668090E-06
   3.85100007       7.00490818E-06
   3.85800004       7.01342424E-06
   3.86500001       7.02212674E-06
   3.87199998       7.03090063E-06
   3.87899995       7.03962269E-06
   3.88599992       7.04817057E-06
   3.89299989       7.05642515E-06
   3.90000010       7.06427772E-06
   3.90700006       7.07162826E-06
   3.91400003       7.07837580E-06
   3.92100000       7.08441394E-06
   3.92799997       7.08962580E-06
   3.93499994       7.09388087E-06
   3.94199991       7.09704045E-06
   3.94899988       7.09896267E-06
   3.95600009       7.09951246E-06
   3.96300006       7.09856522E-06
   3.97000003       7.09600772E-06
   3.97700000       7.09173401E-06
   3.98399997       7.08563903E-06
   3.99099994       7.07761501E-06
   3.99799991       7.06754690E-06
   4.00500011       7.05531193E-06
   4.01200008       7.04078502E-06
   4.01900005       7.02384614E-06
   4.02600002       7.00438477E-06
   4.03299999       6.98230951E-06
   4.03999996       6.95754306E-06
   4.04699993       6.93002357E-06
   4.05399990       6.89969238E-06
   4.06099987       6.86649537E-06
   4.06799984       6.83037706E-06
   4.07499981       6.79128698E-06
   4.08199978       6.74918056E-06
   4.08900023       6.70402687E-06
   4.09600019       6.65581274E-06
   4.10300016       6.60454316E-06
   4.11000013       6.55024269E-06
   4.11700010       6.49294816E-06
   4.12400007       6.43270550E-06
   4.13100004       6.36956156E-06
   4.13800001       6.30356180E-06
   4.14499998       6.23475808E-06
   4.15199995       6.16320949E-06
   4.15899992       6.08899745E-06
   4.16599989       6.01222473E-06
   4.17299986       5.93301866E-06
   4.17999983       5.85152702E-06
   4.18699980       5.76791217E-06
   4.19399977       5.68234645E-06
   4.20100021       5.59500222E-06
   4.20800018       5.50605273E-06
   4.21500015       5.41567215E-06
   4.22200012       5.32404283E-06
   4.22900009       5.23136305E-06
   4.23600006       5.13785153E-06
   4.24300003       5.04374702E-06
   4.25000000       4.94930055E-06
   4.25699997       4.85476949E-06
   4.26399994       4.76040759E-06
   4.27099991       4.66646406E-06
   4.27799988       4.57317992E-06
   4.28499985       4.48079209E-06
   4.29199982       4.38953975E-06
   4.29899979       4.29967122E-06
   4.30600023       4.21144750E-06
   4.31300020       4.12514464E-06
   4.32000017       4.04104321E-06
   4.32700014       3.95941697E-06
   4.33400011       3.88052467E-06
   4.34100008       3.80460210E-06
   4.34800005       3.73186640E-06
   4.35500002       3.66251902E-06
   4.36199999       3.59675619E-06
   4.36899996       3.53477208E-06
   4.37599993       3.47676291E-06
   4.38299990       3.42292469E-06
   4.38999987       3.37344682E-06
   4.39699984       3.32850368E-06
   4.40399981       3.28824262E-06
   4.41099977       3.25277801E-06
   4.41800022       3.22219398E-06
   4.42500019       3.19655032E-06
   4.43200016       3.17589456E-06
   4.43900013       3.16026853E-06
   4.44600010       3.14970998E-06
   4.45300007       3.14424938E-06
   4.46000004       3.14390104E-06
   4.46700001       3.14865474E-06
   4.47399998       3.15847296E-06
   4.48099995       3.17328431E-06
   4.48799992       3.19298874E-06
   4.49499989       3.21746393E-06
   4.50199986       3.24657390E-06
   4.50899982       3.28017882E-06
   4.51599979       3.31813521E-06
   4.52299976       3.36029211E-06
   4.53000021       3.40648239E-06
   4.53700018       3.45651233E-06
   4.54400015       3.51016092E-06
   4.55100012       3.56718374E-06
   4.55800009       3.62731998E-06
   4.56500006       3.69030340E-06
   4.57200003       3.75586728E-06
   4.57900000       3.82374628E-06
   4.58599997       3.89368006E-06
   4.59299994       3.96540918E-06
   4.59999990       4.03866579E-06
   4.60699987       4.11316751E-06
   4.61399984       4.18861237E-06
   4.62099981       4.26468750E-06
   4.62799978       4.34107778E-06
   4.63500023       4.41747943E-06
   4.64200020       4.49360914E-06
   4.64900017       4.56920316E-06
   4.65600014       4.64401228E-06
   4.66300011       4.71779504E-06
   4.67000008       4.79030996E-06
   4.67700005       4.86131103E-06
   4.68400002       4.93055131E-06
   4.69099998       4.99778480E-06
   4.69799995       5.06277820E-06
   4.70499992       5.12532051E-06
   4.71199989       5.18523302E-06
   4.71899986       5.24237021E-06
   4.72599983       5.29661338E-06
   4.73299980       5.34785841E-06
   4.73999977       5.39600069E-06
   4.74700022       5.44093564E-06
   4.75400019       5.48255866E-06
   4.76100016       5.52077836E-06
   4.76800013       5.55552379E-06
   4.77500010       5.58675265E-06
   4.78200006       5.61445722E-06
   4.78900003       5.63866524E-06
   4.79600000       5.65943174E-06
   4.80299997       5.67683037E-06
   4.80999994       5.69093754E-06
   4.81699991       5.70182601E-06
   4.82399988       5.70956308E-06
   4.83099985       5.71422061E-06
   4.83799982       5.71588907E-06
   4.84499979       5.71468581E-06
   4.85200024       5.71075998E-06
   4.85900021       5.70428529E-06
   4.86600018       5.69545455E-06
   4.87300014       5.68446421E-06
   4.88000011       5.67150801E-06
   4.88700008       5.65676828E-06
   4.89400005       5.64041784E-06
   4.90100002       5.62261948E-06
   4.90799999       5.60353828E-06
   4.91499996       5.58335569E-06
   4.92199993       5.56227542E-06
   4.92899990       5.54052303E-06
   4.93599987       5.51833136E-06
   4.94299984       5.49592733E-06
   4.94999981       5.47352147E-06
   4.95699978       5.45130297E-06
   4.96400023       5.42944144E-06
   4.97100019       5.40809242E-06
   4.97800016       5.38740505E-06
   4.98500013       5.36752259E-06
   4.99200010       5.34859782E-06