  -1.00000000      -1.37345190E-22
 -0.992999971      -1.09075243E-20
 -0.986000001      -9.46530173E-20
 -0.978999972      -3.13192164E-19
 -0.972000003      -2.69537449E-19
 -0.964999974       1.93741499E-18
 -0.958000004       1.10536741E-17
 -0.950999975       3.54605645E-17
 -0.944000006       8.63428726E-17
 -0.936999977       1.74598068E-16
 -0.930000007       3.05958888E-16
 -0.922999978       4.76166930E-16
 -0.916000009       6.68921083E-16
 -0.908999979       8.58972194E-16
 -0.902000010       1.02077222E-15
 -0.894999981       1.13989713E-15
 -0.888000011       1.22139928E-15
 -0.880999982       1.28828110E-15
 -0.874000013       1.36615901E-15
 -0.866999984       1.45703018E-15
 -0.860000014       1.51349753E-15
 -0.852999985       1.43026744E-15
 -0.846000016       1.06757597E-15
 -0.838999987       3.09588133E-16
 -0.832000017      -8.57033971E-16
 -0.824999988      -2.27546359E-15
 -0.818000019      -3.59842889E-15
 -0.810999990      -4.34040350E-15
 -0.804000020      -4.00040532E-15
 -0.796999991      -2.22042720E-15
 -0.790000021       1.08003159E-15
 -0.782999992       5.65480890E-15
 -0.776000023       1.10016891E-14
 -0.768999994       1.65372205E-14
 -0.762000024       2.18068412E-14
 -0.754999995       2.66305549E-14
 -0.748000026       3.10974052E-14
 -0.740999997       3.53825652E-14
 -0.734000027       3.94488688E-14
 -0.726999998       4.27713895E-14
 -0.720000029       4.42471614E-14
 -0.713000000       4.23989321E-14
 -0.705999970       3.58622840E-14
 -0.699000001       2.40036127E-14
 -0.691999972       7.41683394E-15
 -0.685000002      -1.19552272E-14
 -0.677999973      -3.12116225E-14
 -0.671000004      -4.73275695E-14
 -0.663999975      -5.81460336E-14
 -0.657000005      -6.31096195E-14
 -0.649999976      -6.33493773E-14
 -0.643000007      -6.09647966E-14
 -0.635999978      -5.76671279E-14
 -0.629000008      -5.32874831E-14
 -0.621999979      -4.48208026E-14
 -0.615000010      -2.65810526E-14
 -0.607999980       8.32205636E-15
 -0.601000011       6.54962602E-14
 -0.593999982       1.46561853E-13
 -0.587000012       2.47251601E-13
 -0.579999983       3.57188725E-13
 -0.573000014       4.61693997E-13
 -0.565999985       5.45241966E-13
 -0.559000015       5.95514198E-13
 -0.551999986       6.06665597E-13
 -0.545000017       5.80589884E-13
 -0.537999988       5.25648969E-13
 -0.531000018       4.53267686E-13
 -0.523999989       3.73661578E-13
 -0.517000020       2.92379673E-13
 -0.509999990       2.09106590E-13
 -0.503000021       1.19320921E-13
 -0.495999992       1.82424181E-14
 -0.488999993      -9.45188006E-14
 -0.481999993      -2.11648800E-13
 -0.474999994      -3.17827687E-13
 -0.467999995      -3.93020116E-13
 -0.460999995      -4.18487077E-13
 -0.453999996      -3.83401291E-13
 -0.446999997      -2.89435115E-13
 -0.439999998      -1.51201019E-13
 -0.432999998       8.14296225E-15
 -0.425999999       1.64938294E-13
 -0.419000000       3.03944939E-13
 -0.412000000       4.24708391E-13
 -0.405000001       5.42604698E-13
 -0.398000002       6.83603456E-13
 -0.391000003       8.74154752E-13
 -0.384000003       1.12963176E-12
 -0.377000004       1.44563745E-12
 -0.370000005       1.79576970E-12
 -0.363000005       2.13726671E-12
 -0.356000006       2.42307281E-12
 -0.349000007       2.61629368E-12
 -0.342000008       2.70178780E-12
 -0.335000008       2.69037722E-12
 -0.328000009       2.61365387E-12
 -0.321000010       2.51086608E-12
 -0.314000010       2.41253263E-12
 -0.307000011       2.32703613E-12
 -0.300000012       2.23573091E-12
 -0.293000013       2.09916589E-12
 -0.286000013       1.87290092E-12
 -0.279000014       1.52749059E-12
 -0.272000015       1.06515588E-12
 -0.264999986       5.26299327E-13
 -0.257999986      -1.76614247E-14
 -0.250999987      -4.83753283E-13
 -0.244000003      -8.03052828E-13
 -0.237000003      -9.43500269E-13
 -0.230000004      -9.21395447E-13
 -0.223000005      -7.96667636E-13
 -0.216000006      -6.52701255E-13
 -0.209000006      -5.67226171E-13
 -0.202000007      -5.84362691E-13
 -0.194999993      -6.97899204E-13
 -0.187999994      -8.52132221E-13
 -0.180999994      -9.60353975E-13
 -0.173999995      -9.34555168E-13
 -0.166999996      -7.15592516E-13
 -0.159999996      -2.92705259E-13
 -0.152999997       2.94994335E-13
 -0.145999998       9.75689798E-13
 -0.138999999       1.67422489E-12
 -0.131999999       2.34225616E-12
 -0.125000000       2.97725343E-12
 -0.118000001       3.62232249E-12
 -0.111000001       4.34613933E-12
 -0.104000002       5.21004117E-12
  -9.70000029E-02   6.23468334E-12
  -9.00000036E-02   7.37943907E-12
  -8.29999968E-02   8.54332490E-12
  -7.59999976E-02   9.58842814E-12
  -6.89999983E-02   1.03782243E-11
  -6.19999990E-02   1.08172351E-11
  -5.49999997E-02   1.08774248E-11
  -4.80000004E-02   1.06012673E-11
  -4.10000011E-02   1.00798267E-11
  -3.40000018E-02   9.41349342E-12
  -2.70000007E-02   8.66958848E-12
  -1.99999996E-02   7.85260225E-12
  -1.30000003E-02   6.89827839E-12
  -6.00000005E-03   5.69409667E-12
   1.00000005E-03   4.11883722E-12
   8.00000038E-03   2.08662579E-12
   1.49999997E-02  -4.21001043E-13
   2.19999999E-02  -3.34733716E-12
   2.89999992E-02  -6.58081359E-12
   3.59999985E-02  -9.99693644E-12
   4.30000015E-02  -1.35077201E-11
   5.00000007E-02  -1.71022016E-11
   5.70000000E-02  -2.08646572E-11
   6.40000030E-02  -2.49656112E-11
   7.10000023E-02  -2.96305862E-11
   7.80000016E-02  -3.50993679E-11
   8.50000009E-02  -4.15915392E-11
   9.20000002E-02  -4.92915743E-11
   9.89999995E-02  -5.83595117E-11
  0.105999999      -6.89635016E-11
  0.112999998      -8.13231357E-11
  0.119999997      -9.57485133E-11
  0.127000004      -1.12662546E-10
  0.134000003      -1.32599126E-10
  0.141000003      -1.56179306E-10
  0.148000002      -1.84074589E-10
  0.155000001      -2.16970622E-10
  0.162000000      -2.55543753E-10
  0.169000000      -3.00459768E-10
  0.175999999      -3.52396418E-10
  0.182999998      -4.12083534E-10
  0.189999998      -4.80351758E-10
  0.196999997      -5.58177837E-10
  0.203999996      -6.46717013E-10
  0.210999995      -7.47318263E-10
  0.217999995      -8.61524074E-10
  0.224999994      -9.91059124E-10
  0.231999993      -1.13781740E-09
  0.238999993      -1.30385425E-09
  0.246000007      -1.49139234E-09
  0.252999991      -1.70283887E-09
  0.259999990      -1.94081640E-09
  0.266999990      -2.20819896E-09
  0.273999989      -2.50814924E-09
  0.280999988      -2.84414647E-09
  0.287999988      -3.22000449E-09
  0.294999987      -3.63987951E-09
  0.301999986      -4.10827150E-09
  0.308999985      -4.63002436E-09
  0.316000015      -5.21033838E-09
  0.323000014      -5.85479576E-09
  0.330000013      -6.56939925E-09
  0.337000012      -7.36063610E-09
  0.344000012      -8.23553670E-09
  0.351000011      -9.20173804E-09
  0.358000010      -1.02675290E-08
  0.365000010      -1.14418715E-08
  0.372000009      -1.27344100E-08
  0.379000008      -1.41554599E-08
  0.386000007      -1.57160027E-08
  0.393000007      -1.74277002E-08
  0.400000006      -1.93029130E-08
  0.407000005      -2.13547757E-08
  0.414000005      -2.35972717E-08
  0.421000004      -2.60452921E-08
  0.428000003      -2.87147053E-08
  0.435000002      -3.16223776E-08
  0.442000002      -3.47861651E-08
  0.449000001      -3.82248793E-08
  0.456000000      -4.19582520E-08
  0.463000000      -4.60069138E-08
  0.469999999      -5.03924227E-08
  0.476999998      -5.51373098E-08
  0.483999997      -6.02651653E-08
  0.490999997      -6.58007124E-08
  0.497999996      -7.17699038E-08
  0.504999995      -7.81998466E-08
  0.512000024      -8.51188204E-08
  0.518999994      -9.25561636E-08
  0.526000023      -1.00542103E-07
  0.532999992      -1.09107631E-07
  0.540000021      -1.18284440E-07
  0.546999991      -1.28104915E-07
  0.554000020      -1.38602047E-07
  0.560999990      -1.49809566E-07
  0.568000019      -1.61761804E-07
  0.574999988      -1.74493721E-07
  0.582000017      -1.88040744E-07
  0.588999987      -2.02438684E-07
  0.596000016      -2.17723453E-07
  0.602999985      -2.33930763E-07
  0.610000014      -2.51096168E-07
  0.616999984      -2.69254741E-07
  0.624000013      -2.88441072E-07
  0.630999982      -3.08689152E-07
  0.638000011      -3.30032151E-07
  0.644999981      -3.52502411E-07
  0.652000010      -3.76131112E-07
  0.658999979      -4.00948124E-07
  0.666000009      -4.26981586E-07
  0.672999978      -4.54257560E-07
  0.680000007      -4.82799919E-07
  0.686999977      -5.12630038E-07
  0.694000006      -5.43766703E-07
  0.700999975      -5.76225943E-07
  0.708000004      -6.10020948E-07
  0.714999974      -6.45161492E-07
  0.722000003      -6.81654456E-07
  0.728999972      -7.19502680E-07
  0.736000001      -7.58705141E-07
  0.742999971      -7.99256668E-07
  0.750000000      -8.41147653E-07
  0.757000029      -8.84363828E-07
  0.763999999      -9.28886323E-07
  0.771000028      -9.74691602E-07
  0.777999997      -1.02175125E-06
  0.785000026      -1.07003189E-06
  0.791999996      -1.11949521E-06
  0.799000025      -1.17009768E-06
  0.805999994      -1.22179074E-06
  0.813000023      -1.27452040E-06
  0.819999993      -1.32822720E-06
  0.827000022      -1.38284645E-06
  0.833999991      -1.43830800E-06
  0.841000021      -1.49453683E-06
  0.847999990      -1.55145301E-06
  0.855000019      -1.60897230E-06
  0.861999989      -1.66700545E-06
  0.869000018      -1.72545970E-06
  0.875999987      -1.78423784E-06
  0.883000016      -1.84323869E-06
  0.889999986      -1.90235733E-06
  0.897000015      -1.96148540E-06
  0.903999984      -2.02051183E-06
  0.911000013      -2.07932248E-06
  0.917999983      -2.13779981E-06
  0.925000012      -2.19582626E-06
  0.931999981      -2.25328199E-06
  0.939000010      -2.31004583E-06
  0.945999980      -2.36599567E-06
  0.953000009      -2.42101146E-06
  0.959999979      -2.47497178E-06
  0.967000008      -2.52775612E-06
  0.973999977      -2.57924512E-06
  0.981000006      -2.62932190E-06
  0.987999976      -2.67787095E-06
  0.995000005      -2.72477882E-06
   1.00199997      -2.76993615E-06
   1.00899994      -2.81323651E-06
   1.01600003      -2.85457759E-06
   1.02300000      -2.89386048E-06
   1.02999997      -2.93099129E-06
   1.03699994      -2.96588109E-06
   1.04400003      -2.99844578E-06
   1.05100000      -3.02860690E-06
   1.05799997      -3.05629328E-06
   1.06500006      -3.08143854E-06
   1.07200003      -3.10398354E-06
   1.07900000      -3.12387601E-06
   1.08599997      -3.14107115E-06
   1.09300005      -3.15553143E-06
   1.10000002      -3.16722526E-06
   1.10699999      -3.17613012E-06
   1.11399996      -3.18222806E-06
   1.12100005      -3.18551133E-06
   1.12800002      -3.18597904E-06
   1.13499999      -3.18363914E-06
   1.14199996      -3.17850709E-06
   1.14900005      -3.17060585E-06
   1.15600002      -3.15996726E-06
   1.16299999      -3.14662930E-06
   1.16999996      -3.13063697E-06
   1.17700005      -3.11204303E-06
   1.18400002      -3.09090638E-06
   1.19099998      -3.06729362E-06
   1.19799995      -3.04127980E-06
   1.20500004      -3.01294790E-06
   1.21200001      -2.98238797E-06
   1.21899998      -2.94969823E-06
   1.22599995      -2.91498350E-06
   1.23300004      -2.87835383E-06
   1.24000001      -2.83992586E-06
   1.24699998      -2.79982123E-06
   1.25399995      -2.75816706E-06
   1.26100004      -2.71509862E-06
   1.26800001      -2.67075620E-06
   1.27499998      -2.62528783E-06
   1.28199995      -2.57884699E-06
   1.28900003      -2.53159283E-06
   1.29600000      -2.48368815E-06
   1.30299997      -2.43530053E-06
   1.30999994      -2.38659959E-06
   1.31700003      -2.33775950E-06
   1.32400000      -2.28895829E-06
   1.33099997      -2.24037854E-06
   1.33800006      -2.19220919E-06
   1.34500003      -2.14464376E-06
   1.35200000      -2.09787936E-06
   1.35899997      -2.05211609E-06
   1.36600006      -2.00755585E-06
   1.37300003      -1.96440124E-06
   1.38000000      -1.92285415E-06
   1.38699996      -1.88311697E-06
   1.39400005      -1.84539340E-06
   1.40100002      -1.80988889E-06
   1.40799999      -1.77681090E-06
   1.41499996      -1.74636784E-06
   1.42200005      -1.71876832E-06
   1.42900002      -1.69421980E-06
   1.43599999      -1.67292637E-06
   1.44299996      -1.65508698E-06
   1.45000005      -1.64089602E-06
   1.45700002      -1.63054244E-06
   1.46399999      -1.62421031E-06
   1.47099996      -1.62207971E-06
   1.47800004      -1.62432673E-06
   1.48500001      -1.63112225E-06
   1.49199998      -1.64263156E-06
   1.49899995      -1.65901156E-06
   1.50600004      -1.68041015E-06
   1.51300001      -1.70696308E-06
   1.51999998      -1.73879482E-06
   1.52699995      -1.77601692E-06
   1.53400004      -1.81872883E-06
   1.54100001      -1.86701891E-06
   1.54799998      -1.92096377E-06
   1.55499995      -1.98062821E-06
   1.56200004      -2.04606431E-06
   1.56900001      -2.11730844E-06
   1.57599998      -2.19438084E-06
   1.58299994      -2.27728538E-06
   1.59000003      -2.36600727E-06
   1.59700000      -2.46051536E-06
   1.60399997      -2.56075964E-06
   1.61099994      -2.66667462E-06
   1.61800003      -2.77817776E-06
   1.62500000      -2.89516970E-06
   1.63199997      -3.01753494E-06
   1.63900006      -3.14514045E-06
   1.64600003      -3.27783596E-06
   1.65300000      -3.41545183E-06
   1.65999997      -3.55780139E-06
   1.66700006      -3.70467978E-06
   1.67400002      -3.85586600E-06
   1.68099999      -4.01112311E-06
   1.68799996      -4.17019919E-06
   1.69500005      -4.33282867E-06
   1.70200002      -4.49873323E-06
   1.70899999      -4.66762276E-06
   1.71599996      -4.83919257E-06
   1.72300005      -5.01312752E-06
   1.73000002      -5.18910292E-06
   1.73699999      -5.36678363E-06
   1.74399996      -5.54582448E-06
   1.75100005      -5.72587578E-06
   1.75800002      -5.90658101E-06
   1.76499999      -6.08757910E-06
   1.77199996      -6.26850715E-06
   1.77900004      -6.44900138E-06
   1.78600001      -6.62869616E-06
   1.79299998      -6.80722724E-06
   1.79999995      -6.98423582E-06
   1.80700004      -7.15936403E-06
   1.81400001      -7.33226034E-06
   1.82099998      -7.50258096E-06
   1.82799995      -7.66998619E-06
   1.83500004      -7.83414180E-06
   1.84200001      -7.99472855E-06
   1.84899998      -8.15143721E-06
   1.85599995      -8.30396766E-06
   1.86300004      -8.45203613E-06
   1.87000000      -8.59537431E-06
   1.87699997      -8.73373028E-06
   1.88399994      -8.86687030E-06
   1.89100003      -8.99457700E-06
   1.89800000      -9.11665393E-06
   1.90499997      -9.23291373E-06
   1.91199994      -9.34319087E-06
   1.91900003      -9.44733529E-06
   1.92600000      -9.54521602E-06
   1.93299997      -9.63672119E-06
   1.94000006      -9.72176531E-06
   1.94700003      -9.80027926E-06
   1.95400000      -9.87221665E-06
   1.96099997      -9.93755020E-06
   1.96800005      -9.99627537E-06
   1.97500002      -1.00483994E-05
   1.98199999      -1.00939451E-05
   1.98899996      -1.01329542E-05
   1.99600005      -1.01654814E-05
   2.00300002      -1.01916021E-05
   2.00999999      -1.02114027E-05
   2.01699996      -1.02249915E-05
   2.02399993      -1.02324884E-05
   2.03099990      -1.02340255E-05
   2.03800011      -1.02297499E-05
   2.04500008      -1.02198173E-05
   2.05200005      -1.02043841E-05
   2.05900002      -1.01836176E-05
   2.06599998      -1.01576916E-05
   2.07299995      -1.01267869E-05
   2.07999992      -1.00910875E-05
   2.08699989      -1.00507868E-05
   2.09400010      -1.00060806E-05
   2.10100007      -9.95716891E-06
   2.10800004      -9.90424905E-06
   2.11500001      -9.84751932E-06
   2.12199998      -9.78716980E-06
   2.12899995      -9.72339240E-06
   2.13599992      -9.65637082E-06
   2.14299989      -9.58628516E-06
   2.15000010      -9.51330730E-06
   2.15700006      -9.43761552E-06
   2.16400003      -9.35937987E-06
   2.17100000      -9.27876681E-06
   2.17799997      -9.19593913E-06
   2.18499994      -9.11104780E-06
   2.19199991      -9.02423290E-06
   2.19899988      -8.93562446E-06
   2.20600009      -8.84534256E-06
   2.21300006      -8.75350088E-06
   2.22000003      -8.66020946E-06
   2.22700000      -8.56557381E-06
   2.23399997      -8.46968851E-06
   2.24099994      -8.37265088E-06
   2.24799991      -8.27454187E-06
   2.25500011      -8.17544606E-06
   2.26200008      -8.07542892E-06
   2.26900005      -7.97455687E-06
   2.27600002      -7.87288445E-06
   2.28299999      -7.77046262E-06
   2.28999996      -7.66734775E-06
   2.29699993      -7.56359168E-06
   2.30399990      -7.45924581E-06
   2.31100011      -7.35436242E-06
   2.31800008      -7.24899110E-06
   2.32500005      -7.14318048E-06
   2.33200002      -7.03697469E-06
   2.33899999      -6.93042102E-06
   2.34599996      -6.82356495E-06
   2.35299993      -6.71645421E-06
   2.35999990      -6.60914384E-06
   2.36700010      -6.50169295E-06
   2.37400007      -6.39416885E-06
   2.38100004      -6.28664156E-06
   2.38800001      -6.17918477E-06
   2.39499998      -6.07187576E-06
   2.40199995      -5.96479276E-06
   2.40899992      -5.85802036E-06
   2.41599989      -5.75164768E-06
   2.42300010      -5.64576885E-06
   2.43000007      -5.54048665E-06
   2.43700004      -5.43591068E-06
   2.44400001      -5.33215643E-06
   2.45099998      -5.22934715E-06
   2.45799994      -5.12760835E-06
   2.46499991      -5.02706826E-06
   2.47199988      -4.92785603E-06
   2.47900009      -4.83010308E-06
   2.48600006      -4.73394311E-06
   2.49300003      -4.63951028E-06
   2.50000000      -4.54694509E-06
   2.50699997      -4.45638852E-06
   2.51399994      -4.36798337E-06
   2.52099991      -4.28186968E-06
   2.52800012      -4.19818662E-06
   2.53500009      -4.11707015E-06
   2.54200006      -4.03865261E-06
   2.54900002      -3.96306041E-06
   2.55599999      -3.89041179E-06
   2.56299996      -3.82082180E-06
   2.56999993      -3.75439868E-06
   2.57699990      -3.69124496E-06
   2.58400011      -3.63145728E-06
   2.59100008      -3.57512317E-06
   2.59800005      -3.52232132E-06
   2.60500002      -3.47311970E-06
   2.61199999      -3.42757676E-06
   2.61899996      -3.38573977E-06
   2.62599993      -3.34764559E-06
   2.63299990      -3.31331853E-06
   2.64000010      -3.28276997E-06
   2.64700007      -3.25599785E-06
   2.65400004      -3.23298809E-06
   2.66100001      -3.21371249E-06
   2.66799998      -3.19813034E-06
   2.67499995      -3.18618777E-06
   2.68199992      -3.17781883E-06
   2.68899989      -3.17294644E-06
   2.69600010      -3.17148238E-06
   2.70300007      -3.17333024E-06
   2.71000004      -3.17838180E-06
   2.71700001      -3.18651678E-06
   2.72399998      -3.19760306E-06
   2.73099995      -3.21149628E-06
   2.73799992      -3.22804522E-06
   2.74499989      -3.24709049E-06
   2.75200009      -3.26846794E-06
   2.75900006      -3.29200702E-06
   2.76600003      -3.31753290E-06
   2.77300000      -3.34486731E-06
   2.77999997      -3.37382630E-06
   2.78699994      -3.40422412E-06
   2.79399991      -3.43586930E-06
   2.80100012      -3.46856723E-06
   2.80800009      -3.50212167E-06
   2.81500006      -3.53633777E-06
   2.82200003      -3.57102635E-06
   2.82900000      -3.60600416E-06
   2.83599997      -3.64109474E-06
   2.84299994      -3.67612506E-06
   2.84999990      -3.71092824E-06
   2.85700011      -3.74534034E-06
   2.86400008      -3.77920469E-06
   2.87100005      -3.81237010E-06
   2.87800002      -3.84469104E-06
   2.88499999      -3.87603222E-06
   2.89199996      -3.90626883E-06
   2.89899993      -3.93528899E-06
   2.90599990      -3.96299447E-06
   2.91300011      -3.98929888E-06
   2.92000008      -4.01412808E-06
   2.92700005      -4.03741342E-06
   2.93400002      -4.05909805E-06
   2.94099998      -4.07913467E-06
   2.94799995      -4.09748736E-06
   2.95499992      -4.11413475E-06
   2.96199989      -4.12906684E-06
   2.96900010      -4.14228361E-06
   2.97600007      -4.15379918E-06
   2.98300004      -4.16363810E-06
   2.99000001      -4.17183446E-06
   2.99699998      -4.17843285E-06
   3.00399995      -4.18348327E-06
   3.01099992      -4.18704349E-06
   3.01799989      -4.18917807E-06
   3.02500010      -4.18996342E-06
   3.03200006      -4.18948366E-06
   3.03900003      -4.18782975E-06
   3.04600000      -4.18509808E-06
   3.05299997      -4.18138552E-06
   3.05999994      -4.17679303E-06
   3.06699991      -4.17142110E-06
   3.07399988      -4.16537478E-06
   3.08100009      -4.15875502E-06
   3.08800006      -4.15166778E-06
   3.09500003      -4.14421766E-06
   3.10200000      -4.13650969E-06
   3.10899997      -4.12865029E-06
   3.11599994      -4.12074223E-06
   3.12299991      -4.11288238E-06
   3.13000011      -4.10515895E-06
   3.13700008      -4.09764971E-06
   3.14400005      -4.09042877E-06
   3.15100002      -4.08356163E-06
   3.15799999      -4.07711423E-06
   3.16499996      -4.07114749E-06
   3.17199993      -4.06571826E-06
   3.17899990      -4.06087702E-06
   3.18600011      -4.05666606E-06
   3.19300008      -4.05311721E-06
   3.20000005      -4.05025139E-06
   3.20700002      -4.04807588E-06
   3.21399999      -4.04658840E-06
   3.22099996      -4.04577713E-06
   3.22799993      -4.04562616E-06
   3.23499990      -4.04611910E-06
   3.24200010      -4.04723596E-06
   3.24900007      -4.04895218E-06
   3.25600004      -4.05123410E-06
   3.26300001      -4.05403716E-06
   3.26999998      -4.05730725E-06
   3.27699995      -4.06098025E-06
   3.28399992      -4.06498611E-06
   3.29099989      -4.06924937E-06
   3.29800010      -4.07369407E-06
   3.30500007      -4.07824746E-06
   3.31200004      -4.08284131E-06
   3.31900001      -4.08741244E-06
   3.32599998      -4.09189761E-06
   3.33299994      -4.09622726E-06
   3.33999991      -4.10032726E-06
   3.34699988      -4.10411712E-06
   3.35400009      -4.10751500E-06
   3.36100006      -4.11044357E-06
   3.36800003      -4.11282963E-06
   3.37500000      -4.11461042E-06
   3.38199997      -4.11573228E-06
   3.38899994      -4.11615292E-06
   3.39599991      -4.11583778E-06
   3.40300012      -4.11475867E-06
   3.41000009      -4.11288784E-06
   3.41700006      -4.11019619E-06
   3.42400002      -4.10665461E-06
   3.43099999      -4.10223993E-06
   3.43799996      -4.09693939E-06
   3.44499993      -4.09075074E-06
   3.45199990      -4.08368714E-06
   3.45900011      -4.07577181E-06
   3.46600008      -4.06704021E-06
   3.47300005      -4.05753417E-06
   3.48000002      -4.04730008E-06
   3.48699999      -4.03638842E-06
   3.49399996      -4.02485330E-06
   3.50099993      -4.01274929E-06
   3.50799990      -4.00013869E-06
   3.51500010      -3.98709153E-06
   3.52200007      -3.97369013E-06
   3.52900004      -3.96002861E-06
   3.53600001      -3.94620520E-06
   3.54299998      -3.93232358E-06
   3.54999995      -3.91848653E-06
   3.55699992      -3.90479772E-06
   3.56399989      -3.89135994E-06
   3.57100010      -3.87827959E-06
   3.57800007      -3.86566080E-06
   3.58500004      -3.85361091E-06
   3.59200001      -3.84223858E-06
   3.59899998      -3.83165889E-06
   3.60599995      -3.82198732E-06
   3.61299992      -3.81333916E-06
   3.61999989      -3.80582901E-06
   3.62700009      -3.79956191E-06
   3.63400006      -3.79463813E-06
   3.64100003      -3.79115340E-06
   3.64800000      -3.78920049E-06
   3.65499997      -3.78886784E-06
   3.66199994      -3.79023913E-06
   3.66899991      -3.79339258E-06
   3.67600012      -3.79840162E-06
   3.68300009      -3.80533356E-06
   3.69000006      -3.81425025E-06
   3.69700003      -3.82520511E-06
   3.70400000      -3.83824272E-06
   3.71099997      -3.85339672E-06
   3.71799994      -3.87069394E-06
   3.72499990      -3.89015304E-06
   3.73200011      -3.91178946E-06
   3.73900008      -3.93560913E-06
   3.74600005      -3.96160931E-06
   3.75300002      -3.98977863E-06
   3.75999999      -4.02009709E-06
   3.76699996      -4.05253695E-06
   3.77399993      -4.08706364E-06
   3.78099990      -4.12363488E-06
   3.78800011      -4.16219746E-06
   3.79500008      -4.20268952E-06
   3.80200005      -4.24504105E-06
   3.80900002      -4.28917747E-06
   3.81599998      -4.33501828E-06
   3.82299995      -4.38247616E-06
   3.82999992      -4.43145746E-06
   3.83699989      -4.48186211E-06
   3.84400010      -4.53358416E-06
   3.85100007      -4.58651903E-06
   3.85800004      -4.64055574E-06
   3.86500001      -4.69557972E-06
   3.87199998      -4.75147317E-06
   3.87899995      -4.80811332E-06
   3.88599992      -4.86537738E-06
   3.89299989      -4.92313757E-06
   3.90000010      -4.98127065E-06
   3.90700006      -5.03964748E-06
   3.91400003      -5.09813844E-06
   3.92100000      -5.15661532E-06
   3.92799997      -5.21494985E-06
   3.93499994      -5.27301881E-06
   3.94199991      -5.33070215E-06
   3.94899988      -5.38788117E-06
   3.95600009      -5.44443992E-06
   3.96300006      -5.50026471E-06
   3.97000003      -5.55524912E-06
   3.97700000      -5.60928765E-06
   3.98399997      -5.66228164E-06
   3.99099994      -5.71413557E-06
   3.99799991      -5.76475941E-06
   4.00500011      -5.81406948E-06
   4.01200008      -5.86199030E-06
   4.01900005      -5.90845548E-06
   4.02600002      -5.95340816E-06
   4.03299999      -5.99679834E-06
   4.03999996      -6.03858007E-06
   4.04699993      -6.07871652E-06
   4.05399990      -6.11717496E-06
   4.06099987      -6.15393174E-06
   4.06799984      -6.18896729E-06
   4.07499981      -6.22227162E-06
   4.08199978      -6.25383882E-06
   4.08900023      -6.28367206E-06
   4.09600019      -6.31178364E-06
   4.10300016      -6.33819582E-06
   4.11000013      -6.36293771E-06
   4.11700010      -6.38604570E-06
   4.12400007      -6.40756116E-06
   4.13100004      -6.42753366E-06
   4.13800001      -6.44601550E-06
   4.14499998      -6.46306671E-06
   4.15199995      -6.47875277E-06
   4.15899992      -6.49314188E-06
   4.16599989      -6.50630682E-06
   4.17299986      -6.51832488E-06
   4.17999983      -6.52927974E-06
   4.18699980      -6.53925690E-06
   4.19399977      -6.54834776E-06
   4.20100021      -6.55664280E-06
   4.20800018      -6.56423435E-06
   4.21500015      -6.57121473E-06
   4.22200012      -6.57767669E-06
   4.22900009      -6.58371255E-06
   4.23600006      -6.58941326E-06
   4.24300003      -6.59486932E-06
   4.25000000      -6.60017213E-06
   4.25699997      -6.60541173E-06
   4.26399994      -6.61067952E-06
   4.27099991      -6.61606464E-06
   4.27799988      -6.62165394E-06
   4.28499985      -6.62752655E-06
   4.29199982      -6.63375613E-06
   4.29899979      -6.64041045E-06
   4.30600023      -6.64755134E-06
   4.31300020      -6.65523794E-06
   4.32000017      -6.66352071E-06
   4.32700014      -6.67244876E-06
   4.33400011      -6.68206440E-06
   4.34100008      -6.69240853E-06
   4.34800005      -6.70351392E-06
   4.35500002      -6.71540556E-06
   4.36199999      -6.72809711E-06
   4.36899996      -6.74159219E-06
   4.37599993      -6.75588535E-06
   4.38299990      -6.77096295E-06
   4.38999987      -6.78680817E-06
   4.39699984      -6.80339872E-06
   4.40399981      -6.82070913E-06
   4.41099977      -6.83870667E-06
   4.41800022      -6.85735677E-06
   4.42500019      -6.87661532E-06
   4.43200016      -6.89643048E-06
   4.43900013      -6.91674086E-06
   4.44600010      -6.93747415E-06
   4.45300007      -6.95854987E-06
   4.46000004      -6.97988253E-06
   4.46700001      -7.00138298E-06
   4.47399998      -7.02296347E-06
   4.48099995      -7.04453214E-06
   4.48799992      -7.06599485E-06
   4.49499989      -7.08725429E-06
   4.50199986      -7.10821041E-06
   4.50899982      -7.12875999E-06
   4.51599979      -7.14879297E-06
   4.52299976      -7.16819568E-06
   4.53000021      -7.18685033E-06
   4.53700018      -7.20463731E-06
   4.54400015      -7.22143977E-06
   4.55100012      -7.23714174E-06
   4.55800009      -7.25163500E-06
   4.56500006      -7.26481221E-06
   4.57200003      -7.27657198E-06
   4.57900000      -7.28681562E-06
   4.58599997      -7.29544581E-06
   4.59299994      -7.30236843E-06
   4.59999990      -7.30748889E-06
   4.60699987      -7.31071077E-06
   4.61399984      -7.31194086E-06
   4.62099981      -7.31109094E-06
   4.62799978      -7.30808188E-06
   4.63500023      -7.30284319E-06
   4.64200020      -7.29531484E-06
   4.64900017      -7.28544410E-06
   4.65600014      -7.27318320E-06
   4.66300011      -7.25848759E-06
   4.67000008      -7.24131860E-06
   4.67700005      -7.22164077E-06
   4.68400002      -7.19942454E-06
   4.69099998      -7.17464764E-06
   4.69799995      -7.14729686E-06
   4.70499992      -7.11737448E-06
   4.71199989      -7.08489188E-06
   4.71899986      -7.04987315E-06
   4.72599983      -7.01234922E-06
   4.73299980      -6.97235191E-06
   4.73999977      -6.92991671E-06
   4.74700022      -6.88507862E-06
   4.75400019      -6.83787812E-06
   4.76100016      -6.78836523E-06
   4.76800013      -6.73659770E-06
   4.77500010      -6.68264511E-06
   4.78200006      -6.62658613E-06
   4.78900003      -6.56851216E-06
   4.79600000      -6.50851962E-06
   4.80299997      -6.44670718E-06
   4.80999994      -6.38317260E-06
   4.81699991      -6.31801049E-06
   4.82399988      -6.25131588E-06
   4.83099985      -6.18318609E-06
   4.83799982      -6.11372752E-06
   4.84499979      -6.04305251E-06
   4.85200024      -5.97128201E-06
   4.85900021      -5.89854426E-06
   4.86600018      -5.82496796E-06
   4.87300014      -5.75068407E-06
   4.88000011      -5.67582310E-06
   4.88700008      -5.60051103E-06
   4.89400005      -5.52486927E-06
   4.90100002      -5.44901513E-06
   4.90799999      -5.37306641E-06
   4.91499996      -5.29714134E-06
   4.92199993      -5.22136361E-06
   4.92899990      -5.14585463E-06
   4.93599987      -5.07073673E-06
   4.94299984      -4.99612906E-06
   4.94999981      -4.92214804E-06
   4.95699978      -4.84891098E-06
   4.96400023      -4.77652839E-06
   4.97100019      -4.70510895E-06
   4.97800016      -4.63475635E-06
   4.98500013      -4.56556927E-06
   4.99200010      -4.49764457E-06