  -1.00000000       1.53116740E-17
 -0.992999971       1.94699231E-16
 -0.986000001       6.65342315E-16
 -0.978999972       1.16057003E-15
 -0.972000003       1.35898982E-15
 -0.964999974       2.10837978E-15
 -0.958000004       6.62052048E-15
 -0.950999975       2.05324852E-14
 -0.944000006       5.06281791E-14
 -0.936999977       1.02904813E-13
 -0.930000007       1.80545412E-13
 -0.922999978       2.81649107E-13
 -0.916000009       3.96696022E-13
 -0.908999979       5.07149119E-13
 -0.902000010       5.87792564E-13
 -0.894999981       6.14201615E-13
 -0.888000011       5.72992717E-13
 -0.880999982       4.69088201E-13
 -0.874000013       3.24634200E-13
 -0.866999984       1.69066272E-13
 -0.860000014       2.56499432E-14
 -0.852999985      -9.80276990E-14
 -0.846000016      -2.11185886E-13
 -0.838999987      -3.33523899E-13
 -0.832000017      -4.85541891E-13
 -0.824999988      -6.79066504E-13
 -0.818000019      -9.09657441E-13
 -0.810999990      -1.15254692E-12
 -0.804000020      -1.36544086E-12
 -0.796999991      -1.50130667E-12
 -0.790000021      -1.52938979E-12
 -0.782999992      -1.45538063E-12
 -0.776000023      -1.32822312E-12
 -0.768999994      -1.22630215E-12
 -0.762000024      -1.22741205E-12
 -0.754999995      -1.37691605E-12
 -0.748000026      -1.66947782E-12
 -0.740999997      -2.05148290E-12
 -0.734000027      -2.44080060E-12
 -0.726999998      -2.75477449E-12
 -0.720000029      -2.93808771E-12
 -0.713000000      -2.98453818E-12
 -0.705999970      -2.94719002E-12
 -0.699000001      -2.93058720E-12
 -0.691999972      -3.06213106E-12
 -0.685000002      -3.44955791E-12
 -0.677999973      -4.14203047E-12
 -0.671000004      -5.11488638E-12
 -0.663999975      -6.28761453E-12
 -0.657000005      -7.56665824E-12
 -0.649999976      -8.89163309E-12
 -0.643000007      -1.02637517E-11
 -0.635999978      -1.17468656E-11
 -0.629000008      -1.34453854E-11
 -0.621999979      -1.54697522E-11
 -0.615000010      -1.79001744E-11
 -0.607999980      -2.07573455E-11
 -0.601000011      -2.39897026E-11
 -0.593999982      -2.74869589E-11
 -0.587000012      -3.11230347E-11
 -0.579999983      -3.48162124E-11
 -0.573000014      -3.85814228E-11
 -0.565999985      -4.25475974E-11
 -0.559000015      -4.69278193E-11
 -0.551999986      -5.19537399E-11
 -0.545000017      -5.78019091E-11
 -0.537999988      -6.45395334E-11
 -0.531000018      -7.21051968E-11
 -0.523999989      -8.03249481E-11
 -0.517000020      -8.89571611E-11
 -0.509999990      -9.77560533E-11
 -0.503000021      -1.06540832E-10
 -0.495999992      -1.15250857E-10
 -0.488999993      -1.23967364E-10
 -0.481999993      -1.32886369E-10
 -0.474999994      -1.42251530E-10
 -0.467999995      -1.52271709E-10
 -0.460999995      -1.63059191E-10
 -0.453999996      -1.74605747E-10
 -0.446999997      -1.86799395E-10
 -0.439999998      -1.99460962E-10
 -0.432999998      -2.12384471E-10
 -0.425999999      -2.25364630E-10
 -0.419000000      -2.38211423E-10
 -0.412000000      -2.50743121E-10
 -0.405000001      -2.62751237E-10
 -0.398000002      -2.73941592E-10
 -0.391000003      -2.83869095E-10
 -0.384000003      -2.91894120E-10
 -0.377000004      -2.97181585E-10
 -0.370000005      -2.98750663E-10
 -0.363000005      -2.95558106E-10
 -0.356000006      -2.86589086E-10
 -0.349000007      -2.70922312E-10
 -0.342000008      -2.47758841E-10
 -0.335000008      -2.16410737E-10
 -0.328000009      -1.76243312E-10
 -0.321000010      -1.26579358E-10
 -0.314000010      -6.65651562E-11
 -0.307000011       4.96177925E-12
 -0.300000012       8.95523170E-11
 -0.293000013       1.89173871E-10
 -0.286000013       3.06141640E-10
 -0.279000014       4.43023562E-10
 -0.272000015       6.02540073E-10
 -0.264999986       7.87494014E-10
 -0.257999986       1.00074715E-09
 -0.250999987       1.24526534E-09
 -0.244000003       1.52420487E-09
 -0.237000003       1.84100046E-09
 -0.230000004       2.19946528E-09
 -0.223000005       2.60381738E-09
 -0.216000006       3.05865266E-09
 -0.209000006       3.56885788E-09
 -0.202000007       4.13948120E-09
 -0.194999993       4.77562878E-09
 -0.187999994       5.48243362E-09
 -0.180999994       6.26515684E-09
 -0.173999995       7.12932602E-09
 -0.166999996       8.08091638E-09
 -0.159999996       9.12642495E-09
 -0.152999997       1.02729176E-08
 -0.145999998       1.15279812E-08
 -0.138999999       1.28994797E-08
 -0.131999999       1.43954182E-08
 -0.125000000       1.60237033E-08
 -0.118000001       1.77920647E-08
 -0.111000001       1.97080166E-08
 -0.104000002       2.17790355E-08
  -9.70000029E-02   2.40126745E-08
  -9.00000036E-02   2.64168456E-08
  -8.29999968E-02   2.89998567E-08
  -7.59999976E-02   3.17704583E-08
  -6.89999983E-02   3.47376563E-08
  -6.19999990E-02   3.79104321E-08
  -5.49999997E-02   4.12976355E-08
  -4.80000004E-02   4.49078179E-08
  -4.10000011E-02   4.87489054E-08
  -3.40000018E-02   5.28283657E-08
  -2.70000007E-02   5.71531693E-08
  -1.99999996E-02   6.17298284E-08
  -1.30000003E-02   6.65643256E-08
  -6.00000005E-03   7.16622921E-08
   1.00000005E-03   7.70287443E-08
   8.00000038E-03   8.26678246E-08
   1.49999997E-02   8.85825457E-08
   2.19999999E-02   9.47748404E-08
   2.89999992E-02   1.01245490E-07
   3.59999985E-02   1.07993849E-07
   4.30000015E-02   1.15018139E-07
   5.00000007E-02   1.22315001E-07
   5.70000000E-02   1.29879751E-07
   6.40000030E-02   1.37706266E-07
   7.10000023E-02   1.45786743E-07
   7.80000016E-02   1.54111504E-07
   8.50000009E-02   1.62668556E-07
   9.20000002E-02   1.71443617E-07
   9.89999995E-02   1.80419718E-07
  0.105999999       1.89576781E-07
  0.112999998       1.98891939E-07
  0.119999997       2.08339230E-07
  0.127000004       2.17889550E-07
  0.134000003       2.27510810E-07
  0.141000003       2.37168237E-07
  0.148000002       2.46823987E-07
  0.155000001       2.56436778E-07
  0.162000000       2.65961916E-07
  0.169000000       2.75351397E-07
  0.175999999       2.84554005E-07
  0.182999998       2.93514404E-07
  0.189999998       3.02173703E-07
  0.196999997       3.10468550E-07
  0.203999996       3.18330848E-07
  0.210999995       3.25689115E-07
  0.217999995       3.32468971E-07
  0.224999994       3.38591917E-07
  0.231999993       3.43975501E-07
  0.238999993       3.48533064E-07
  0.246000007       3.52173913E-07
  0.252999991       3.54803632E-07
  0.259999990       3.56324307E-07
  0.266999990       3.56634558E-07
  0.273999989       3.55630249E-07
  0.280999988       3.53202438E-07
  0.287999988       3.49239770E-07
  0.294999987       3.43628273E-07
  0.301999986       3.36252924E-07
  0.308999985       3.26996002E-07
  0.316000015       3.15737822E-07
  0.323000014       3.02355403E-07
  0.330000013       2.86724656E-07
  0.337000012       2.68720157E-07
  0.344000012       2.48216935E-07
  0.351000011       2.25090645E-07
  0.358000010       1.99214583E-07
  0.365000010       1.70462812E-07
  0.372000009       1.38710149E-07
  0.379000008       1.03834637E-07
  0.386000007       6.57167121E-08
  0.393000007       2.42388669E-08
  0.400000006      -2.07142001E-08
  0.407000005      -6.92544191E-08
  0.414000005      -1.21489890E-07
  0.421000004      -1.77523518E-07
  0.428000003      -2.37450237E-07
  0.435000002      -3.01360984E-07
  0.442000002      -3.69339801E-07
  0.449000001      -4.41466938E-07
  0.456000000      -5.17813987E-07
  0.463000000      -5.98440067E-07
  0.469999999      -6.83395115E-07
  0.476999998      -7.72723695E-07
  0.483999997      -8.66464120E-07
  0.490999997      -9.64645778E-07
  0.497999996      -1.06728487E-06
  0.504999995      -1.17438549E-06
  0.512000024      -1.28593990E-06
  0.518999994      -1.40193072E-06
  0.526000023      -1.52233156E-06
  0.532999992      -1.64710434E-06
  0.540000021      -1.77619586E-06
  0.546999991      -1.90953756E-06
  0.554000020      -2.04705179E-06
  0.560999990      -2.18864557E-06
  0.568000019      -2.33421679E-06
  0.574999988      -2.48365382E-06
  0.582000017      -2.63683046E-06
  0.588999987      -2.79360097E-06
  0.596000016      -2.95380914E-06
  0.602999985      -3.11728877E-06
  0.610000014      -3.28386682E-06
  0.616999984      -3.45335661E-06
  0.624000013      -3.62555670E-06
  0.630999982      -3.80024971E-06
  0.638000011      -3.97721215E-06
  0.644999981      -4.15621480E-06
  0.652000010      -4.33702326E-06
  0.658999979      -4.51938558E-06
  0.666000009      -4.70303621E-06
  0.672999978      -4.88770047E-06
  0.680000007      -5.07310051E-06
  0.686999977      -5.25896394E-06
  0.694000006      -5.44500654E-06
  0.700999975      -5.63093818E-06
  0.708000004      -5.81645827E-06
  0.714999974      -6.00126214E-06
  0.722000003      -6.18505010E-06
  0.728999972      -6.36753157E-06
  0.736000001      -6.54840460E-06
  0.742999971      -6.72735905E-06
  0.750000000      -6.90407842E-06
  0.757000029      -7.07825393E-06
  0.763999999      -7.24958727E-06
  0.771000028      -7.41778877E-06
  0.777999997      -7.58257193E-06
  0.785000026      -7.74364071E-06
  0.791999996      -7.90070135E-06
  0.799000025      -8.05347099E-06
  0.805999994      -8.20168952E-06
  0.813000023      -8.34509501E-06
  0.819999993      -8.48342825E-06
  0.827000022      -8.61642911E-06
  0.833999991      -8.74384750E-06
  0.841000021      -8.86546422E-06
  0.847999990      -8.98107282E-06
  0.855000019      -9.09047139E-06
  0.861999989      -9.19345894E-06
  0.869000018      -9.28983627E-06
  0.875999987      -9.37943787E-06
  0.883000016      -9.46211730E-06
  0.889999986      -9.53773906E-06
  0.897000015      -9.60614761E-06
  0.903999984      -9.66720927E-06
  0.911000013      -9.72082125E-06
  0.917999983      -9.76690262E-06
  0.925000012      -9.80538243E-06
  0.931999981      -9.83619793E-06
  0.939000010      -9.85927818E-06
  0.945999980      -9.87457406E-06
  0.953000009      -9.88205829E-06
  0.959999979      -9.88172997E-06
  0.967000008      -9.87360909E-06
  0.973999977      -9.85770112E-06
  0.981000006      -9.83401696E-06
  0.987999976      -9.80257755E-06
  0.995000005      -9.76344472E-06
   1.00199997      -9.71671034E-06
   1.00899994      -9.66245989E-06
   1.01600003      -9.60076432E-06
   1.02300000      -9.53169729E-06
   1.02999997      -9.45536158E-06
   1.03699994      -9.37188997E-06
   1.04400003      -9.28142708E-06
   1.05100000      -9.18411661E-06
   1.05799997      -9.08009133E-06
   1.06500006      -8.96948677E-06
   1.07200003      -8.85247118E-06
   1.07900000      -8.72923738E-06
   1.08599997      -8.59998545E-06
   1.09300005      -8.46490366E-06
   1.10000002      -8.32416845E-06
   1.10699999      -8.17796263E-06
   1.11399996      -8.02648992E-06
   1.12100005      -7.86998044E-06
   1.12800002      -7.70867155E-06
   1.13499999      -7.54278926E-06
   1.14199996      -7.37254049E-06
   1.14900005      -7.19814534E-06
   1.15600002      -7.01984663E-06
   1.16299999      -6.83790859E-06
   1.16999996      -6.65259267E-06
   1.17700005      -6.46414037E-06
   1.18400002      -6.27278541E-06
   1.19099998      -6.07877428E-06
   1.19799995      -5.88237708E-06
   1.20500004      -5.68387168E-06
   1.21200001      -5.48353273E-06
   1.21899998      -5.28161263E-06
   1.22599995      -5.07835421E-06
   1.23300004      -4.87402076E-06
   1.24000001      -4.66889878E-06
   1.24699998      -4.46328067E-06
   1.25399995      -4.25743929E-06
   1.26100004      -4.05162655E-06
   1.26800001      -3.84609211E-06
   1.27499998      -3.64111224E-06
   1.28199995      -3.43697457E-06
   1.28900003      -3.23396830E-06
   1.29600000      -3.03235652E-06
   1.30299997      -2.83238592E-06
   1.30999994      -2.63431070E-06
   1.31700003      -2.43840168E-06
   1.32400000      -2.24494329E-06
   1.33099997      -2.05420747E-06
   1.33800006      -1.86643649E-06
   1.34500003      -1.68185454E-06
   1.35200000      -1.50069161E-06
   1.35899997      -1.32319531E-06
   1.36600006      -1.14961892E-06
   1.37300003      -9.80196774E-07
   1.38000000      -8.15134456E-07
   1.38699996      -6.54617679E-07
   1.39400005      -4.98840450E-07
   1.40100002      -3.48008484E-07
   1.40799999      -2.02325836E-07
   1.41499996      -6.19691889E-08
   1.42200005       7.29209972E-08
   1.42900002       2.02219155E-07
   1.43599999       3.25788506E-07
   1.44299996       4.43483231E-07
   1.45000005       5.55169152E-07
   1.45700002       6.60746593E-07
   1.46399999       7.60151295E-07
   1.47099996       8.53333006E-07
   1.47800004       9.40233235E-07
   1.48500001       1.02078877E-06
   1.49199998       1.09495500E-06
   1.49899995       1.16272997E-06
   1.50600004       1.22414644E-06
   1.51300001       1.27924386E-06
   1.51999998       1.32804803E-06
   1.52699995       1.37058259E-06
   1.53400004       1.40689554E-06
   1.54100001       1.43707609E-06
   1.54799998       1.46124228E-06
   1.55499995       1.47951607E-06
   1.56200004       1.49200889E-06
   1.56900001       1.49883692E-06
   1.57599998       1.50014262E-06
   1.58299994       1.49611196E-06
   1.59000003       1.48694915E-06
   1.59700000       1.47285436E-06
   1.60399997       1.45400895E-06
   1.61099994       1.43059367E-06
   1.61800003       1.40281873E-06
   1.62500000       1.37092763E-06
   1.63199997       1.33517574E-06
   1.63900006       1.29580656E-06
   1.64600003       1.25305132E-06
   1.65300000       1.20714117E-06
   1.65999997       1.15833075E-06
   1.66700006       1.10689791E-06
   1.67400002       1.05312029E-06
   1.68099999       9.97252869E-07
   1.68799996       9.39529286E-07
   1.69500005       8.80183563E-07
   1.70200002       8.19476099E-07
   1.70899999       7.57683040E-07
   1.71599996       6.95073936E-07
   1.72300005       6.31892362E-07
   1.73000002       5.68357336E-07
   1.73699999       5.04684010E-07
   1.74399996       4.41098962E-07
   1.75100005       3.77837551E-07
   1.75800002       3.15114050E-07
   1.76499999       2.53110926E-07
   1.77199996       1.91990367E-07
   1.77900004       1.31914717E-07
   1.78600001       7.30584944E-08
   1.79299998       1.55974860E-08
   1.79999995      -4.03177225E-08
   1.80700004      -9.45705736E-08
   1.81400001      -1.47069443E-07
   1.82099998      -1.97722727E-07
   1.82799995      -2.46431341E-07
   1.83500004      -2.93101408E-07
   1.84200001      -3.37663920E-07
   1.84899998      -3.80076727E-07
   1.85599995      -4.20311977E-07
   1.86300004      -4.58339628E-07
   1.87000000      -4.94126368E-07
   1.87699997      -5.27648695E-07
   1.88399994      -5.58905015E-07
   1.89100003      -5.87920169E-07
   1.89800000      -6.14728947E-07
   1.90499997      -6.39366078E-07
   1.91199994      -6.61862941E-07
   1.91900003      -6.82258531E-07
   1.92600000      -7.00605540E-07
   1.93299997      -7.16974796E-07
   1.94000006      -7.31442810E-07
   1.94700003      -7.44081092E-07
   1.95400000      -7.54955408E-07
   1.96099997      -7.64133006E-07
   1.96800005      -7.71691191E-07
   1.97500002      -7.77716480E-07
   1.98199999      -7.82303971E-07
   1.98899996      -7.85544898E-07
   1.99600005      -7.87525664E-07
   2.00300002      -7.88328634E-07
   2.00999999      -7.88039472E-07
   2.01699996      -7.86746227E-07
   2.02399993      -7.84536837E-07
   2.03099990      -7.81493725E-07
   2.03800011      -7.77692037E-07
   2.04500008      -7.73202032E-07
   2.05200005      -7.68092946E-07
   2.05900002      -7.62437310E-07
   2.06599998      -7.56310271E-07
   2.07299995      -7.49785443E-07
   2.07999992      -7.42926773E-07
   2.08699989      -7.35786784E-07
   2.09400010      -7.28409873E-07
   2.10100007      -7.20838614E-07
   2.10800004      -7.13122688E-07
   2.11500001      -7.05315472E-07
   2.12199998      -6.97462724E-07
   2.12899995      -6.89600540E-07
   2.13599992      -6.81758252E-07
   2.14299989      -6.73971101E-07
   2.15000010      -6.66279902E-07
   2.15700006      -6.58726265E-07
   2.16400003      -6.51339292E-07
   2.17100000      -6.44128647E-07
   2.17799997      -6.37099276E-07
   2.18499994      -6.30266982E-07
   2.19199991      -6.23667347E-07
   2.19899988      -6.17340447E-07
   2.20600009      -6.11314249E-07
   2.21300006      -6.05599553E-07
   2.22000003      -6.00205738E-07
   2.22700000      -5.95156735E-07
   2.23399997      -5.90491936E-07
   2.24099994      -5.86253407E-07
   2.24799991      -5.82463144E-07
   2.25500011      -5.79122002E-07
   2.26200008      -5.76234640E-07
   2.26900005      -5.73832210E-07
   2.27600002      -5.71971157E-07
   2.28299999      -5.70709403E-07
   2.28999996      -5.70078100E-07
   2.29699993      -5.70084637E-07
   2.30399990      -5.70741520E-07
   2.31100011      -5.72087231E-07
   2.31800008      -5.74181456E-07
   2.32500005      -5.77071262E-07
   2.33200002      -5.80772621E-07
   2.33899999      -5.85283317E-07
   2.34599996      -5.90615002E-07
   2.35299993      -5.96814857E-07
   2.35999990      -6.03948763E-07
   2.36700010      -6.12064923E-07
   2.37400007      -6.21172205E-07
   2.38100004      -6.31257478E-07
   2.38800001      -6.42321879E-07
   2.39499998      -6.54400367E-07
   2.40199995      -6.67539211E-07
   2.40899992      -6.81760866E-07
   2.41599989      -6.97051632E-07
   2.42300010      -7.13384907E-07
   2.43000007      -7.30759609E-07
   2.43700004      -7.49205640E-07
   2.44400001      -7.68755854E-07
   2.45099998      -7.89404396E-07
   2.45799994      -8.11101074E-07
   2.46499991      -8.33780462E-07
   2.47199988      -8.57405325E-07
   2.47900009      -8.81977257E-07
   2.48600006      -9.07502226E-07
   2.49300003      -9.33951185E-07
   2.50000000      -9.61254386E-07
   2.50699997      -9.89336854E-07
   2.51399994      -1.01815715E-06
   2.52099991      -1.04770743E-06
   2.52800012      -1.07797030E-06
   2.53500009      -1.10888220E-06
   2.54200006      -1.14033662E-06
   2.54900002      -1.17223397E-06
   2.55599999      -1.20451807E-06
   2.56299996      -1.23716836E-06
   2.56999993      -1.27015562E-06
   2.57699990      -1.30340015E-06
   2.58400011      -1.33678429E-06
   2.59100008      -1.37020413E-06
   2.59800005      -1.40360623E-06
   2.60500002      -1.43696957E-06
   2.61199999      -1.47025264E-06
   2.61899996      -1.50336587E-06
   2.62599993      -1.53619101E-06
   2.63299990      -1.56863848E-06
   2.64000010      -1.60067054E-06
   2.64700007      -1.63227298E-06
   2.65400004      -1.66340362E-06
   2.66100001      -1.69397242E-06
   2.66799998      -1.72387251E-06
   2.67499995      -1.75303342E-06
   2.68199992      -1.78143659E-06
   2.68899989      -1.80908216E-06
   2.69600010      -1.83593875E-06
   2.70300007      -1.86192813E-06
   2.71000004      -1.88696220E-06
   2.71700001      -1.91099343E-06
   2.72399998      -1.93402843E-06
   2.73099995      -1.95608186E-06
   2.73799992      -1.97713416E-06
   2.74499989      -1.99712576E-06
   2.75200009      -2.01599460E-06
   2.75900006      -2.03372338E-06
   2.76600003      -2.05034303E-06
   2.77300000      -2.06588152E-06
   2.77999997      -2.08032588E-06
   2.78699994      -2.09362452E-06
   2.79399991      -2.10573785E-06
   2.80100012      -2.11667589E-06
   2.80800009      -2.12648956E-06
   2.81500006      -2.13522367E-06
   2.82200003      -2.14288025E-06
   2.82900000      -2.14943111E-06
   2.83599997      -2.15486307E-06
   2.84299994      -2.15921068E-06
   2.84999990      -2.16253693E-06
   2.85700011      -2.16489093E-06
   2.86400008      -2.16627814E-06
   2.87100005      -2.16668377E-06
   2.87800002      -2.16611215E-06
   2.88499999      -2.16461262E-06
   2.89199996      -2.16226317E-06
   2.89899993      -2.15911678E-06
   2.90599990      -2.15518139E-06
   2.91300011      -2.15044656E-06
   2.92000008      -2.14492843E-06
   2.92700005      -2.13868248E-06
   2.93400002      -2.13178009E-06
   2.94099998      -2.12426403E-06
   2.94799995      -2.11614088E-06
   2.95499992      -2.10740927E-06
   2.96199989      -2.09809468E-06
   2.96900010      -2.08826282E-06
   2.97600007      -2.07798325E-06
   2.98300004      -2.06729214E-06
   2.99000001      -2.05618903E-06
   2.99699998      -2.04466596E-06
   3.00399995      -2.03274021E-06
   3.01099992      -2.02045794E-06
   3.01799989      -2.00786076E-06
   3.02500010      -1.99496071E-06
   3.03200006      -1.98174303E-06
   3.03900003      -1.96819497E-06
   3.04600000      -1.95433063E-06
   3.05299997      -1.94018844E-06
   3.05999994      -1.92579500E-06
   3.06699991      -1.91114668E-06
   3.07399988      -1.89621426E-06
   3.08100009      -1.88097272E-06
   3.08800006      -1.86541899E-06
   3.09500003      -1.84956514E-06
   3.10200000      -1.83340990E-06
   3.10899997      -1.81692383E-06
   3.11599994      -1.80005941E-06
   3.12299991      -1.78277753E-06
   3.13000011      -1.76505887E-06
   3.13700008      -1.74688955E-06
   3.14400005      -1.72824355E-06
   3.15100002      -1.70906844E-06
   3.15799999      -1.68930330E-06
   3.16499996      -1.66889470E-06
   3.17199993      -1.64781034E-06
   3.17899990      -1.62602441E-06
   3.18600011      -1.60350032E-06
   3.19300008      -1.58018258E-06
   3.20000005      -1.55601026E-06
   3.20700002      -1.53092935E-06
   3.21399999      -1.50489905E-06
   3.22099996      -1.47788046E-06
   3.22799993      -1.44982459E-06
   3.23499990      -1.42066983E-06
   3.24200010      -1.39035353E-06
   3.24900007      -1.35882271E-06
   3.25600004      -1.32603952E-06
   3.26300001      -1.29197588E-06
   3.26999998      -1.25660097E-06
   3.27699995      -1.21987716E-06
   3.28399992      -1.18176513E-06
   3.29099989      -1.14223144E-06
   3.29800010      -1.10125882E-06
   3.30500007      -1.05883339E-06
   3.31200004      -1.01494072E-06
   3.31900001      -9.69562393E-07
   3.32599998      -9.22685786E-07
   3.33299994      -8.74311809E-07
   3.33999991      -8.24457970E-07
   3.34699988      -7.73157296E-07
   3.35400009      -7.20447815E-07
   3.36100006      -6.66366248E-07
   3.36800003      -6.10943403E-07
   3.37500000      -5.54215319E-07
   3.38199997      -4.96233440E-07
   3.38899994      -4.37064358E-07
   3.39599991      -3.76780463E-07
   3.40300012      -3.15452070E-07
   3.41000009      -2.53152081E-07
   3.41700006      -1.89964311E-07
   3.42400002      -1.25991832E-07
   3.43099999      -6.13549318E-08
   3.43799996       3.82220877E-09
   3.44499993       6.94280544E-08
   3.45199990       1.35358107E-07
   3.45900011       2.01499134E-07
   3.46600008       2.67712579E-07
   3.47300005       3.33838869E-07
   3.48000002       3.99713485E-07
   3.48699999       4.65183234E-07
   3.49399996       5.30106263E-07
   3.50099993       5.94337450E-07
   3.50799990       6.57712292E-07
   3.51500010       7.20051275E-07
   3.52200007       7.81184724E-07
   3.52900004       8.40966493E-07
   3.53600001       8.99263682E-07
   3.54299998       9.55931910E-07
   3.54999995       1.01080047E-06
   3.55699992       1.06368111E-06
   3.56399989       1.11440102E-06
   3.57100010       1.16282126E-06
   3.57800007       1.20882464E-06
   3.58500004       1.25228655E-06
   3.59200001       1.29306193E-06
   3.59899998       1.33100036E-06
   3.60599995       1.36597646E-06
   3.61299992       1.39790200E-06
   3.61999989       1.42670547E-06
   3.62700009       1.45229706E-06
   3.63400006       1.47456490E-06
   3.64100003       1.49339553E-06
   3.64800000       1.50870744E-06
   3.65499997       1.52046437E-06
   3.66199994       1.52864868E-06
   3.66899991       1.53323015E-06
   3.67600012       1.53416181E-06
   3.68300009       1.53140502E-06
   3.69000006       1.52495875E-06
   3.69700003       1.51486165E-06
   3.70400000       1.50116159E-06
   3.71099997       1.48388449E-06
   3.71799994       1.46303580E-06
   3.72499990       1.43863076E-06
   3.73200011       1.41072564E-06
   3.73900008       1.37941629E-06
   3.74600005       1.34480638E-06
   3.75300002       1.30697958E-06
   3.75999999       1.26600435E-06
   3.76699996       1.22196593E-06
   3.77399993       1.17498882E-06
   3.78099990       1.12522901E-06
   3.78800011       1.07283336E-06
   3.79500008       1.01792079E-06
   3.80200005       9.60595230E-07
   3.80900002       9.00982343E-07
   3.81599998       8.39251413E-07
   3.82299995       7.75597130E-07
   3.82999992       7.10198549E-07
   3.83699989       6.43200281E-07
   3.84400010       5.74730905E-07
   3.85100007       5.04936850E-07
   3.85800004       4.34000356E-07
   3.86500001       3.62115912E-07
   3.87199998       2.89458910E-07
   3.87899995       2.16172751E-07
   3.88599992       1.42397610E-07
   3.89299989       6.83004870E-08
   3.90000010      -5.91727289E-09
   3.90700006      -8.00529918E-08
   3.91400003      -1.53938117E-07
   3.92100000      -2.27442669E-07
   3.92799997      -3.00445890E-07
   3.93499994      -3.72803612E-07
   3.94199991      -4.44346853E-07
   3.94899988      -5.14905423E-07
   3.95600009      -5.84339432E-07
   3.96300006      -6.52538915E-07
   3.97000003      -7.19391608E-07
   3.97700000      -7.84760630E-07
   3.98399997      -8.48488185E-07
   3.99099994      -9.10431254E-07
   3.99799991      -9.70488941E-07
   4.00500011      -1.02859497E-06
   4.01200008      -1.08468180E-06
   4.01900005      -1.13865394E-06
   4.02600002      -1.19039839E-06
   4.03299999      -1.23981806E-06
   4.03999996      -1.28685383E-06
   4.04699993      -1.33147148E-06
   4.05399990      -1.37362929E-06
   4.06099987      -1.41325870E-06
   4.06799984      -1.45028218E-06
   4.07499981      -1.48464960E-06
   4.08199978      -1.51635106E-06
   4.08900023      -1.54539998E-06
   4.09600019      -1.57179500E-06
   4.10300016      -1.59551064E-06
   4.11000013      -1.61651963E-06
   4.11700010      -1.63482184E-06
   4.12400007      -1.65045719E-06
   4.13100004      -1.66347672E-06
   4.13800001      -1.67391579E-06
   4.14499998      -1.68178713E-06
   4.15199995      -1.68711063E-06
   4.15899992      -1.68993824E-06
   4.16599989      -1.69035491E-06
   4.17299986      -1.68844861E-06
   4.17999983      -1.68428505E-06
   4.18699980      -1.67791154E-06
   4.19399977      -1.66939128E-06
   4.20100021      -1.65882170E-06
   4.20800018      -1.64632286E-06
   4.21500015      -1.63201105E-06
   4.22200012      -1.61597711E-06
   4.22900009      -1.59830029E-06
   4.23600006      -1.57907721E-06
   4.24300003      -1.55843236E-06
   4.25000000      -1.53650251E-06
   4.25699997      -1.51340998E-06
   4.26399994      -1.48925585E-06
   4.27099991      -1.46413549E-06
   4.27799988      -1.43816339E-06
   4.28499985      -1.41148007E-06
   4.29199982      -1.38422797E-06
   4.29899979      -1.35653045E-06
   4.30600023      -1.32849050E-06
   4.31300020      -1.30020726E-06
   4.32000017      -1.27180101E-06
   4.32700014      -1.24340750E-06
   4.33400011      -1.21515677E-06
   4.34100008      -1.18715434E-06
   4.34800005      -1.15948546E-06
   4.35500002      -1.13223507E-06
   4.36199999      -1.10550468E-06
   4.36899996      -1.07940275E-06
   4.37599993      -1.05402819E-06
   4.38299990      -1.02945444E-06
   4.38999987      -1.00574118E-06
   4.39699984      -9.82952770E-07
   4.40399981      -9.61169235E-07
   4.41099977      -9.40471523E-07
   4.41800022      -9.20921536E-07
   4.42500019      -9.02555314E-07
   4.43200016      -8.85397640E-07
   4.43900013      -8.69481823E-07
   4.44600010      -8.54854761E-07
   4.45300007      -8.41561359E-07
   4.46000004      -8.29628902E-07
   4.46700001      -8.19061654E-07
   4.47399998      -8.09858534E-07
   4.48099995      -8.02026591E-07
   4.48799992      -7.95580547E-07
   4.49499989      -7.90526087E-07
   4.50199986      -7.86846329E-07
   4.50899982      -7.84508018E-07
   4.51599979      -7.83483017E-07
   4.52299976      -7.83758082E-07
   4.53000021      -7.85331224E-07
   4.53700018      -7.88187776E-07
   4.54400015      -7.92291758E-07
   4.55100012      -7.97593316E-07
   4.55800009      -8.04042770E-07
   4.56500006      -8.11600671E-07
   4.57200003      -8.20231776E-07
   4.57900000      -8.29889927E-07
   4.58599997      -8.40518339E-07
   4.59299994      -8.52056587E-07
   4.59999990      -8.64454591E-07
   4.60699987      -8.77676030E-07
   4.61399984      -8.91686113E-07
   4.62099981      -9.06433513E-07
   4.62799978      -9.21851836E-07
   4.63500023      -9.37873665E-07
   4.64200020      -9.54439315E-07
   4.64900017      -9.71500640E-07
   4.65600014      -9.89010687E-07
   4.66300011      -1.00691341E-06
   4.67000008      -1.02514764E-06
   4.67700005      -1.04365267E-06
   4.68400002      -1.06237769E-06
   4.69099998      -1.08127915E-06
   4.69799995      -1.10030840E-06
   4.70499992      -1.11940551E-06
   4.71199989      -1.13850638E-06
   4.71899986      -1.15754858E-06
   4.72599983      -1.17647949E-06
   4.73299980      -1.19525089E-06
   4.73999977      -1.21381606E-06
   4.74700022      -1.23212067E-06
   4.75400019      -1.25010649E-06
   4.76100016      -1.26771545E-06
   4.76800013      -1.28489080E-06
   4.77500010      -1.30157423E-06
   4.78200006      -1.31770457E-06
   4.78900003      -1.33321873E-06
   4.79600000      -1.34805578E-06
   4.80299997      -1.36215829E-06
   4.80999994      -1.37547386E-06
   4.81699991      -1.38795644E-06
   4.82399988      -1.39956444E-06
   4.83099985      -1.41025589E-06
   4.83799982      -1.41998214E-06
   4.84499979      -1.42868714E-06
   4.85200024      -1.43630757E-06
   4.85900021      -1.44277624E-06
   4.86600018      -1.44803039E-06
   4.87300014      -1.45201284E-06
   4.88000011      -1.45466799E-06
   4.88700008      -1.45593970E-06
   4.89400005      -1.45577269E-06
   4.90100002      -1.45411923E-06
   4.90799999      -1.45093998E-06
   4.91499996      -1.44619582E-06
   4.92199993      -1.43984096E-06
   4.92899990      -1.43181501E-06
   4.93599987      -1.42205272E-06
   4.94299984      -1.41049725E-06
   4.94999981      -1.39711062E-06
   4.95699978      -1.38186704E-06
   4.96400023      -1.36474080E-06
   4.97100019      -1.34569507E-06
   4.97800016      -1.32468938E-06
   4.98500013      -1.30169394E-06
   4.99200010      -1.27669693E-06