  -1.00000000       1.26488364E-20
 -0.992999971       9.66071268E-19
 -0.986000001       7.77681546E-18
 -0.978999972       2.15212593E-17
 -0.972000003      -4.88904233E-18
 -0.964999974      -2.49200667E-16
 -0.958000004      -1.09473333E-15
 -0.950999975      -3.12262465E-15
 -0.944000006      -6.96809113E-15
 -0.936999977      -1.30588230E-14
 -0.930000007      -2.13391740E-14
 -0.922999978      -3.11350033E-14
 -0.916000009      -4.12928494E-14
 -0.908999979      -5.06227547E-14
 -0.902000010      -5.85126633E-14
 -0.894999981      -6.54343048E-14
 -0.888000011      -7.30195594E-14
 -0.880999982      -8.35241774E-14
 -0.874000013      -9.87933016E-14
 -0.866999984      -1.19170637E-13
 -0.860000014      -1.42956217E-13
 -0.852999985      -1.66874422E-13
 -0.846000016      -1.87578374E-13
 -0.838999987      -2.03675848E-13
 -0.832000017      -2.17383362E-13
 -0.824999988      -2.34915359E-13
 -0.818000019      -2.65141750E-13
 -0.810999990      -3.16763407E-13
 -0.804000020      -3.94981113E-13
 -0.796999991      -4.99050562E-13
 -0.790000021      -6.21974586E-13
 -0.782999992      -7.52830307E-13
 -0.776000023      -8.81091586E-13
 -0.768999994      -1.00125713E-12
 -0.762000024      -1.11567938E-12
 -0.754999995      -1.23404021E-12
 -0.748000026      -1.36931514E-12
 -0.740999997      -1.53173774E-12
 -0.734000027      -1.72343877E-12
 -0.726999998      -1.93647160E-12
 -0.720000029      -2.15572048E-12
 -0.713000000      -2.36615198E-12
 -0.705999970      -2.56180775E-12
 -0.699000001      -2.75277219E-12
 -0.691999972      -2.96663432E-12
 -0.685000002      -3.24284545E-12
 -0.677999973      -3.62124371E-12
 -0.671000004      -4.12880147E-12
 -0.663999975      -4.77007496E-12
 -0.657000005      -5.52602755E-12
 -0.649999976      -6.36289112E-12
 -0.643000007      -7.24855679E-12
 -0.635999978      -8.17042527E-12
 -0.629000008      -9.14730444E-12
 -0.621999979      -1.02295949E-11
 -0.615000010      -1.14862841E-11
 -0.607999980      -1.29824467E-11
 -0.601000011      -1.47552873E-11
 -0.593999982      -1.67980629E-11
 -0.587000012      -1.90591900E-11
 -0.579999983      -2.14585086E-11
 -0.573000014      -2.39160913E-11
 -0.565999985      -2.63836539E-11
 -0.559000015      -2.88667111E-11
 -0.551999986      -3.14284640E-11
 -0.545000017      -3.41730602E-11
 -0.537999988      -3.72140131E-11
 -0.531000018      -4.06397138E-11
 -0.523999989      -4.44898146E-11
 -0.517000020      -4.87522731E-11
 -0.509999990      -5.33832180E-11
 -0.503000021      -5.83423795E-11
 -0.495999992      -6.36305938E-11
 -0.488999993      -6.93137214E-11
 -0.481999993      -7.55221372E-11
 -0.474999994      -8.24239219E-11
 -0.467999995      -9.01803632E-11
 -0.460999995      -9.89005197E-11
 -0.453999996      -1.08612744E-10
 -0.446999997      -1.19266166E-10
 -0.439999998      -1.30763483E-10
 -0.432999998      -1.43014128E-10
 -0.425999999      -1.55988111E-10
 -0.419000000      -1.69749340E-10
 -0.412000000      -1.84454146E-10
 -0.405000001      -2.00313072E-10
 -0.398000002      -2.17528343E-10
 -0.391000003      -2.36228953E-10
 -0.384000003      -2.56427435E-10
 -0.377000004      -2.78015500E-10
 -0.370000005      -3.00801384E-10
 -0.363000005      -3.24577032E-10
 -0.356000006      -3.49190982E-10
 -0.349000007      -3.74600378E-10
 -0.342000008      -4.00882744E-10
 -0.335000008      -4.28202918E-10
 -0.328000009      -4.56748500E-10
 -0.321000010      -4.86657326E-10
 -0.314000010      -5.17965837E-10
 -0.307000011      -5.50596346E-10
 -0.300000012      -5.84389259E-10
 -0.293000013      -6.19167051E-10
 -0.286000013      -6.54803600E-10
 -0.279000014      -6.91272484E-10
 -0.272000015      -7.28652361E-10
 -0.264999986      -7.67084840E-10
 -0.257999986      -8.06698430E-10
 -0.250999987      -8.47524662E-10
 -0.244000003      -8.89438578E-10
 -0.237000003      -9.32144251E-10
 -0.230000004      -9.75211800E-10
 -0.223000005      -1.01815367E-09
 -0.216000006      -1.06050912E-09
 -0.209000006      -1.10191045E-09
 -0.202000007      -1.14209897E-09
 -0.194999993      -1.18088983E-09
 -0.187999994      -1.21808952E-09
 -0.180999994      -1.25339361E-09
 -0.173999995      -1.28629651E-09
 -0.166999996      -1.31603817E-09
 -0.159999996      -1.34160072E-09
 -0.152999997      -1.36174882E-09
 -0.145999998      -1.37509060E-09
 -0.138999999      -1.38013201E-09
 -0.131999999      -1.37529943E-09
 -0.125000000      -1.35891587E-09
 -0.118000001      -1.32914313E-09
 -0.111000001      -1.28389666E-09
 -0.104000002      -1.22077193E-09
  -9.70000029E-02  -1.13699750E-09
  -9.00000036E-02  -1.02942865E-09
  -8.29999968E-02  -8.94580188E-10
  -7.59999976E-02  -7.28675287E-10
  -6.89999983E-02  -5.27690114E-10
  -6.19999990E-02  -2.87366519E-10
  -5.49999997E-02  -3.17201885E-12
  -4.80000004E-02   3.29792138E-10
  -4.10000011E-02   7.16920912E-10
  -3.40000018E-02   1.16424981E-09
  -2.70000007E-02   1.67858705E-09
  -1.99999996E-02   2.26760832E-09
  -1.30000003E-02   2.93990876E-09
  -6.00000005E-03   3.70501718E-09
   1.00000005E-03   4.57338878E-09
   8.00000038E-03   5.55639801E-09
   1.49999997E-02   6.66636302E-09
   2.19999999E-02   7.91660870E-09
   2.89999992E-02   9.32157906E-09
   3.59999985E-02   1.08969633E-08
   4.30000015E-02   1.26598501E-08
   5.00000007E-02   1.46288457E-08
   5.70000000E-02   1.68241669E-08
   6.40000030E-02   1.92676932E-08
   7.10000023E-02   2.19829754E-08
   7.80000016E-02   2.49952556E-08
   8.50000009E-02   2.83315131E-08
   9.20000002E-02   3.20205480E-08
   9.89999995E-02   3.60931232E-08
  0.105999999       4.05821865E-08
  0.112999998       4.55231017E-08
  0.119999997       5.09538438E-08
  0.127000004       5.69151872E-08
  0.134000003       6.34507984E-08
  0.141000003       7.06072569E-08
  0.148000002       7.84340060E-08
  0.155000001       8.69833343E-08
  0.162000000       9.63103020E-08
  0.169000000       1.06472868E-07
  0.175999999       1.17531947E-07
  0.182999998       1.29551651E-07
  0.189999998       1.42599490E-07
  0.196999997       1.56746395E-07
  0.203999996       1.72066990E-07
  0.210999995       1.88639447E-07
  0.217999995       2.06545323E-07
  0.224999994       2.25869442E-07
  0.231999993       2.46699670E-07
  0.238999993       2.69126815E-07
  0.246000007       2.93244540E-07
  0.252999991       3.19149564E-07
  0.259999990       3.46941789E-07
  0.266999990       3.76724245E-07
  0.273999989       4.08603114E-07
  0.280999988       4.42687593E-07
  0.287999988       4.79089465E-07
  0.294999987       5.17922558E-07
  0.301999986       5.59302180E-07
  0.308999985       6.03344802E-07
  0.316000015       6.50167806E-07
  0.323000014       6.99889029E-07
  0.330000013       7.52626818E-07
  0.337000012       8.08499692E-07
  0.344000012       8.67626454E-07
  0.351000011       9.30125452E-07
  0.358000010       9.96114181E-07
  0.365000010       1.06570837E-06
  0.372000009       1.13902104E-06
  0.379000008       1.21616222E-06
  0.386000007       1.29723799E-06
  0.393000007       1.38235009E-06
  0.400000006       1.47159551E-06
  0.407000005       1.56506678E-06
  0.414000005       1.66285020E-06
  0.421000004       1.76502704E-06
  0.428000003       1.87167200E-06
  0.435000002       1.98285261E-06
  0.442000002       2.09862696E-06
  0.449000001       2.21904543E-06
  0.456000000       2.34414688E-06
  0.463000000       2.47396110E-06
  0.469999999       2.60850652E-06
  0.476999998       2.74779154E-06
  0.483999997       2.89181276E-06
  0.490999997       3.04055652E-06
  0.497999996       3.19399601E-06
  0.504999995       3.35209256E-06
  0.512000024       3.51479412E-06
  0.518999994       3.68203405E-06
  0.526000023       3.85373323E-06
  0.532999992       4.02979640E-06
  0.540000021       4.21011418E-06
  0.546999991       4.39456653E-06
  0.554000020       4.58301702E-06
  0.560999990       4.77531512E-06
  0.568000019       4.97129849E-06
  0.574999988       5.17079161E-06
  0.582000017       5.37360529E-06
  0.588999987       5.57953763E-06
  0.596000016       5.78837398E-06
  0.602999985       5.99988834E-06
  0.610000014       6.21383879E-06
  0.616999984       6.42997611E-06
  0.624000013       6.64803838E-06
  0.630999982       6.86775638E-06
  0.638000011       7.08885000E-06
  0.644999981       7.31103455E-06
  0.652000010       7.53401719E-06
  0.658999979       7.75749959E-06
  0.666000009       7.98117526E-06
  0.672999978       8.20473997E-06
  0.680000007       8.42787631E-06
  0.686999977       8.65027323E-06
  0.694000006       8.87161332E-06
  0.700999975       9.09158371E-06
  0.708000004       9.30987062E-06
  0.714999974       9.52616119E-06
  0.722000003       9.74015165E-06
  0.728999972       9.95153641E-06
  0.736000001       1.01600235E-05
  0.742999971       1.03653219E-05
  0.750000000       1.05671497E-05
  0.757000029       1.07652304E-05
  0.763999999       1.09593011E-05
  0.771000028       1.11491017E-05
  0.777999997       1.13343940E-05
  0.785000026       1.15149451E-05
  0.791999996       1.16905394E-05
  0.799000025       1.18609714E-05
  0.805999994       1.20260556E-05
  0.813000023       1.21856165E-05
  0.819999993       1.23394948E-05
  0.827000022       1.24875478E-05
  0.833999991       1.26296482E-05
  0.841000021       1.27656840E-05
  0.847999990       1.28955598E-05
  0.855000019       1.30191975E-05
  0.861999989       1.31365368E-05
  0.869000018       1.32475316E-05
  0.875999987       1.33521507E-05
  0.883000016       1.34503807E-05
  0.889999986       1.35422297E-05
  0.897000015       1.36277104E-05
  0.903999984       1.37068628E-05
  0.911000013       1.37797342E-05
  0.917999983       1.38463902E-05
  0.925000012       1.39069098E-05
  0.931999981       1.39613821E-05
  0.939000010       1.40099128E-05
  0.945999980       1.40526181E-05
  0.953000009       1.40896254E-05
  0.959999979       1.41210739E-05
  0.967000008       1.41471101E-05
  0.973999977       1.41678902E-05
  0.981000006       1.41835808E-05
  0.987999976       1.41943592E-05
  0.995000005       1.42004046E-05
   1.00199997       1.42019026E-05
   1.00899994       1.41990431E-05
   1.01600003       1.41920236E-05
   1.02300000       1.41810424E-05
   1.02999997       1.41663049E-05
   1.03699994       1.41480186E-05
   1.04400003       1.41263936E-05
   1.05100000       1.41016390E-05
   1.05799997       1.40739667E-05
   1.06500006       1.40435841E-05
   1.07200003       1.40107013E-05
   1.07900000       1.39755230E-05
   1.08599997       1.39382546E-05
   1.09300005       1.38990954E-05
   1.10000002       1.38582409E-05
   1.10699999       1.38158903E-05
   1.11399996       1.37722373E-05
   1.12100005       1.37274719E-05
   1.12800002       1.36817816E-05
   1.13499999       1.36353465E-05
   1.14199996       1.35883420E-05
   1.14900005       1.35409409E-05
   1.15600002       1.34933025E-05
   1.16299999       1.34455822E-05
   1.16999996       1.33979338E-05
   1.17700005       1.33505037E-05
   1.18400002       1.33034355E-05
   1.19099998       1.32568666E-05
   1.19799995       1.32109290E-05
   1.20500004       1.31657462E-05
   1.21200001       1.31214319E-05
   1.21899998       1.30780945E-05
   1.22599995       1.30358303E-05
   1.23300004       1.29947330E-05
   1.24000001       1.29548935E-05
   1.24699998       1.29163936E-05
   1.25399995       1.28793135E-05
   1.26100004       1.28437232E-05
   1.26800001       1.28096899E-05
   1.27499998       1.27772764E-05
   1.28199995       1.27465364E-05
   1.28900003       1.27175135E-05
   1.29600000       1.26902487E-05
   1.30299997       1.26647710E-05
   1.30999994       1.26411051E-05
   1.31700003       1.26192708E-05
   1.32400000       1.25992865E-05
   1.33099997       1.25811594E-05
   1.33800006       1.25648967E-05
   1.34500003       1.25504921E-05
   1.35200000       1.25379347E-05
   1.35899997       1.25272081E-05
   1.36600006       1.25182887E-05
   1.37300003       1.25111446E-05
   1.38000000       1.25057377E-05
   1.38699996       1.25020224E-05
   1.39400005       1.24999615E-05
   1.40100002       1.24995058E-05
   1.40799999       1.25006054E-05
   1.41499996       1.25032047E-05
   1.42200005       1.25072402E-05
   1.42900002       1.25126408E-05
   1.43599999       1.25193246E-05
   1.44299996       1.25272081E-05
   1.45000005       1.25361967E-05
   1.45700002       1.25461966E-05
   1.46399999       1.25571059E-05
   1.47099996       1.25688266E-05
   1.47800004       1.25812621E-05
   1.48500001       1.25943161E-05
   1.49199998       1.26078849E-05
   1.49899995       1.26218611E-05
   1.50600004       1.26361265E-05
   1.51300001       1.26505656E-05
   1.51999998       1.26650548E-05
   1.52699995       1.26794685E-05
   1.53400004       1.26936802E-05
   1.54100001       1.27075646E-05
   1.54799998       1.27209996E-05
   1.55499995       1.27338744E-05
   1.56200004       1.27460780E-05
   1.56900001       1.27575031E-05
   1.57599998       1.27680360E-05
   1.58299994       1.27775620E-05
   1.59000003       1.27859639E-05
   1.59700000       1.27931271E-05
   1.60399997       1.27989415E-05
   1.61099994       1.28032989E-05
   1.61800003       1.28060965E-05
   1.62500000       1.28072452E-05
   1.63199997       1.28066640E-05
   1.63900006       1.28042811E-05
   1.64600003       1.28000320E-05
   1.65300000       1.27938538E-05
   1.65999997       1.27856820E-05
   1.66700006       1.27754538E-05
   1.67400002       1.27631120E-05
   1.68099999       1.27486092E-05
   1.68799996       1.27319099E-05
   1.69500005       1.27129879E-05
   1.70200002       1.26918312E-05
   1.70899999       1.26684372E-05
   1.71599996       1.26428085E-05
   1.72300005       1.26149607E-05
   1.73000002       1.25849092E-05
   1.73699999       1.25526676E-05
   1.74399996       1.25182542E-05
   1.75100005       1.24816925E-05
   1.75800002       1.24430171E-05
   1.76499999       1.24022736E-05
   1.77199996       1.23595246E-05
   1.77900004       1.23148375E-05
   1.78600001       1.22682941E-05
   1.79299998       1.22199708E-05
   1.79999995       1.21699504E-05
   1.80700004       1.21183130E-05
   1.81400001       1.20651357E-05
   1.82099998       1.20105024E-05
   1.82799995       1.19544984E-05
   1.83500004       1.18972148E-05
   1.84200001       1.18387534E-05
   1.84899998       1.17792242E-05
   1.85599995       1.17187456E-05
   1.86300004       1.16574292E-05
   1.87000000       1.15953817E-05
   1.87699997       1.15327075E-05
   1.88399994       1.14694994E-05
   1.89100003       1.14058548E-05
   1.89800000       1.13418628E-05
   1.90499997       1.12776142E-05
   1.91199994       1.12131993E-05
   1.91900003       1.11487143E-05
   1.92600000       1.10842639E-05
   1.93299997       1.10199508E-05
   1.94000006       1.09558641E-05
   1.94700003       1.08920876E-05
   1.95400000       1.08286958E-05
   1.96099997       1.07657515E-05
   1.96800005       1.07033129E-05
   1.97500002       1.06414363E-05
   1.98199999       1.05801755E-05
   1.98899996       1.05195850E-05
   1.99600005       1.04597211E-05
   2.00300002       1.04006394E-05
   2.00999999       1.03423899E-05
   2.01699996       1.02850154E-05
   2.02399993       1.02285458E-05
   2.03099990       1.01730029E-05
   2.03800011       1.01183969E-05
   2.04500008       1.00647358E-05
   2.05200005       1.00120324E-05
   2.05900002       9.96029576E-06
   2.06599998       9.90953595E-06
   2.07299995       9.85976749E-06
   2.07999992       9.81099765E-06
   2.08699989       9.76323190E-06
   2.09400010       9.71646659E-06
   2.10100007       9.67068991E-06
   2.10800004       9.62588365E-06
   2.11500001       9.58202236E-06
   2.12199998       9.53908329E-06
   2.12899995       9.49705191E-06
   2.13599992       9.45591364E-06
   2.14299989       9.41566213E-06
   2.15000010       9.37629284E-06
   2.15700006       9.33779484E-06
   2.16400003       9.30015631E-06
   2.17100000       9.26335815E-06
   2.17799997       9.22737763E-06
   2.18499994       9.19218928E-06
   2.19199991       9.15776582E-06
   2.19899988       9.12408905E-06
   2.20600009       9.09113805E-06
   2.21300006       9.05890647E-06
   2.22000003       9.02738884E-06
   2.22700000       8.99657061E-06
   2.23399997       8.96644451E-06
   2.24099994       8.93699416E-06
   2.24799991       8.90820320E-06
   2.25500011       8.88006252E-06
   2.26200008       8.85255849E-06
   2.26900005       8.82568293E-06
   2.27600002       8.79943036E-06
   2.28299999       8.77380262E-06
   2.28999996       8.74880061E-06
   2.29699993       8.72443343E-06
   2.30399990       8.70070835E-06
   2.31100011       8.67762992E-06
   2.31800008       8.65520360E-06
   2.32500005       8.63343121E-06
   2.33200002       8.61231365E-06
   2.33899999       8.59185729E-06
   2.34599996       8.57206942E-06
   2.35299993       8.55295912E-06
   2.35999990       8.53453184E-06
   2.36700010       8.51680761E-06
   2.37400007       8.49980279E-06
   2.38100004       8.48353829E-06
   2.38800001       8.46804141E-06
   2.39499998       8.45332943E-06
   2.40199995       8.43941871E-06
   2.40899992       8.42632198E-06
   2.41599989       8.41405472E-06
   2.42300010       8.40263237E-06
   2.43000007       8.39207587E-06
   2.43700004       8.38240612E-06
   2.44400001       8.37364860E-06
   2.45099998       8.36583786E-06
   2.45799994       8.35901028E-06
   2.46499991       8.35320225E-06
   2.47199988       8.34844377E-06
   2.47900009       8.34475213E-06
   2.48600006       8.34214006E-06
   2.49300003       8.34061484E-06
   2.50000000       8.34019284E-06
   2.50699997       8.34088678E-06
   2.51399994       8.34271759E-06
   2.52099991       8.34571074E-06
   2.52800012       8.34988896E-06
   2.53500009       8.35528044E-06
   2.54200006       8.36190156E-06
   2.54900002       8.36975869E-06
   2.55599999       8.37885273E-06
   2.56299996       8.38916912E-06
   2.56999993       8.40069606E-06
   2.57699990       8.41342444E-06
   2.58400011       8.42734426E-06
   2.59100008       8.44245642E-06
   2.59800005       8.45875820E-06
   2.60500002       8.47623960E-06
   2.61199999       8.49488151E-06
   2.61899996       8.51465666E-06
   2.62599993       8.53552319E-06
   2.63299990       8.55743019E-06
   2.64000010       8.58031490E-06
   2.64700007       8.60411183E-06
   2.65400004       8.62875640E-06
   2.66100001       8.65418588E-06
   2.66799998       8.68034294E-06
   2.67499995       8.70716485E-06
   2.68199992       8.73458248E-06
   2.68899989       8.76251306E-06
   2.69600010       8.79086292E-06
   2.70300007       8.81953110E-06
   2.71000004       8.84840574E-06
   2.71700001       8.87737133E-06
   2.72399998       8.90631145E-06
   2.73099995       8.93510969E-06
   2.73799992       8.96365327E-06
   2.74499989       8.99183487E-06
   2.75200009       9.01954445E-06
   2.75900006       9.04666558E-06
   2.76600003       9.07307276E-06
   2.77300000       9.09863229E-06
   2.77999997       9.12320684E-06
   2.78699994       9.14665816E-06
   2.79399991       9.16885620E-06
   2.80100012       9.18967089E-06
   2.80800009       9.20897946E-06
   2.81500006       9.22666732E-06
   2.82200003       9.24263168E-06
   2.82900000       9.25677250E-06
   2.83599997       9.26898610E-06
   2.84299994       9.27917063E-06
   2.84999990       9.28722147E-06
   2.85700011       9.29303678E-06
   2.86400008       9.29652469E-06
   2.87100005       9.29761063E-06
   2.87800002       9.29623093E-06
   2.88499999       9.29233556E-06
   2.89199996       9.28589179E-06
   2.89899993       9.27687324E-06
   2.90599990       9.26526445E-06
   2.91300011       9.25105542E-06
   2.92000008       9.23424250E-06
   2.92700005       9.21482297E-06
   2.93400002       9.19280137E-06
   2.94099998       9.16819772E-06
   2.94799995       9.14104294E-06
   2.95499992       9.11139159E-06
   2.96199989       9.07930826E-06
   2.96900010       9.04487297E-06
   2.97600007       9.00817577E-06
   2.98300004       8.96931397E-06
   2.99000001       8.92839762E-06
   2.99699998       8.88553222E-06
   3.00399995       8.84084147E-06
   3.01099992       8.79444724E-06
   3.01799989       8.74648049E-06
   3.02500010       8.69708583E-06
   3.03200006       8.64642061E-06
   3.03900003       8.59465126E-06
   3.04600000       8.54194786E-06
   3.05299997       8.48848322E-06
   3.05999994       8.43443013E-06
   3.06699991       8.37996049E-06
   3.07399988       8.32524438E-06
   3.08100009       8.27045551E-06
   3.08800006       8.21576577E-06
   3.09500003       8.16134616E-06
   3.10200000       8.10736856E-06
   3.10899997       8.05401123E-06
   3.11599994       8.00145244E-06
   3.12299991       7.94986499E-06
   3.13000011       7.89942078E-06
   3.13700008       7.85027987E-06
   3.14400005       7.80259052E-06
   3.15100002       7.75649733E-06
   3.15799999       7.71213490E-06
   3.16499996       7.66963240E-06
   3.17199993       7.62910850E-06
   3.17899990       7.59067734E-06
   3.18600011       7.55444808E-06
   3.19300008       7.52052483E-06
   3.20000005       7.48900356E-06
   3.20700002       7.45996931E-06
   3.21399999       7.43349165E-06
   3.22099996       7.40962469E-06
   3.22799993       7.38840845E-06
   3.23499990       7.36987522E-06
   3.24200010       7.35404728E-06
   3.24900007       7.34094237E-06
   3.25600004       7.33056822E-06
   3.26300001       7.32292938E-06
   3.26999998       7.31802311E-06
   3.27699995       7.31583577E-06
   3.28399992       7.31634282E-06
   3.29099989       7.31949876E-06
   3.29800010       7.32524677E-06
   3.30500007       7.33351635E-06
   3.31200004       7.34423065E-06
   3.31900001       7.35731419E-06
   3.32599998       7.37268829E-06
   3.33299994       7.39027473E-06
   3.33999991       7.40999076E-06
   3.34699988       7.43175087E-06
   3.35400009       7.45545913E-06
   3.36100006       7.48101229E-06
   3.36800003       7.50829395E-06
   3.37500000       7.53717904E-06
   3.38199997       7.56753707E-06
   3.38899994       7.59923569E-06
   3.39599991       7.63214939E-06
   3.40300012       7.66615813E-06
   3.41000009       7.70114639E-06
   3.41700006       7.73700049E-06
   3.42400002       7.77360492E-06
   3.43099999       7.81084145E-06
   3.43799996       7.84859003E-06
   3.44499993       7.88673697E-06
   3.45199990       7.92516403E-06
   3.45900011       7.96375480E-06
   3.46600008       8.00240377E-06
   3.47300005       8.04101001E-06
   3.48000002       8.07947890E-06
   3.48699999       8.11772225E-06
   3.49399996       8.15565545E-06
   3.50099993       8.19319212E-06
   3.50799990       8.23025039E-06
   3.51500010       8.26675114E-06
   3.52200007       8.30263161E-06
   3.52900004       8.33783270E-06
   3.53600001       8.37230800E-06
   3.54299998       8.40601751E-06
   3.54999995       8.43893122E-06
   3.55699992       8.47102183E-06
   3.56399989       8.50227389E-06
   3.57100010       8.53267466E-06
   3.57800007       8.56221686E-06
   3.58500004       8.59089687E-06
   3.59200001       8.61871922E-06
   3.59899998       8.64569392E-06
   3.60599995       8.67183826E-06
   3.61299992       8.69717587E-06
   3.61999989       8.72173405E-06
   3.62700009       8.74554007E-06
   3.63400006       8.76862850E-06
   3.64100003       8.79103754E-06
   3.64800000       8.81281358E-06
   3.65499997       8.83400480E-06
   3.66199994       8.85466761E-06
   3.66899991       8.87485749E-06
   3.67600012       8.89463081E-06
   3.68300009       8.91404488E-06
   3.69000006       8.93314791E-06
   3.69700003       8.95199173E-06
   3.70400000       8.97062182E-06
   3.71099997       8.98908274E-06
   3.71799994       9.00742270E-06
   3.72499990       9.02569718E-06
   3.73200011       9.04395893E-06
   3.73900008       9.06225705E-06
   3.74600005       9.08063157E-06
   3.75300002       9.09910705E-06
   3.75999999       9.11770167E-06
   3.76699996       9.13641998E-06
   3.77399993       9.15526107E-06
   3.78099990       9.17421676E-06
   3.78800011       9.19327522E-06
   3.79500008       9.21242281E-06
   3.80200005       9.23164589E-06
   3.80900002       9.25092445E-06
   3.81599998       9.27023575E-06
   3.82299995       9.28953705E-06
   3.82999992       9.30877559E-06
   3.83699989       9.32788498E-06
   3.84400010       9.34679338E-06
   3.85100007       9.36541983E-06
   3.85800004       9.38367612E-06
   3.86500001       9.40147675E-06
   3.87199998       9.41872804E-06
   3.87899995       9.43533360E-06
   3.88599992       9.45118791E-06
   3.89299989       9.46618002E-06
   3.90000010       9.48018624E-06
   3.90700006       9.49307741E-06
   3.91400003       9.50471986E-06
   3.92100000       9.51497350E-06
   3.92799997       9.52370374E-06
   3.93499994       9.53078052E-06
   3.94199991       9.53607196E-06
   3.94899988       9.53944073E-06
   3.95600009       9.54074858E-06
   3.96300006       9.53985545E-06
   3.97000003       9.53662584E-06
   3.97700000       9.53092967E-06
   3.98399997       9.52264327E-06
   3.99099994       9.51164930E-06
   3.99799991       9.49784317E-06
   4.00500011       9.48112847E-06
   4.01200008       9.46141336E-06
   4.01900005       9.43861050E-06
   4.02600002       9.41262897E-06
   4.03299999       9.38338690E-06
   4.03999996       9.35080425E-06
   4.04699993       9.31481736E-06
   4.05399990       9.27537894E-06
   4.06099987       9.23245261E-06
   4.06799984       9.18601927E-06
   4.07499981       9.13606891E-06
   4.08199978       9.08259972E-06
   4.08900023       9.02561715E-06
   4.09600019       8.96513757E-06
   4.10300016       8.90117917E-06
   4.11000013       8.83377834E-06
   4.11700010       8.76298327E-06
   4.12400007       8.68886673E-06
   4.13100004       8.61152239E-06
   4.13800001       8.53105939E-06
   4.14499998       8.44759597E-06
   4.15199995       8.36125218E-06
   4.15899992       8.27214808E-06
   4.16599989       8.18040098E-06
   4.17299986       8.08613368E-06
   4.17999983       7.98947804E-06
   4.18699980       7.89058595E-06
   4.19399977       7.78962567E-06
   4.20100021       7.68678365E-06
   4.20800018       7.58226270E-06
   4.21500015       7.47627473E-06
   4.22200012       7.36903030E-06
   4.22900009       7.26073267E-06
   4.23600006       7.15157557E-06
   4.24300003       7.04174590E-06
   4.25000000       6.93143465E-06
   4.25699997       6.82084328E-06
   4.26399994       6.71018643E-06
   4.27099991       6.59969237E-06
   4.27799988       6.48959940E-06
   4.28499985       6.38014808E-06
   4.29199982       6.27157851E-06
   4.29899979       6.16411853E-06
   4.30600023       6.05798277E-06
   4.31300020       5.95337269E-06
   4.32000017       5.85048156E-06
   4.32700014       5.74950036E-06
   4.33400011       5.65062737E-06
   4.34100008       5.55406632E-06
   4.34800005       5.46002502E-06
   4.35500002       5.36871084E-06
   4.36199999       5.28032206E-06
   4.36899996       5.19504238E-06
   4.37599993       5.11304052E-06
   4.38299990       5.03446790E-06
   4.38999987       4.95946597E-06
   4.39699984       4.88816568E-06
   4.40399981       4.82069663E-06
   4.41099977       4.75718844E-06
   4.41800022       4.69777206E-06
   4.42500019       4.64257209E-06
   4.43200016       4.59170224E-06
   4.43900013       4.54526207E-06
   4.44600010       4.50332982E-06
   4.45300007       4.46596414E-06
   4.46000004       4.43320869E-06
   4.46700001       4.40509893E-06
   4.47399998       4.38166217E-06
   4.48099995       4.36292112E-06
   4.48799992       4.34889216E-06
   4.49499989       4.33958530E-06
   4.50199986       4.33499827E-06
   4.50899982       4.33511377E-06
   4.51599979       4.33989590E-06
   4.52299976       4.34928916E-06
   4.53000021       4.36322489E-06
   4.53700018       4.38162442E-06
   4.54400015       4.40440181E-06
   4.55100012       4.43146746E-06
   4.55800009       4.46272497E-06
   4.56500006       4.49806839E-06
   4.57200003       4.53738085E-06
   4.57900000       4.58053228E-06
   4.58599997       4.62737671E-06
   4.59299994       4.67775726E-06
   4.59999990       4.73150658E-06
   4.60699987       4.78845141E-06
   4.61399984       4.84841485E-06
   4.62099981       4.91121591E-06
   4.62799978       4.97666952E-06
   4.63500023       5.04458512E-06
   4.64200020       5.11476583E-06
   4.64900017       5.18700790E-06
   4.65600014       5.26109943E-06
   4.66300011       5.33682851E-06
   4.67000008       5.41398185E-06
   4.67700005       5.49235028E-06
   4.68400002       5.57172825E-06
   4.69099998       5.65191249E-06
   4.69799995       5.73269699E-06
   4.70499992       5.81387349E-06
   4.71199989       5.89522870E-06
   4.71899986       5.97654980E-06
   4.72599983       6.05762352E-06
   4.73299980       6.13824614E-06
   4.73999977       6.21822483E-06
   4.74700022       6.29737906E-06
   4.75400019       6.37554331E-06
   4.76100016       6.45256205E-06
   4.76800013       6.52828612E-06
   4.77500010       6.60257001E-06
   4.78200006       6.67526547E-06
   4.78900003       6.74622697E-06
   4.79600000       6.81531674E-06
   4.80299997       6.88241016E-06
   4.80999994       6.94740493E-06
   4.81699991       7.01021372E-06
   4.82399988       7.07077152E-06
   4.83099985       7.12902283E-06
   4.83799982       7.18492538E-06
   4.84499979       7.23843550E-06
   4.85200024       7.28951409E-06
   4.85900021       7.33812612E-06
   4.86600018       7.38424342E-06
   4.87300014       7.42785005E-06
   4.88000011       7.46894966E-06
   4.88700008       7.50756726E-06
   4.89400005       7.54374560E-06
   4.90100002       7.57754151E-06
   4.90799999       7.60901594E-06
   4.91499996       7.63822936E-06
   4.92199993       7.66524226E-06
   4.92899990       7.69011422E-06
   4.93599987       7.71290615E-06
   4.94299984       7.73369084E-06
   4.94999981       7.75255285E-06
   4.95699978       7.76958677E-06
   4.96400023       7.78490357E-06
   4.97100019       7.79861875E-06
   4.97800016       7.81085237E-06
   4.98500013       7.82171628E-06
   4.99200010       7.83131054E-06