  -1.00000000       7.22335728E-20
 -0.992999971       1.47894724E-18
 -0.986000001       9.47425046E-18
 -0.978999972       3.59479195E-17
 -0.972000003       9.77205301E-17
 -0.964999974       2.07721463E-16
 -0.958000004       3.62559536E-16
 -0.950999975       5.34786321E-16
 -0.944000006       6.75114852E-16
 -0.936999977       7.18680986E-16
 -0.930000007       5.78973913E-16
 -0.922999978       1.16213145E-16
 -0.916000009      -9.11061650E-16
 -0.908999979      -2.87311162E-15
 -0.902000010      -6.22457027E-15
 -0.894999981      -1.13636111E-14
 -0.888000011      -1.84305865E-14
 -0.880999982      -2.71473992E-14
 -0.874000013      -3.68247066E-14
 -0.866999984      -4.66177356E-14
 -0.860000014      -5.59951018E-14
 -0.852999985      -6.52413507E-14
 -0.846000016      -7.57153536E-14
 -0.838999987      -8.96049795E-14
 -0.832000017      -1.09091365E-13
 -0.824999988      -1.35127085E-13
 -0.818000019      -1.66326507E-13
 -0.810999990      -1.98595399E-13
 -0.804000020      -2.25956705E-13
 -0.796999991      -2.42552370E-13
 -0.790000021      -2.45184000E-13
 -0.782999992      -2.35295670E-13
 -0.776000023      -2.19287086E-13
 -0.768999994      -2.06591051E-13
 -0.762000024      -2.05902447E-13
 -0.754999995      -2.20926061E-13
 -0.748000026      -2.47549024E-13
 -0.740999997      -2.74107532E-13
 -0.734000027      -2.85363557E-13
 -0.726999998      -2.69253857E-13
 -0.720000029      -2.24014776E-13
 -0.713000000      -1.62603112E-13
 -0.705999970      -1.11889563E-13
 -0.699000001      -1.05896899E-13
 -0.691999972      -1.74816636E-13
 -0.685000002      -3.33664655E-13
 -0.677999973      -5.75206386E-13
 -0.671000004      -8.70636896E-13
 -0.663999975      -1.17868996E-12
 -0.657000005      -1.46039647E-12
 -0.649999976      -1.69405538E-12
 -0.643000007      -1.88432863E-12
 -0.635999978      -2.06120039E-12
 -0.629000008      -2.26833916E-12
 -0.621999979      -2.54474545E-12
 -0.615000010      -2.90675773E-12
 -0.607999980      -3.33806528E-12
 -0.601000011      -3.79278683E-12
 -0.593999982      -4.21169436E-12
 -0.587000012      -4.54609093E-12
 -0.579999983      -4.78002620E-12
 -0.573000014      -4.94126745E-12
 -0.565999985      -5.09520941E-12
 -0.559000015      -5.32245211E-12
 -0.551999986      -5.68764653E-12
 -0.545000017      -6.21147795E-12
 -0.537999988      -6.85746728E-12
 -0.531000018      -7.54031126E-12
 -0.523999989      -8.15452480E-12
 -0.517000020      -8.61400101E-12
 -0.509999990      -8.88811767E-12
 -0.503000021      -9.02015788E-12
 -0.495999992      -9.11964341E-12
 -0.488999993      -9.32962822E-12
 -0.481999993      -9.77972217E-12
 -0.474999994      -1.05417680E-11
 -0.467999995      -1.16049063E-11
 -0.460999995      -1.28800651E-11
 -0.453999996      -1.42330427E-11
 -0.446999997      -1.55342510E-11
 -0.439999998      -1.67066343E-11
 -0.432999998      -1.77534463E-11
 -0.425999999      -1.87551103E-11
 -0.419000000      -1.98361067E-11
 -0.412000000      -2.11145927E-11
 -0.405000001      -2.26546507E-11
 -0.398000002      -2.44406041E-11
 -0.391000003      -2.63847590E-11
 -0.384000003      -2.83667759E-11
 -0.377000004      -3.02899303E-11
 -0.370000005      -3.21315856E-11
 -0.363000005      -3.39658753E-11
 -0.356000006      -3.59466172E-11
 -0.349000007      -3.82530604E-11
 -0.342000008      -4.10159337E-11
 -0.335000008      -4.42500862E-11
 -0.328000009      -4.78189641E-11
 -0.321000010      -5.14457921E-11
 -0.314000010      -5.47701468E-11
 -0.307000011      -5.74326246E-11
 -0.300000012      -5.91600588E-11
 -0.293000013      -5.98237848E-11
 -0.286000013      -5.94529218E-11
 -0.279000014      -5.82006457E-11
 -0.272000015      -5.62785270E-11
 -0.264999986      -5.38843449E-11
 -0.257999986      -5.11498933E-11
 -0.250999987      -4.81256250E-11
 -0.244000003      -4.48038100E-11
 -0.237000003      -4.11657028E-11
 -0.230000004      -3.72291503E-11
 -0.223000005      -3.30741094E-11
 -0.216000006      -2.88320062E-11
 -0.209000006      -2.46408952E-11
 -0.202000007      -2.05821627E-11
 -0.194999993      -1.66226685E-11
 -0.187999994      -1.25851369E-11
 -0.180999994      -8.15950432E-12
 -0.173999995      -2.95277670E-12
 -0.166999996       3.43899323E-12
 -0.159999996       1.13606347E-11
 -0.152999997       2.10520525E-11
 -0.145999998       3.26400781E-11
 -0.138999999       4.61672645E-11
 -0.131999999       6.16444396E-11
 -0.125000000       7.91081436E-11
 -0.118000001       9.86645141E-11
 -0.111000001       1.20511476E-10
 -0.104000002       1.44936771E-10
  -9.70000029E-02   1.72303297E-10
  -9.00000036E-02   2.03033604E-10
  -8.29999968E-02   2.37605297E-10
  -7.59999976E-02   2.76562273E-10
  -6.89999983E-02   3.20538596E-10
  -6.19999990E-02   3.70286607E-10
  -5.49999997E-02   4.26698510E-10
  -4.80000004E-02   4.90817775E-10
  -4.10000011E-02   5.63835811E-10
  -3.40000018E-02   6.47078890E-10
  -2.70000007E-02   7.41993744E-10
  -1.99999996E-02   8.50136572E-10
  -1.30000003E-02   9.73176428E-10
  -6.00000005E-03   1.11290777E-09
   1.00000005E-03   1.27127553E-09
   8.00000038E-03   1.45040691E-09
   1.49999997E-02   1.65265257E-09
   2.19999999E-02   1.88063098E-09
   2.89999992E-02   2.13727924E-09
   3.59999985E-02   2.42590525E-09
   4.30000015E-02   2.75024115E-09
   5.00000007E-02   3.11449844E-09
   5.70000000E-02   3.52340934E-09
   6.40000030E-02   3.98226474E-09
   7.10000023E-02   4.49693349E-09
   7.80000016E-02   5.07388931E-09
   8.50000009E-02   5.72022918E-09
   9.20000002E-02   6.44370157E-09
   9.89999995E-02   7.25274507E-09
  0.105999999       8.15653056E-09
  0.112999998       9.16501453E-09
  0.119999997       1.02889972E-08
  0.127000004       1.15401679E-08
  0.134000003       1.29311664E-08
  0.141000003       1.44756234E-08
  0.148000002       1.61882312E-08
  0.155000001       1.80848065E-08
  0.162000000       2.01823767E-08
  0.169000000       2.24992931E-08
  0.175999999       2.50553267E-08
  0.182999998       2.78717849E-08
  0.189999998       3.09715915E-08
  0.196999997       3.43793829E-08
  0.203999996       3.81215273E-08
  0.210999995       4.22261834E-08
  0.217999995       4.67233150E-08
  0.224999994       5.16446690E-08
  0.231999993       5.70237937E-08
  0.238999993       6.28960422E-08
  0.246000007       6.92985793E-08
  0.252999991       7.62704460E-08
  0.259999990       8.38525551E-08
  0.266999990       9.20878165E-08
  0.273999989       1.01021172E-07
  0.280999988       1.10699659E-07
  0.287999988       1.21172476E-07
  0.294999987       1.32490982E-07
  0.301999986       1.44708551E-07
  0.308999985       1.57880635E-07
  0.316000015       1.72064716E-07
  0.323000014       1.87320083E-07
  0.330000013       2.03707941E-07
  0.337000012       2.21291216E-07
  0.344000012       2.40134710E-07
  0.351000011       2.60304830E-07
  0.358000010       2.81869575E-07
  0.365000010       3.04898236E-07
  0.372000009       3.29461329E-07
  0.379000008       3.55630220E-07
  0.386000007       3.83476930E-07
  0.393000007       4.13073877E-07
  0.400000006       4.44493992E-07
  0.407000005       4.77810374E-07
  0.414000005       5.13096268E-07
  0.421000004       5.50424716E-07
  0.428000003       5.89868705E-07
  0.435000002       6.31500257E-07
  0.442000002       6.75390652E-07
  0.449000001       7.21609695E-07
  0.456000000       7.70225313E-07
  0.463000000       8.21303445E-07
  0.469999999       8.74907812E-07
  0.476999998       9.31099862E-07
  0.483999997       9.89938258E-07
  0.490999997       1.05147922E-06
  0.497999996       1.11577538E-06
  0.504999995       1.18287619E-06
  0.512000024       1.25282622E-06
  0.518999994       1.32566572E-06
  0.526000023       1.40142981E-06
  0.532999992       1.48014885E-06
  0.540000021       1.56184819E-06
  0.546999991       1.64654841E-06
  0.554000020       1.73426531E-06
  0.560999990       1.82500901E-06
  0.568000019       1.91878462E-06
  0.574999988       2.01559033E-06
  0.582000017       2.11541897E-06
  0.588999987       2.21825530E-06
  0.596000016       2.32407774E-06
  0.602999985       2.43285763E-06
  0.610000014       2.54456040E-06
  0.616999984       2.65914514E-06
  0.624000013       2.77656500E-06
  0.630999982       2.89676859E-06
  0.638000011       3.01969567E-06
  0.644999981       3.14528074E-06
  0.652000010       3.27345197E-06
  0.658999979       3.40412953E-06
  0.666000009       3.53722817E-06
  0.672999978       3.67265557E-06
  0.680000007       3.81031646E-06
  0.686999977       3.95011011E-06
  0.694000006       4.09193035E-06
  0.700999975       4.23566780E-06
  0.708000004       4.38120605E-06
  0.714999974       4.52842596E-06
  0.722000003       4.67720156E-06
  0.728999972       4.82740279E-06
  0.736000001       4.97889596E-06
  0.742999971       5.13154509E-06
  0.750000000       5.28521059E-06
  0.757000029       5.43975466E-06
  0.763999999       5.59503542E-06
  0.771000028       5.75091190E-06
  0.777999997       5.90723948E-06
  0.785000026       6.06387312E-06
  0.791999996       6.22066318E-06
  0.799000025       6.37746007E-06
  0.805999994       6.53411553E-06
  0.813000023       6.69047904E-06
  0.819999993       6.84640418E-06
  0.827000022       7.00174724E-06
  0.833999991       7.15636679E-06
  0.841000021       7.31012051E-06
  0.847999990       7.46286605E-06
  0.855000019       7.61446472E-06
  0.861999989       7.76477555E-06
  0.869000018       7.91366256E-06
  0.875999987       8.06099069E-06
  0.883000016       8.20662626E-06
  0.889999986       8.35044466E-06
  0.897000015       8.49232310E-06
  0.903999984       8.63213882E-06
  0.911000013       8.76977447E-06
  0.917999983       8.90511456E-06
  0.925000012       9.03804721E-06
  0.931999981       9.16846056E-06
  0.939000010       9.29625185E-06
  0.945999980       9.42131464E-06
  0.953000009       9.54355164E-06
  0.959999979       9.66286825E-06
  0.967000008       9.77917716E-06
  0.973999977       9.89238833E-06
  0.981000006       1.00024190E-05
  0.987999976       1.01091937E-05
  0.995000005       1.02126332E-05
   1.00199997       1.03126649E-05
   1.00899994       1.04092196E-05
   1.01600003       1.05022318E-05
   1.02300000       1.05916415E-05
   1.02999997       1.06773905E-05
   1.03699994       1.07594260E-05
   1.04400003       1.08376998E-05
   1.05100000       1.09121684E-05
   1.05799997       1.09827924E-05
   1.06500006       1.10495357E-05
   1.07200003       1.11123636E-05
   1.07900000       1.11712516E-05
   1.08599997       1.12261732E-05
   1.09300005       1.12771122E-05
   1.10000002       1.13240540E-05
   1.10699999       1.13669903E-05
   1.11399996       1.14059167E-05
   1.12100005       1.14408385E-05
   1.12800002       1.14717668E-05
   1.13499999       1.14987170E-05
   1.14199996       1.15217053E-05
   1.14900005       1.15407593E-05
   1.15600002       1.15559078E-05
   1.16299999       1.15671874E-05
   1.16999996       1.15746425E-05
   1.17700005       1.15783232E-05
   1.18400002       1.15782859E-05
   1.19099998       1.15745988E-05
   1.19799995       1.15673311E-05
   1.20500004       1.15565672E-05
   1.21200001       1.15423918E-05
   1.21899998       1.15248986E-05
   1.22599995       1.15041912E-05
   1.23300004       1.14803779E-05
   1.24000001       1.14535769E-05
   1.24699998       1.14239128E-05
   1.25399995       1.13915194E-05
   1.26100004       1.13565411E-05
   1.26800001       1.13191245E-05
   1.27499998       1.12794251E-05
   1.28199995       1.12376047E-05
   1.28900003       1.11938325E-05
   1.29600000       1.11482841E-05
   1.30299997       1.11011459E-05
   1.30999994       1.10526098E-05
   1.31700003       1.10028750E-05
   1.32400000       1.09521479E-05
   1.33099997       1.09006387E-05
   1.33800006       1.08485610E-05
   1.34500003       1.07961278E-05
   1.35200000       1.07435617E-05
   1.35899997       1.06910802E-05
   1.36600006       1.06389116E-05
   1.37300003       1.05872841E-05
   1.38000000       1.05364279E-05
   1.38699996       1.04865803E-05
   1.39400005       1.04379751E-05
   1.40100002       1.03908451E-05
   1.40799999       1.03454186E-05
   1.41499996       1.03019174E-05
   1.42200005       1.02605609E-05
   1.42900002       1.02215663E-05
   1.43599999       1.01851465E-05
   1.44299996       1.01515097E-05
   1.45000005       1.01208625E-05
   1.45700002       1.00934003E-05
   1.46399999       1.00693132E-05
   1.47099996       1.00487796E-05
   1.47800004       1.00319648E-05
   1.48500001       1.00190236E-05
   1.49199998       1.00100979E-05
   1.49899995       1.00053203E-05
   1.50600004       1.00048110E-05
   1.51300001       1.00086791E-05
   1.51999998       1.00170209E-05
   1.52699995       1.00299194E-05
   1.53400004       1.00474363E-05
   1.54100001       1.00696207E-05
   1.54799998       1.00965053E-05
   1.55499995       1.01281075E-05
   1.56200004       1.01644227E-05
   1.56900001       1.02054400E-05
   1.57599998       1.02511285E-05
   1.58299994       1.03014418E-05
   1.59000003       1.03563143E-05
   1.59700000       1.04156707E-05
   1.60399997       1.04794108E-05
   1.61099994       1.05474182E-05
   1.61800003       1.06195630E-05
   1.62500000       1.06956986E-05
   1.63199997       1.07756650E-05
   1.63900006       1.08592931E-05
   1.64600003       1.09463963E-05
   1.65300000       1.10367764E-05
   1.65999997       1.11302179E-05
   1.66700006       1.12264952E-05
   1.67400002       1.13253700E-05
   1.68099999       1.14265904E-05
   1.68799996       1.15299017E-05
   1.69500005       1.16350357E-05
   1.70200002       1.17417185E-05
   1.70899999       1.18496719E-05
   1.71599996       1.19586139E-05
   1.72300005       1.20682571E-05
   1.73000002       1.21783105E-05
   1.73699999       1.22884767E-05
   1.74399996       1.23984573E-05
   1.75100005       1.25079505E-05
   1.75800002       1.26166651E-05
   1.76499999       1.27243038E-05
   1.77199996       1.28305746E-05
   1.77900004       1.29351984E-05
   1.78600001       1.30378949E-05
   1.79299998       1.31383895E-05
   1.79999995       1.32364139E-05
   1.80700004       1.33317062E-05
   1.81400001       1.34240081E-05
   1.82099998       1.35130731E-05
   1.82799995       1.35986593E-05
   1.83500004       1.36805411E-05
   1.84200001       1.37585039E-05
   1.84899998       1.38323448E-05
   1.85599995       1.39018784E-05
   1.86300004       1.39669310E-05
   1.87000000       1.40273442E-05
   1.87699997       1.40829725E-05
   1.88399994       1.41336768E-05
   1.89100003       1.41793353E-05
   1.89800000       1.42198369E-05
   1.90499997       1.42550825E-05
   1.91199994       1.42849940E-05
   1.91900003       1.43095003E-05
   1.92600000       1.43285542E-05
   1.93299997       1.43421184E-05
   1.94000006       1.43501738E-05
   1.94700003       1.43527141E-05
   1.95400000       1.43497446E-05
   1.96099997       1.43412790E-05
   1.96800005       1.43273401E-05
   1.97500002       1.43079660E-05
   1.98199999       1.42831996E-05
   1.98899996       1.42530962E-05
   1.99600005       1.42177259E-05
   2.00300002       1.41771698E-05
   2.00999999       1.41315204E-05
   2.01699996       1.40808843E-05
   2.02399993       1.40253715E-05
   2.03099990       1.39650983E-05
   2.03800011       1.39001831E-05
   2.04500008       1.38307469E-05
   2.05200005       1.37569159E-05
   2.05900002       1.36788240E-05
   2.06599998       1.35966120E-05
   2.07299995       1.35104256E-05
   2.07999992       1.34204192E-05
   2.08699989       1.33267531E-05
   2.09400010       1.32295900E-05
   2.10100007       1.31290954E-05
   2.10800004       1.30254239E-05
   2.11500001       1.29187365E-05
   2.12199998       1.28091851E-05
   2.12899995       1.26969271E-05
   2.13599992       1.25821207E-05
   2.14299989       1.24649250E-05
   2.15000010       1.23455047E-05
   2.15700006       1.22240281E-05
   2.16400003       1.21006615E-05
   2.17100000       1.19755769E-05
   2.17799997       1.18489361E-05
   2.18499994       1.17209011E-05
   2.19199991       1.15916246E-05
   2.19899988       1.14612558E-05
   2.20600009       1.13299429E-05
   2.21300006       1.11978379E-05
   2.22000003       1.10650990E-05
   2.22700000       1.09318889E-05
   2.23399997       1.07983697E-05
   2.24099994       1.06647094E-05
   2.24799991       1.05310692E-05
   2.25500011       1.03976063E-05
   2.26200008       1.02644708E-05
   2.26900005       1.01318092E-05
   2.27600002       9.99976055E-06
   2.28299999       9.86846680E-06
   2.28999996       9.73806800E-06
   2.29699993       9.60871512E-06
   2.30399990       9.48056186E-06
   2.31100011       9.35377102E-06
   2.31800008       9.22850086E-06
   2.32500005       9.10490962E-06
   2.33200002       8.98314556E-06
   2.33899999       8.86335602E-06
   2.34599996       8.74568104E-06
   2.35299993       8.63025798E-06
   2.35999990       8.51722234E-06
   2.36700010       8.40671328E-06
   2.37400007       8.29887540E-06
   2.38100004       8.19385878E-06
   2.38800001       8.09181165E-06
   2.39499998       7.99288136E-06
   2.40199995       7.89719979E-06
   2.40899992       7.80489245E-06
   2.41599989       7.71607120E-06
   2.42300010       7.63084699E-06
   2.43000007       7.54932171E-06
   2.43700004       7.47160175E-06
   2.44400001       7.39778898E-06
   2.45099998       7.32798844E-06
   2.45799994       7.26230201E-06
   2.46499991       7.20082562E-06
   2.47199988       7.14364296E-06
   2.47900009       7.09082178E-06
   2.48600006       7.04241393E-06
   2.49300003       6.99845759E-06
   2.50000000       6.95898689E-06
   2.50699997       6.92402864E-06
   2.51399994       6.89360832E-06
   2.52099991       6.86774365E-06
   2.52800012       6.84644920E-06
   2.53500009       6.82972768E-06
   2.54200006       6.81756592E-06
   2.54900002       6.80993389E-06
   2.55599999       6.80677931E-06
   2.56299996       6.80803532E-06
   2.56999993       6.81361780E-06
   2.57699990       6.82343716E-06
   2.58400011       6.83740154E-06
   2.59100008       6.85541499E-06
   2.59800005       6.87737702E-06
   2.60500002       6.90317620E-06
   2.61199999       6.93268748E-06
   2.61899996       6.96576672E-06
   2.62599993       7.00225701E-06
   2.63299990       7.04198328E-06
   2.64000010       7.08475591E-06
   2.64700007       7.13037934E-06
   2.65400004       7.17865805E-06
   2.66100001       7.22939785E-06
   2.66799998       7.28240911E-06
   2.67499995       7.33749539E-06
   2.68199992       7.39445477E-06
   2.68899989       7.45306943E-06
   2.69600010       7.51311245E-06
   2.70300007       7.57434509E-06
   2.71000004       7.63652770E-06
   2.71700001       7.69941744E-06
   2.72399998       7.76278102E-06
   2.73099995       7.82639108E-06
   2.73799992       7.89002752E-06
   2.74499989       7.95348296E-06
   2.75200009       8.01654460E-06
   2.75900006       8.07900051E-06
   2.76600003       8.14063878E-06
   2.77300000       8.20123842E-06
   2.77999997       8.26058840E-06
   2.78699994       8.31848774E-06
   2.79399991       8.37475454E-06
   2.80100012       8.42921600E-06
   2.80800009       8.48172112E-06
   2.81500006       8.53212623E-06
   2.82200003       8.58029398E-06
   2.82900000       8.62609704E-06
   2.83599997       8.66940900E-06
   2.84299994       8.71010980E-06
   2.84999990       8.74808939E-06
   2.85700011       8.78324772E-06
   2.86400008       8.81550841E-06
   2.87100005       8.84481324E-06
   2.87800002       8.87112492E-06
   2.88499999       8.89441344E-06
   2.89199996       8.91465697E-06
   2.89899993       8.93183733E-06
   2.90599990       8.94594905E-06
   2.91300011       8.95699031E-06
   2.92000008       8.96497568E-06
   2.92700005       8.96993151E-06
   2.93400002       8.97189602E-06
   2.94099998       8.97092468E-06
   2.94799995       8.96708571E-06
   2.95499992       8.96045822E-06
   2.96199989       8.95112316E-06
   2.96900010       8.93916331E-06
   2.97600007       8.92465687E-06
   2.98300004       8.90768933E-06
   2.99000001       8.88835712E-06
   2.99699998       8.86677026E-06
   3.00399995       8.84303881E-06
   3.01099992       8.81728920E-06
   3.01799989       8.78963965E-06
   3.02500010       8.76020840E-06
   3.03200006       8.72911278E-06
   3.03900003       8.69647010E-06
   3.04600000       8.66239225E-06
   3.05299997       8.62699744E-06
   3.05999994       8.59040301E-06
   3.06699991       8.55273538E-06
   3.07399988       8.51412824E-06
   3.08100009       8.47471074E-06
   3.08800006       8.43460202E-06
   3.09500003       8.39391305E-06
   3.10200000       8.35273750E-06
   3.10899997       8.31116540E-06
   3.11599994       8.26928408E-06
   3.12299991       8.22718448E-06
   3.13000011       8.18496028E-06
   3.13700008       8.14270970E-06
   3.14400005       8.10052279E-06
   3.15100002       8.05848595E-06
   3.15799999       8.01667738E-06
   3.16499996       7.97515895E-06
   3.17199993       7.93397703E-06
   3.17899990       7.89317437E-06
   3.18600011       7.85278735E-06
   3.19300008       7.81286235E-06
   3.20000005       7.77345758E-06
   3.20700002       7.73463034E-06
   3.21399999       7.69643975E-06
   3.22099996       7.65893219E-06
   3.22799993       7.62213858E-06
   3.23499990       7.58607712E-06
   3.24200010       7.55075644E-06
   3.24900007       7.51618063E-06
   3.25600004       7.48235516E-06
   3.26300001       7.44929230E-06
   3.26999998       7.41701433E-06
   3.27699995       7.38555445E-06
   3.28399992       7.35494541E-06
   3.29099989       7.32521630E-06
   3.29800010       7.29637986E-06
   3.30500007       7.26843791E-06
   3.31200004       7.24138590E-06
   3.31900001       7.21522110E-06
   3.32599998       7.18994579E-06
   3.33299994       7.16557452E-06
   3.33999991       7.14213093E-06
   3.34699988       7.11964594E-06
   3.35400009       7.09815049E-06
   3.36100006       7.07767413E-06
   3.36800003       7.05823641E-06
   3.37500000       7.03984733E-06
   3.38199997       7.02250554E-06
   3.38899994       7.00621058E-06
   3.39599991       6.99097473E-06
   3.40300012       6.97682026E-06
   3.41000009       6.96378220E-06
   3.41700006       6.95190192E-06
   3.42400002       6.94122218E-06
   3.43099999       6.93177844E-06
   3.43799996       6.92359890E-06
   3.44499993       6.91670357E-06
   3.45199990       6.91110517E-06
   3.45900011       6.90681418E-06
   3.46600008       6.90384422E-06
   3.47300005       6.90221623E-06
   3.48000002       6.90196430E-06
   3.48699999       6.90312527E-06
   3.49399996       6.90573552E-06
   3.50099993       6.90982097E-06
   3.50799990       6.91539435E-06
   3.51500010       6.92245521E-06
   3.52200007       6.93099719E-06
   3.52900004       6.94100845E-06
   3.53600001       6.95248036E-06
   3.54299998       6.96541065E-06
   3.54999995       6.97980204E-06
   3.55699992       6.99566044E-06
   3.56399989       7.01298723E-06
   3.57100010       7.03177648E-06
   3.57800007       7.05200182E-06
   3.58500004       7.07361778E-06
   3.59200001       7.09656842E-06
   3.59899998       7.12079054E-06
   3.60599995       7.14622229E-06
   3.61299992       7.17280773E-06
   3.61999989       7.20049411E-06
   3.62700009       7.22923414E-06
   3.63400006       7.25897189E-06
   3.64100003       7.28964415E-06
   3.64800000       7.32117314E-06
   3.65499997       7.35346475E-06
   3.66199994       7.38641074E-06
   3.66899991       7.41989516E-06
   3.67600012       7.45380703E-06
   3.68300009       7.48803950E-06
   3.69000006       7.52249571E-06
   3.69700003       7.55708470E-06
   3.70400000       7.59171098E-06
   3.71099997       7.62627269E-06
   3.71799994       7.66065205E-06
   3.72499990       7.69472081E-06
   3.73200011       7.72834119E-06
   3.73900008       7.76137676E-06
   3.74600005       7.79369293E-06
   3.75300002       7.82516418E-06
   3.75999999       7.85567954E-06
   3.76699996       7.88513898E-06
   3.77399993       7.91344610E-06
   3.78099990       7.94050266E-06
   3.78800011       7.96620407E-06
   3.79500008       7.99043846E-06
   3.80200005       8.01309034E-06
   3.80900002       8.03404691E-06
   3.81599998       8.05320724E-06
   3.82299995       8.07048309E-06
   3.82999992       8.08579898E-06
   3.83699989       8.09909579E-06
   3.84400010       8.11031623E-06
   3.85100007       8.11941027E-06
   3.85800004       8.12632516E-06
   3.86500001       8.13100269E-06
   3.87199998       8.13338374E-06
   3.87899995       8.13341376E-06
   3.88599992       8.13104907E-06
   3.89299989       8.12626422E-06
   3.90000010       8.11904647E-06
   3.90700006       8.10939491E-06
   3.91400003       8.09731591E-06
   3.92100000       8.08281675E-06
   3.92799997       8.06590560E-06
   3.93499994       8.04659339E-06
   3.94199991       8.02488830E-06
   3.94899988       8.00080124E-06
   3.95600009       7.97435132E-06
   3.96300006       7.94556399E-06
   3.97000003       7.91448201E-06
   3.97700000       7.88114812E-06
   3.98399997       7.84561325E-06
   3.99099994       7.80792652E-06
   3.99799991       7.76813886E-06
   4.00500011       7.72630210E-06
   4.01200008       7.68246628E-06
   4.01900005       7.63668140E-06
   4.02600002       7.58900387E-06
   4.03299999       7.53948780E-06
   4.03999996       7.48819366E-06
   4.04699993       7.43518331E-06
   4.05399990       7.38052358E-06
   4.06099987       7.32428180E-06
   4.06799984       7.26652206E-06
   4.07499981       7.20731032E-06
   4.08199978       7.14671069E-06
   4.08900023       7.08479001E-06
   4.09600019       7.02161333E-06
   4.10300016       6.95724566E-06
   4.11000013       6.89174794E-06
   4.11700010       6.82518157E-06
   4.12400007       6.75760930E-06
   4.13100004       6.68909524E-06
   4.13800001       6.61970580E-06
   4.14499998       6.54950691E-06
   4.15199995       6.47856450E-06
   4.15899992       6.40694407E-06
   4.16599989       6.33471518E-06
   4.17299986       6.26194424E-06
   4.17999983       6.18870126E-06
   4.18699980       6.11505538E-06
   4.19399977       6.04107754E-06
   4.20100021       5.96684049E-06
   4.20800018       5.89241790E-06
   4.21500015       5.81788663E-06
   4.22200012       5.74332216E-06
   4.22900009       5.66879862E-06
   4.23600006       5.59439104E-06
   4.24300003       5.52017673E-06
   4.25000000       5.44623526E-06
   4.25699997       5.37265032E-06
   4.26399994       5.29950512E-06
   4.27099991       5.22688197E-06
   4.27799988       5.15486454E-06
   4.28499985       5.08353332E-06
   4.29199982       5.01296745E-06
   4.29899979       4.94324331E-06
   4.30600023       4.87443867E-06
   4.31300020       4.80662902E-06
   4.32000017       4.73989485E-06
   4.32700014       4.67431892E-06
   4.33400011       4.60998808E-06
   4.34100008       4.54698511E-06
   4.34800005       4.48538867E-06
   4.35500002       4.42526834E-06
   4.36199999       4.36668779E-06
   4.36899996       4.30970340E-06
   4.37599993       4.25436565E-06
   4.38299990       4.20072456E-06
   4.38999987       4.14882606E-06
   4.39699984       4.09871609E-06
   4.40399981       4.05043784E-06
   4.41099977       4.00402905E-06
   4.41800022       3.95952156E-06
   4.42500019       3.91693402E-06
   4.43200016       3.87627733E-06
   4.43900013       3.83755332E-06
   4.44600010       3.80075790E-06
   4.45300007       3.76588332E-06
   4.46000004       3.73291982E-06
   4.46700001       3.70185307E-06
   4.47399998       3.67266148E-06
   4.48099995       3.64531365E-06
   4.48799992       3.61977027E-06
   4.49499989       3.59597993E-06
   4.50199986       3.57387989E-06
   4.50899982       3.55339967E-06
   4.51599979       3.53446103E-06
   4.52299976       3.51698623E-06
   4.53000021       3.50089840E-06
   4.53700018       3.48612048E-06
   4.54400015       3.47257287E-06
   4.55100012       3.46016986E-06
   4.55800009       3.44881551E-06
   4.56500006       3.43840497E-06
   4.57200003       3.42882572E-06
   4.57900000       3.41996019E-06
   4.58599997       3.41168834E-06
   4.59299994       3.40389033E-06
   4.59999990       3.39645158E-06
   4.60699987       3.38926111E-06
   4.61399984       3.38221435E-06
   4.62099981       3.37520737E-06
   4.62799978       3.36813378E-06
   4.63500023       3.36088419E-06
   4.64200020       3.35334721E-06
   4.64900017       3.34541301E-06
   4.65600014       3.33697449E-06
   4.66300011       3.32793070E-06
   4.67000008       3.31818660E-06
   4.67700005       3.30765283E-06
   4.68400002       3.29624800E-06
   4.69099998       3.28389274E-06
   4.69799995       3.27051384E-06
   4.70499992       3.25603969E-06
   4.71199989       3.24040184E-06
   4.71899986       3.22353890E-06
   4.72599983       3.20539675E-06
   4.73299980       3.18593402E-06
   4.73999977       3.16512046E-06
   4.74700022       3.14293584E-06
   4.75400019       3.11936492E-06
   4.76100016       3.09439520E-06
   4.76800013       3.06801735E-06
   4.77500010       3.04022615E-06
   4.78200006       3.01102182E-06
   4.78900003       2.98041050E-06
   4.79600000       2.94840856E-06
   4.80299997       2.91504398E-06
   4.80999994       2.88035312E-06
   4.81699991       2.84438283E-06
   4.82399988       2.80718382E-06
   4.83099985       2.76880928E-06
   4.83799982       2.72931175E-06
   4.84499979       2.68874487E-06
   4.85200024       2.64716641E-06
   4.85900021       2.60464344E-06
   4.86600018       2.56125418E-06
   4.87300014       2.51708707E-06
   4.88000011       2.47223898E-06
   4.88700008       2.42681131E-06
   4.89400005       2.38090729E-06
   4.90100002       2.33462879E-06
   4.90799999       2.28807266E-06
   4.91499996       2.24133169E-06
   4.92199993       2.19449748E-06
   4.92899990       2.14766374E-06
   4.93599987       2.10092981E-06
   4.94299984       2.05440324E-06
   4.94999981       2.00819704E-06
   4.95699978       1.96242581E-06
   4.96400023       1.91720233E-06
   4.97100019       1.87263879E-06
   4.97800016       1.82884276E-06
   4.98500013       1.78592074E-06
   4.99200010       1.74397712E-06