  -1.00000000       0.00000000    
 -0.992999971      -1.35399895E-27
 -0.986000001      -1.22805946E-25
 -0.978999972      -2.07706997E-24
 -0.972000003      -1.64304628E-23
 -0.964999974      -8.06016926E-23
 -0.958000004      -2.78544287E-22
 -0.950999975      -7.20306646E-22
 -0.944000006      -1.41093980E-21
 -0.936999977      -1.96074521E-21
 -0.930000007      -1.19896659E-21
 -0.922999978       3.07345984E-21
 -0.916000009       1.38297393E-20
 -0.908999979       3.37827218E-20
 -0.902000010       6.37029561E-20
 -0.894999981       1.00904383E-19
 -0.888000011       1.39339001E-19
 -0.880999982       1.72767967E-19
 -0.874000013       2.01394491E-19
 -0.866999984       2.40101167E-19
 -0.860000014       3.23804788E-19
 -0.852999985       5.04005076E-19
 -0.846000016       8.32119811E-19
 -0.838999987       1.33045115E-18
 -0.832000017       1.95932018E-18
 -0.824999988       2.59544109E-18
 -0.818000019       3.03731891E-18
 -0.810999990       3.04517278E-18
 -0.804000020       2.40671508E-18
 -0.796999991       1.00254549E-18
 -0.790000021      -1.16380021E-18
 -0.782999992      -3.99695409E-18
 -0.776000023      -7.39907516E-18
 -0.768999994      -1.13760140E-17
 -0.762000024      -1.60905092E-17
 -0.754999995      -2.17965069E-17
 -0.748000026      -2.86362947E-17
 -0.740999997      -3.63625222E-17
 -0.734000027      -4.41247917E-17
 -0.726999998      -5.04860952E-17
 -0.720000029      -5.37689864E-17
 -0.713000000      -5.26748813E-17
 -0.705999970      -4.69254433E-17
 -0.699000001      -3.75416847E-17
 -0.691999972      -2.64088594E-17
 -0.685000002      -1.50287898E-17
 -0.677999973      -2.78899536E-18
 -0.671000004       1.44797189E-17
 -0.663999975       4.46603151E-17
 -0.657000005       9.74230694E-17
 -0.649999976       1.80106826E-16
 -0.643000007       2.92322902E-16
 -0.635999978       4.21181336E-16
 -0.629000008       5.39503501E-16
 -0.621999979       6.08945538E-16
 -0.615000010       5.88529238E-16
 -0.607999980       4.47010891E-16
 -0.601000011       1.75540405E-16
 -0.593999982      -2.03947693E-16
 -0.587000012      -6.38567445E-16
 -0.579999983      -1.05416956E-15
 -0.573000014      -1.37310521E-15
 -0.565999985      -1.53500984E-15
 -0.559000015      -1.51378806E-15
 -0.551999986      -1.32469770E-15
 -0.545000017      -1.01866554E-15
 -0.537999988      -6.65684623E-16
 -0.531000018      -3.33468110E-16
 -0.523999989      -6.95671932E-17
 -0.517000020       1.06282068E-16
 -0.509999990       1.97452605E-16
 -0.503000021       2.17254832E-16
 -0.495999992       1.75877683E-16
 -0.488999993       7.68373630E-17
 -0.481999993      -7.18180641E-17
 -0.474999994      -2.34280208E-16
 -0.467999995      -3.23061172E-16
 -0.460999995      -1.90745149E-16
 -0.453999996       3.48176308E-16
 -0.446999997       1.46076443E-15
 -0.439999998       3.21481085E-15
 -0.432999998       5.49893789E-15
 -0.425999999       7.97672102E-15
 -0.419000000       1.01039909E-14
 -0.412000000       1.12217042E-14
 -0.405000001       1.07114804E-14
 -0.398000002       8.17556540E-15
 -0.391000003       3.58742085E-15
 -0.384000003      -2.63905397E-15
 -0.377000004      -9.69297410E-15
 -0.370000005      -1.65197429E-14
 -0.363000005      -2.20450557E-14
 -0.356000006      -2.54054810E-14
 -0.349000007      -2.61178001E-14
 -0.342000008      -2.41396021E-14
 -0.335000008      -1.98115416E-14
 -0.328000009      -1.37134109E-14
 -0.321000010      -6.49560683E-15
 -0.314000010       1.24742256E-15
 -0.307000011       9.01753647E-15
 -0.300000012       1.63645461E-14
 -0.293000013       2.27908072E-14
 -0.286000013       2.76783855E-14
 -0.279000014       3.03061477E-14
 -0.272000015       2.99898656E-14
 -0.264999986       2.63229634E-14
 -0.257999986       1.94404531E-14
 -0.250999987       1.01974508E-14
 -0.244000003       1.62387797E-16
 -0.237000003      -8.62364921E-15
 -0.230000004      -1.40914019E-14
 -0.223000005      -1.46824827E-14
 -0.216000006      -9.82412614E-15
 -0.209000006      -1.82499773E-16
 -0.202000007       1.24052863E-14
 -0.194999993       2.53233290E-14
 -0.187999994       3.57914653E-14
 -0.180999994       4.15250449E-14
 -0.173999995       4.12447278E-14
 -0.166999996       3.48900088E-14
 -0.159999996       2.34899397E-14
 -0.152999997       8.76171812E-15
 -0.145999998      -7.40086483E-15
 -0.138999999      -2.33557545E-14
 -0.131999999      -3.79067403E-14
 -0.125000000      -5.02147592E-14
 -0.118000001      -5.95025738E-14
 -0.111000001      -6.47284553E-14
 -0.104000002      -6.44361341E-14
  -9.70000029E-02  -5.69341869E-14
  -9.00000036E-02  -4.08308336E-14
  -8.29999968E-02  -1.57920602E-14
  -7.59999976E-02   1.67385908E-14
  -6.89999983E-02   5.31684173E-14
  -6.19999990E-02   8.79783781E-14
  -5.49999997E-02   1.14621135E-13
  -4.80000004E-02   1.26954044E-13
  -4.10000011E-02   1.20862291E-13
  -3.40000018E-02   9.56131604E-14
  -2.70000007E-02   5.45066176E-14
  -1.99999996E-02   4.55626519E-15
  -1.30000003E-02  -4.47958287E-14
  -6.00000005E-03  -8.36396721E-14
   1.00000005E-03  -1.03728996E-13
   8.00000038E-03  -1.00215633E-13
   1.49999997E-02  -7.25310111E-14
   2.19999999E-02  -2.42172463E-14
   2.89999992E-02   3.81682465E-14
   3.59999985E-02   1.06673154E-13
   4.30000015E-02   1.73557132E-13
   5.00000007E-02   2.32398871E-13
   5.70000000E-02   2.78443420E-13
   6.40000030E-02   3.08247324E-13
   7.10000023E-02   3.18973607E-13
   7.80000016E-02   3.07840125E-13
   8.50000009E-02   2.72170009E-13
   9.20000002E-02   2.10236966E-13
   9.89999995E-02   1.22726089E-13
  0.105999999       1.42816463E-14
  0.112999998      -1.05569213E-13
  0.119999997      -2.22753334E-13
  0.127000004      -3.20542502E-13
  0.134000003      -3.82778553E-13
  0.141000003      -3.97693109E-13
  0.148000002      -3.61249279E-13
  0.155000001      -2.78921932E-13
  0.162000000      -1.65190615E-13
  0.169000000      -4.06586826E-14
  0.175999999       7.25603185E-14
  0.182999998       1.55968812E-13
  0.189999998       1.98879568E-13
  0.196999997       2.00465756E-13
  0.203999996       1.69090124E-13
  0.210999995       1.19182184E-13
  0.217999995       6.67122065E-14
  0.224999994       2.47531013E-14
  0.231999993       5.60562699E-16
  0.238999993      -4.95780370E-15
  0.246000007       4.60719558E-15
  0.252999991       2.44959811E-14
  0.259999990       5.21124180E-14
  0.266999990       8.88503613E-14
  0.273999989       1.39466983E-13
  0.280999988       2.09035155E-13
  0.287999988       2.98560493E-13
  0.294999987       4.01077338E-13
  0.301999986       5.00123651E-13
  0.308999985       5.71839071E-13
  0.316000015       5.90695732E-13
  0.323000014       5.37461351E-13
  0.330000013       4.06915251E-13
  0.337000012       2.12534024E-13
  0.344000012      -1.39706209E-14
  0.351000011      -2.28864291E-13
  0.358000010      -3.87058875E-13
  0.365000010      -4.54289926E-13
  0.372000009      -4.17066284E-13
  0.379000008      -2.87083400E-13
  0.386000007      -9.83928786E-14
  0.393000007       1.02078726E-13
  0.400000006       2.67814606E-13
  0.407000005       3.65559227E-13
  0.414000005       3.83501905E-13
  0.421000004       3.32054534E-13
  0.428000003       2.37016082E-13
  0.435000002       1.27633445E-13
  0.442000002       2.39934788E-14
  0.449000001      -7.14398836E-14
  0.456000000      -1.74727013E-13
  0.463000000      -3.13131411E-13
  0.469999999      -5.12093189E-13
  0.476999998      -7.81430313E-13
  0.483999997      -1.10639612E-12
  0.490999997      -1.44779414E-12
  0.497999996      -1.75219041E-12
  0.504999995      -1.96942462E-12
  0.512000024      -2.07150833E-12
  0.518999994      -2.06584879E-12
  0.526000023      -1.99714832E-12
  0.532999992      -1.93599303E-12
  0.540000021      -1.95688257E-12
  0.546999991      -2.11257791E-12
  0.554000020      -2.41356566E-12
  0.560999990      -2.82033706E-12
  0.568000019      -3.25215397E-12
  0.574999988      -3.61032731E-12
  0.582000017      -3.80876971E-12
  0.588999987      -3.80151900E-12
  0.596000016      -3.59749990E-12
  0.602999985      -3.25683577E-12
  0.610000014      -2.86938247E-12
  0.616999984      -2.52256376E-12
  0.624000013      -2.26973323E-12
  0.630999982      -2.11043704E-12
  0.638000011      -1.98999150E-12
  0.644999981      -1.81888250E-12
  0.652000010      -1.50496770E-12
  0.658999979      -9.86300885E-13
  0.666000009      -2.51594942E-13
  0.672999978       6.60721152E-13
  0.680000007       1.68614840E-12
  0.686999977       2.77309534E-12
  0.694000006       3.92346615E-12
  0.700999975       5.21939046E-12
  0.708000004       6.82469099E-12
  0.714999974       8.95840173E-12
  0.722000003       1.18477771E-11
  0.728999972       1.56764809E-11
  0.736000001       2.05464777E-11
  0.742999971       2.64687994E-11
  0.750000000       3.33887258E-11
  0.757000029       4.12389393E-11
  0.763999999       5.00042785E-11
  0.771000028       5.97766142E-11
  0.777999997       7.07811032E-11
  0.785000026       8.33648497E-11
  0.791999996       9.79520909E-11
  0.799000025       1.14982190E-10
  0.805999994       1.34853892E-10
  0.813000023       1.57897001E-10
  0.819999993       1.84384633E-10
  0.827000022       2.14582976E-10
  0.833999991       2.48823628E-10
  0.841000021       2.87573049E-10
  0.847999990       3.31475625E-10
  0.855000019       3.81354781E-10
  0.861999989       4.38172248E-10
  0.869000018       5.02961450E-10
  0.875999987       5.76763859E-10
  0.883000016       6.60590915E-10
  0.889999986       7.55436658E-10
  0.897000015       8.62337646E-10
  0.903999984       9.82467219E-10
  0.911000013       1.11723508E-09
  0.917999983       1.26835698E-09
  0.925000012       1.43787848E-09
  0.931999981       1.62814007E-09
  0.939000010       1.84170112E-09
  0.945999980       2.08125495E-09
  0.953000009       2.34956588E-09
  0.959999979       2.64946576E-09
  0.967000008       2.98390868E-09
  0.973999977       3.35608519E-09
  0.981000006       3.76955178E-09
  0.987999976       4.22834523E-09
  0.995000005       4.73704720E-09
   1.00199997       5.30078070E-09
   1.00899994       5.92514748E-09
   1.01600003       6.61614097E-09
   1.02300000       7.38006900E-09
   1.02999997       8.22353030E-09
   1.03699994       9.15346110E-09
   1.04400003       1.01772457E-08
   1.05100000       1.13028538E-08
   1.05799997       1.25389876E-08
   1.06500006       1.38951650E-08
   1.07200003       1.53817261E-08
   1.07900000       1.70097767E-08
   1.08599997       1.87910789E-08
   1.09300005       2.07379500E-08
   1.10000002       2.28632153E-08
   1.10699999       2.51802241E-08
   1.11399996       2.77029741E-08
   1.12100005       3.04462482E-08
   1.12800002       3.34257884E-08
   1.13499999       3.66584167E-08
   1.14199996       4.01620461E-08
   1.14900005       4.39556231E-08
   1.15600002       4.80589897E-08
   1.16299999       5.24927337E-08
   1.16999996       5.72780472E-08
   1.17700005       6.24367118E-08
   1.18400002       6.79910883E-08
   1.19099998       7.39643014E-08
   1.19799995       8.03803530E-08
   1.20500004       8.72642048E-08
   1.21200001       9.46417700E-08
   1.21899998       1.02539907E-07
   1.22599995       1.10986129E-07
   1.23300004       1.20008480E-07
   1.24000001       1.29635282E-07
   1.24699998       1.39895022E-07
   1.25399995       1.50816376E-07
   1.26100004       1.62428222E-07
   1.26800001       1.74759606E-07
   1.27499998       1.87839987E-07
   1.28199995       2.01698995E-07
   1.28900003       2.16366502E-07
   1.29600000       2.31872278E-07
   1.30299997       2.48245755E-07
   1.30999994       2.65515609E-07
   1.31700003       2.83709710E-07
   1.32400000       3.02854886E-07
   1.33099997       3.22977030E-07
   1.33800006       3.44100869E-07
   1.34500003       3.66250077E-07
   1.35200000       3.89447450E-07
   1.35899997       4.13714531E-07
   1.36600006       4.39071471E-07
   1.37300003       4.65536630E-07
   1.38000000       4.93126322E-07
   1.38699996       5.21854417E-07
   1.39400005       5.51732455E-07
   1.40100002       5.82768962E-07
   1.40799999       6.14970190E-07
   1.41499996       6.48339665E-07
   1.42200005       6.82878067E-07
   1.42900002       7.18583578E-07
   1.43599999       7.55451538E-07
   1.44299996       7.93474044E-07
   1.45000005       8.32640012E-07
   1.45700002       8.72934265E-07
   1.46399999       9.14338557E-07
   1.47099996       9.56830263E-07
   1.47800004       1.00038324E-06
   1.48500001       1.04496814E-06
   1.49199998       1.09055179E-06
   1.49899995       1.13709746E-06
   1.50600004       1.18456535E-06
   1.51300001       1.23291215E-06
   1.51999998       1.28209081E-06
   1.52699995       1.33205083E-06
   1.53400004       1.38273731E-06
   1.54100001       1.43409261E-06
   1.54799998       1.48605443E-06
   1.55499995       1.53855819E-06
   1.56200004       1.59153592E-06
   1.56900001       1.64491701E-06
   1.57599998       1.69862926E-06
   1.58299994       1.75259754E-06
   1.59000003       1.80674465E-06
   1.59700000       1.86099078E-06
   1.60399997       1.91525464E-06
   1.61099994       1.96945348E-06
   1.61800003       2.02350225E-06
   1.62500000       2.07731546E-06
   1.63199997       2.13080671E-06
   1.63900006       2.18388959E-06
   1.64600003       2.23647635E-06
   1.65300000       2.28848103E-06
   1.65999997       2.33981723E-06
   1.66700006       2.39039969E-06
   1.67400002       2.44014450E-06
   1.68099999       2.48896754E-06
   1.68799996       2.53678718E-06
   1.69500005       2.58352361E-06
   1.70200002       2.62909930E-06
   1.70899999       2.67343898E-06
   1.71599996       2.71647059E-06
   1.72300005       2.75812522E-06
   1.73000002       2.79833694E-06
   1.73699999       2.83704458E-06
   1.74399996       2.87418948E-06
   1.75100005       2.90971730E-06
   1.75800002       2.94357756E-06
   1.76499999       2.97572274E-06
   1.77199996       3.00610986E-06
   1.77900004       3.03470097E-06
   1.78600001       3.06146285E-06
   1.79299998       3.08636777E-06
   1.79999995       3.10939163E-06
   1.80700004       3.13051714E-06
   1.81400001       3.14973067E-06
   1.82099998       3.16702358E-06
   1.82799995       3.18239108E-06
   1.83500004       3.19583501E-06
   1.84200001       3.20736012E-06
   1.84899998       3.21697576E-06
   1.85599995       3.22469782E-06
   1.86300004       3.23054633E-06
   1.87000000       3.23454560E-06
   1.87699997       3.23672566E-06
   1.88399994       3.23711902E-06
   1.89100003       3.23576251E-06
   1.89800000       3.23269592E-06
   1.90499997       3.22796177E-06
   1.91199994       3.22160713E-06
   1.91900003       3.21368088E-06
   1.92600000       3.20423669E-06
   1.93299997       3.19333139E-06
   1.94000006       3.18102389E-06
   1.94700003       3.16737624E-06
   1.95400000       3.15245188E-06
   1.96099997       3.13631676E-06
   1.96800005       3.11903705E-06
   1.97500002       3.10068026E-06
   1.98199999       3.08131484E-06
   1.98899996       3.06101106E-06
   1.99600005       3.03983984E-06
   2.00300002       3.01787281E-06
   2.00999999       2.99518388E-06
   2.01699996       2.97184511E-06
   2.02399993       2.94793017E-06
   2.03099990       2.92351092E-06
   2.03800011       2.89865739E-06
   2.04500008       2.87343823E-06
   2.05200005       2.84791986E-06
   2.05900002       2.82216911E-06
   2.06599998       2.79625147E-06
   2.07299995       2.77023423E-06
   2.07999992       2.74418107E-06
   2.08699989       2.71815588E-06
   2.09400010       2.69222028E-06
   2.10100007       2.66643292E-06
   2.10800004       2.64084929E-06
   2.11500001       2.61552213E-06
   2.12199998       2.59050080E-06
   2.12899995       2.56583280E-06
   2.13599992       2.54156362E-06
   2.14299989       2.51773668E-06
   2.15000010       2.49439245E-06
   2.15700006       2.47157095E-06
   2.16400003       2.44930698E-06
   2.17100000       2.42763213E-06
   2.17799997       2.40657391E-06
   2.18499994       2.38615553E-06
   2.19199991       2.36639539E-06
   2.19899988       2.34730942E-06
   2.20600009       2.32891102E-06
   2.21300006       2.31121203E-06
   2.22000003       2.29422199E-06
   2.22700000       2.27794817E-06
   2.23399997       2.26239513E-06
   2.24099994       2.24756286E-06
   2.24799991       2.23344637E-06
   2.25500011       2.22003746E-06
   2.26200008       2.20732068E-06
   2.26900005       2.19527897E-06
   2.27600002       2.18389232E-06
   2.28299999       2.17313823E-06
   2.28999996       2.16299441E-06
   2.29699993       2.15343584E-06
   2.30399990       2.14443639E-06
   2.31100011       2.13596627E-06
   2.31800008       2.12799273E-06
   2.32500005       2.12047871E-06
   2.33200002       2.11338352E-06
   2.33899999       2.10666303E-06
   2.34599996       2.10027224E-06
   2.35299993       2.09416453E-06
   2.35999990       2.08829488E-06
   2.36700010       2.08261736E-06
   2.37400007       2.07708717E-06
   2.38100004       2.07165726E-06
   2.38800001       2.06627965E-06
   2.39499998       2.06090408E-06
   2.40199995       2.05547735E-06
   2.40899992       2.04994512E-06
   2.41599989       2.04425169E-06
   2.42300010       2.03834315E-06
   2.43000007       2.03216746E-06
   2.43700004       2.02567458E-06
   2.44400001       2.01881835E-06
   2.45099998       2.01155376E-06
   2.45799994       2.00383579E-06
   2.46499991       1.99561782E-06
   2.47199988       1.98685257E-06
   2.47900009       1.97749046E-06
   2.48600006       1.96748374E-06
   2.49300003       1.95678604E-06
   2.50000000       1.94535346E-06
   2.50699997       1.93314827E-06
   2.51399994       1.92013567E-06
   2.52099991       1.90628532E-06
   2.52800012       1.89156810E-06
   2.53500009       1.87595629E-06
   2.54200006       1.85942065E-06
   2.54900002       1.84193163E-06
   2.55599999       1.82345980E-06
   2.56299996       1.80397819E-06
   2.56999993       1.78346340E-06
   2.57699990       1.76189667E-06
   2.58400011       1.73926412E-06
   2.59100008       1.71555655E-06
   2.59800005       1.69076645E-06
   2.60500002       1.66488815E-06
   2.61199999       1.63791583E-06
   2.61899996       1.60984314E-06
   2.62599993       1.58066405E-06
   2.63299990       1.55037458E-06
   2.64000010       1.51897484E-06
   2.64700007       1.48646973E-06
   2.65400004       1.45286981E-06
   2.66100001       1.41819066E-06
   2.66799998       1.38245105E-06
   2.67499995       1.34567199E-06
   2.68199992       1.30787441E-06
   2.68899989       1.26907878E-06
   2.69600010       1.22930680E-06
   2.70300007       1.18858054E-06
   2.71000004       1.14692602E-06
   2.71700001       1.10437315E-06
   2.72399998       1.06095843E-06
   2.73099995       1.01672401E-06
   2.73799992       9.71716872E-07
   2.74499989       9.25987422E-07
   2.75200009       8.79588129E-07
   2.75900006       8.32572823E-07
   2.76600003       7.84995905E-07
   2.77300000       7.36913535E-07
   2.77999997       6.88384773E-07
   2.78699994       6.39472660E-07
   2.79399991       5.90245577E-07
   2.80100012       5.40777762E-07
   2.80800009       4.91148285E-07
   2.81500006       4.41440250E-07
   2.82200003       3.91739320E-07
   2.82900000       3.42132438E-07
   2.83599997       2.92707369E-07
   2.84299994       2.43552989E-07
   2.84999990       1.94759920E-07
   2.85700011       1.46421570E-07
   2.86400008       9.86355744E-08
   2.87100005       5.15041805E-08
   2.87800002       5.13431697E-09
   2.88499999      -4.03633891E-08
   2.89199996      -8.48764259E-08
   2.89899993      -1.28291305E-07
   2.90599990      -1.70495170E-07
   2.91300011      -2.11376047E-07
   2.92000008      -2.50823319E-07
   2.92700005      -2.88726596E-07
   2.93400002      -3.24974934E-07
   2.94099998      -3.59455981E-07
   2.94799995      -3.92055711E-07
   2.95499992      -4.22658616E-07
   2.96199989      -4.51149333E-07
   2.96900010      -4.77414062E-07
   2.97600007      -5.01342413E-07
   2.98300004      -5.22828088E-07
   2.99000001      -5.41769509E-07
   2.99699998      -5.58069075E-07
   3.00399995      -5.71633052E-07
   3.01099992      -5.82369978E-07
   3.01799989      -5.90190439E-07
   3.02500010      -5.95006441E-07
   3.03200006      -5.96732775E-07
   3.03900003      -5.95288384E-07
   3.04600000      -5.90598972E-07
   3.05299997      -5.82597579E-07
   3.05999994      -5.71225598E-07
   3.06699991      -5.56432781E-07
   3.07399988      -5.38176153E-07
   3.08100009      -5.16419334E-07
   3.08800006      -4.91131686E-07
   3.09500003      -4.62287716E-07
   3.10200000      -4.29867157E-07
   3.10899997      -3.93855942E-07
   3.11599994      -3.54247874E-07
   3.12299991      -3.11045909E-07
   3.13000011      -2.64263889E-07
   3.13700008      -2.13926384E-07
   3.14400005      -1.60067927E-07
   3.15100002      -1.02731818E-07
   3.15799999      -4.19689776E-08
   3.16499996       2.21631815E-08
   3.17199993       8.96010945E-08
   3.17899990       1.60273885E-07
   3.18600011       2.34103396E-07
   3.19300008       3.11002879E-07
   3.20000005       3.90874987E-07
   3.20700002       4.73611976E-07
   3.21399999       5.59095270E-07
   3.22099996       6.47196771E-07
   3.22799993       7.37781363E-07
   3.23499990       8.30707449E-07
   3.24200010       9.25828999E-07
   3.24900007       1.02299452E-06
   3.25600004       1.12204839E-06
   3.26300001       1.22282802E-06
   3.26999998       1.32516482E-06
   3.27699995       1.42888314E-06
   3.28399992       1.53380063E-06
   3.29099989       1.63972879E-06
   3.29800010       1.74647346E-06
   3.30500007       1.85383840E-06
   3.31200004       1.96162614E-06
   3.31900001       2.06963909E-06
   3.32599998       2.17768047E-06
   3.33299994       2.28555405E-06
   3.33999991       2.39306155E-06
   3.34699988       2.50000221E-06
   3.35400009       2.60617526E-06
   3.36100006       2.71137856E-06
   3.36800003       2.81540974E-06
   3.37500000       2.91806987E-06
   3.38199997       3.01916248E-06
   3.38899994       3.11849726E-06
   3.39599991       3.21589118E-06
   3.40300012       3.31116985E-06
   3.41000009       3.40416477E-06
   3.41700006       3.49471316E-06
   3.42400002       3.58265697E-06
   3.43099999       3.66784184E-06
   3.43799996       3.75011996E-06
   3.44499993       3.82935104E-06
   3.45199990       3.90540208E-06
   3.45900011       3.97815165E-06
   3.46600008       4.04748926E-06
   3.47300005       4.11331848E-06
   3.48000002       4.17555657E-06
   3.48699999       4.23413030E-06
   3.49399996       4.28897647E-06
   3.50099993       4.34004005E-06
   3.50799990       4.38727102E-06
   3.51500010       4.43062800E-06
   3.52200007       4.47008006E-06
   3.52900004       4.50560992E-06
   3.53600001       4.53721032E-06
   3.54299998       4.56488897E-06
   3.54999995       4.58866816E-06
   3.55699992       4.60858428E-06
   3.56399989       4.62468006E-06
   3.57100010       4.63700826E-06
   3.57800007       4.64562618E-06
   3.58500004       4.65059566E-06
   3.59200001       4.65198309E-06
   3.59899998       4.64986442E-06
   3.60599995       4.64432514E-06
   3.61299992       4.63545985E-06
   3.61999989       4.62337402E-06
   3.62700009       4.60818001E-06
   3.63400006       4.58999557E-06
   3.64100003       4.56894259E-06
   3.64800000       4.54514566E-06
   3.65499997       4.51872711E-06
   3.66199994       4.48980836E-06
   3.66899991       4.45851310E-06
   3.67600012       4.42496457E-06
   3.68300009       4.38929374E-06
   3.69000006       4.35163338E-06
   3.69700003       4.31211902E-06
   3.70400000       4.27088480E-06
   3.71099997       4.22806443E-06
   3.71799994       4.18378386E-06
   3.72499990       4.13816815E-06
   3.73200011       4.09133600E-06
   3.73900008       4.04339971E-06
   3.74600005       3.99446935E-06
   3.75300002       3.94465360E-06
   3.75999999       3.89405750E-06
   3.76699996       3.84278610E-06
   3.77399993       3.79094195E-06
   3.78099990       3.73862258E-06
   3.78800011       3.68591600E-06
   3.79500008       3.63290360E-06
   3.80200005       3.57966132E-06
   3.80900002       3.52625852E-06
   3.81599998       3.47276114E-06
   3.82299995       3.41923010E-06
   3.82999992       3.36572316E-06
   3.83699989       3.31229489E-06
   3.84400010       3.25899828E-06
   3.85100007       3.20588128E-06
   3.85800004       3.15298803E-06
   3.86500001       3.10035534E-06
   3.87199998       3.04801574E-06
   3.87899995       2.99599651E-06
   3.88599992       2.94432402E-06
   3.89299989       2.89302329E-06
   3.90000010       2.84211842E-06
   3.90700006       2.79163100E-06
   3.91400003       2.74158219E-06
   3.92100000       2.69199131E-06
   3.92799997       2.64287678E-06
   3.93499994       2.59425474E-06
   3.94199991       2.54613974E-06
   3.94899988       2.49854497E-06
   3.95600009       2.45148317E-06
   3.96300006       2.40497093E-06
   3.97000003       2.35902621E-06
   3.97700000       2.31366857E-06
   3.98399997       2.26892007E-06
   3.99099994       2.22480116E-06
   3.99799991       2.18133368E-06
   4.00500011       2.13853991E-06
   4.01200008       2.09644350E-06
   4.01900005       2.05506967E-06
   4.02600002       2.01444323E-06
   4.03299999       1.97459076E-06
   4.03999996       1.93553956E-06
   4.04699993       1.89731929E-06
   4.05399990       1.85996169E-06
   4.06099987       1.82349982E-06
   4.06799984       1.78796608E-06
   4.07499981       1.75339267E-06
   4.08199978       1.71981242E-06
   4.08900023       1.68725978E-06
   4.09600019       1.65576989E-06
   4.10300016       1.62537845E-06
   4.11000013       1.59612011E-06
   4.11700010       1.56802855E-06
   4.12400007       1.54113673E-06
   4.13100004       1.51547647E-06
   4.13800001       1.49107825E-06
   4.14499998       1.46796935E-06
   4.15199995       1.44617422E-06
   4.15899992       1.42571366E-06
   4.16599989       1.40660609E-06
   4.17299986       1.38886867E-06
   4.17999983       1.37251584E-06
   4.18699980       1.35755920E-06
   4.19399977       1.34400659E-06
   4.20100021       1.33186234E-06
   4.20800018       1.32112768E-06
   4.21500015       1.31180025E-06
   4.22200012       1.30387343E-06
   4.22900009       1.29733473E-06
   4.23600006       1.29216630E-06
   4.24300003       1.28834586E-06
   4.25000000       1.28584736E-06
   4.25699997       1.28464239E-06
   4.26399994       1.28469821E-06
   4.27099991       1.28597867E-06
   4.27799988       1.28844340E-06
   4.28499985       1.29204682E-06
   4.29199982       1.29673901E-06
   4.29899979       1.30246463E-06
   4.30600023       1.30916385E-06
   4.31300020       1.31677143E-06
   4.32000017       1.32521927E-06
   4.32700014       1.33443746E-06
   4.33400011       1.34435606E-06
   4.34100008       1.35490518E-06
   4.34800005       1.36601363E-06
   4.35500002       1.37760799E-06
   4.36199999       1.38961036E-06
   4.36899996       1.40194049E-06
   4.37599993       1.41451494E-06
   4.38299990       1.42724775E-06
   4.38999987       1.44005287E-06
   4.39699984       1.45284446E-06
   4.40399981       1.46554032E-06
   4.41099977       1.47806236E-06
   4.41800022       1.49033599E-06
   4.42500019       1.50228891E-06
   4.43200016       1.51384859E-06
   4.43900013       1.52493999E-06
   4.44600010       1.53548763E-06
   4.45300007       1.54541578E-06
   4.46000004       1.55465193E-06
   4.46700001       1.56312740E-06
   4.47399998       1.57077977E-06
   4.48099995       1.57755369E-06
   4.48799992       1.58340117E-06
   4.49499989       1.58828004E-06
   4.50199986       1.59215267E-06
   4.50899982       1.59498302E-06
   4.51599979       1.59673573E-06
   4.52299976       1.59737681E-06
   4.53000021       1.59687613E-06
   4.53700018       1.59520926E-06
   4.54400015       1.59236106E-06
   4.55100012       1.58832472E-06
   4.55800009       1.58310206E-06
   4.56500006       1.57670161E-06
   4.57200003       1.56913711E-06
   4.57900000       1.56042609E-06
   4.58599997       1.55058683E-06
   4.59299994       1.53963936E-06
   4.59999990       1.52760583E-06
   4.60699987       1.51451297E-06
   4.61399984       1.50039591E-06
   4.62099981       1.48529909E-06
   4.62799978       1.46927641E-06
   4.63500023       1.45238846E-06
   4.64200020       1.43470061E-06
   4.64900017       1.41628072E-06
   4.65600014       1.39719657E-06
   4.66300011       1.37751636E-06
   4.67000008       1.35730750E-06
   4.67700005       1.33663923E-06
   4.68400002       1.31558465E-06
   4.69099998       1.29422244E-06
   4.69799995       1.27263934E-06
   4.70499992       1.25092811E-06
   4.71199989       1.22918414E-06
   4.71899986       1.20750178E-06
   4.72599983       1.18597268E-06
   4.73299980       1.16468379E-06
   4.73999977       1.14371869E-06
   4.74700022       1.12315831E-06
   4.75400019       1.10308224E-06
   4.76100016       1.08357187E-06
   4.76800013       1.06471066E-06
   4.77500010       1.04658579E-06
   4.78200006       1.02928448E-06
   4.78900003       1.01289163E-06
   4.79600000       9.97485358E-07
   4.80299997       9.83135351E-07
   4.80999994       9.69902544E-07
   4.81699991       9.57841621E-07
   4.82399988       9.47003173E-07
   4.83099985       9.37436766E-07
   4.83799982       9.29191231E-07
   4.84499979       9.22314996E-07
   4.85200024       9.16855583E-07
   4.85900021       9.12856592E-07
   4.86600018       9.10353776E-07
   4.87300014       9.09372375E-07
   4.88000011       9.09925120E-07
   4.88700008       9.12013491E-07
   4.89400005       9.15631517E-07
   4.90100002       9.20769708E-07
   4.90799999       9.27417886E-07
   4.91499996       9.35565595E-07
   4.92199993       9.45201691E-07
   4.92899990       9.56311965E-07
   4.93599987       9.68877316E-07
   4.94299984       9.82870574E-07
   4.94999981       9.98256041E-07
   4.95699978       1.01498654E-06
   4.96400023       1.03300704E-06
   4.97100019       1.05225729E-06
   4.97800016       1.07267704E-06
   4.98500013       1.09420705E-06
   4.99200010       1.11679071E-06