  -1.00000000      -6.43969413E-20
 -0.992999971      -7.96518992E-19
 -0.986000001      -2.07259160E-18
 -0.978999972       1.89847091E-18
 -0.972000003       2.85997498E-17
 -0.964999974       1.08603044E-16
 -0.958000004       2.75275649E-16
 -0.950999975       5.39398998E-16
 -0.944000006       8.53110515E-16
 -0.936999977       1.07429655E-15
 -0.930000007       9.43750981E-16
 -0.922999978       8.43841751E-17
 -0.916000009      -1.96972514E-15
 -0.908999979      -5.70449500E-15
 -0.902000010      -1.15090780E-14
 -0.894999981      -1.95214362E-14
 -0.888000011      -2.94845223E-14
 -0.880999982      -4.06996079E-14
 -0.874000013      -5.21654185E-14
 -0.866999984      -6.29288424E-14
 -0.860000014      -7.25528646E-14
 -0.852999985      -8.14840139E-14
 -0.846000016      -9.10558047E-14
 -0.838999987      -1.02955344E-13
 -0.832000017      -1.18207920E-13
 -0.824999988      -1.36020603E-13
 -0.818000019      -1.53039284E-13
 -0.810999990      -1.63579301E-13
 -0.804000020      -1.61114733E-13
 -0.796999991      -1.40799387E-13
 -0.790000021      -1.02212089E-13
 -0.782999992      -5.11442627E-14
 -0.776000023       6.80137810E-16
 -0.768999994       3.84301694E-14
 -0.762000024       4.89808626E-14
 -0.754999995       2.61079237E-14
 -0.748000026      -2.60984149E-14
 -0.740999997      -9.34538024E-14
 -0.734000027      -1.56174336E-13
 -0.726999998      -1.96545362E-13
 -0.720000029      -2.07080419E-13
 -0.713000000      -1.95782951E-13
 -0.705999970      -1.85751127E-13
 -0.699000001      -2.08284128E-13
 -0.691999972      -2.91243890E-13
 -0.685000002      -4.46716205E-13
 -0.677999973      -6.62961222E-13
 -0.671000004      -9.04634982E-13
 -0.663999975      -1.12241856E-12
 -0.657000005      -1.26946457E-12
 -0.649999976      -1.31894745E-12
 -0.643000007      -1.27588684E-12
 -0.635999978      -1.17801103E-12
 -0.629000008      -1.08435093E-12
 -0.621999979      -1.05506326E-12
 -0.615000010      -1.12979808E-12
 -0.607999980      -1.31306175E-12
 -0.601000011      -1.57283529E-12
 -0.593999982      -1.85378405E-12
 -0.587000012      -2.10054760E-12
 -0.579999983      -2.28204521E-12
 -0.573000014      -2.40654458E-12
 -0.565999985      -2.52017309E-12
 -0.559000015      -2.68780267E-12
 -0.551999986      -2.96259198E-12
 -0.545000017      -3.35583427E-12
 -0.537999988      -3.81991444E-12
 -0.531000018      -4.25312910E-12
 -0.523999989      -4.52724533E-12
 -0.517000020      -4.52977976E-12
 -0.509999990      -4.20650320E-12
 -0.503000021      -3.58826142E-12
 -0.495999992      -2.79067654E-12
 -0.488999993      -1.98442304E-12
 -0.481999993      -1.34427745E-12
 -0.474999994      -9.93465184E-13
 -0.467999995      -9.62570735E-13
 -0.460999995      -1.17815349E-12
 -0.453999996      -1.48637244E-12
 -0.446999997      -1.70454839E-12
 -0.439999998      -1.68344559E-12
 -0.432999998      -1.35857818E-12
 -0.425999999      -7.72323611E-13
 -0.419000000      -5.85267240E-14
 -0.412000000       6.05458880E-13
 -0.405000001       1.06279796E-12
 -0.398000002       1.23450534E-12
 -0.391000003       1.14933464E-12
 -0.384000003       9.34641470E-13
 -0.377000004       7.70699368E-13
 -0.370000005       8.24305468E-13
 -0.363000005       1.18640677E-12
 -0.356000006       1.83826717E-12
 -0.349000007       2.66164890E-12
 -0.342000008       3.49285770E-12
 -0.335000008       4.20413877E-12
 -0.328000009       4.78405900E-12
 -0.321000010       5.38690837E-12
 -0.314000010       6.32941703E-12
 -0.307000011       8.02992655E-12
 -0.300000012       1.09053946E-11
 -0.293000013       1.52567056E-11
 -0.286000013       2.11799051E-11
 -0.279000014       2.85340154E-11
 -0.272000015       3.69793814E-11
 -0.264999986       4.60763060E-11
 -0.257999986       5.54131983E-11
 -0.250999987       6.47223317E-11
 -0.244000003       7.39439204E-11
 -0.237000003       8.32174676E-11
 -0.230000004       9.28054092E-11
 -0.223000005       1.02978209E-10
 -0.216000006       1.13905725E-10
 -0.209000006       1.25596852E-10
 -0.202000007       1.37913042E-10
 -0.194999993       1.50653628E-10
 -0.187999994       1.63681943E-10
 -0.180999994       1.77043963E-10
 -0.173999995       1.91031954E-10
 -0.166999996       2.06162851E-10
 -0.159999996       2.23071825E-10
 -0.152999997       2.42355441E-10
 -0.145999998       2.64420041E-10
 -0.138999999       2.89390983E-10
 -0.131999999       3.17119581E-10
 -0.125000000       3.47289808E-10
 -0.118000001       3.79589027E-10
 -0.111000001       4.13885898E-10
 -0.104000002       4.50352755E-10
  -9.70000029E-02   4.89491336E-10
  -9.00000036E-02   5.32056954E-10
  -8.29999968E-02   5.78912807E-10
  -7.59999976E-02   6.30875463E-10
  -6.89999983E-02   6.88611168E-10
  -6.19999990E-02   7.52628126E-10
  -5.49999997E-02   8.23371926E-10
  -4.80000004E-02   9.01389685E-10
  -4.10000011E-02   9.87503079E-10
  -3.40000018E-02   1.08292675E-09
  -2.70000007E-02   1.18928822E-09
  -1.99999996E-02   1.30854394E-09
  -1.30000003E-02   1.44282775E-09
  -6.00000005E-03   1.59429181E-09
   1.00000005E-03   1.76500159E-09
   8.00000038E-03   1.95693306E-09
   1.49999997E-02   2.17207341E-09
   2.19999999E-02   2.41260101E-09
   2.89999992E-02   2.68108713E-09
   3.59999985E-02   2.98066083E-09
   4.30000015E-02   3.31508665E-09
   5.00000007E-02   3.68875508E-09
   5.70000000E-02   4.10660395E-09
   6.40000030E-02   4.57402427E-09
   7.10000023E-02   5.09679721E-09
   7.80000016E-02   5.68110359E-09
   8.50000009E-02   6.33360875E-09
   9.20000002E-02   7.06159753E-09
   9.89999995E-02   7.87312349E-09
  0.105999999       8.77712125E-09
  0.112999998       9.78347092E-09
  0.119999997       1.09029905E-08
  0.127000004       1.21474075E-08
  0.134000003       1.35293110E-08
  0.141000003       1.50621524E-08
  0.148000002       1.67602909E-08
  0.155000001       1.86391205E-08
  0.162000000       2.07152020E-08
  0.169000000       2.30064163E-08
  0.175999999       2.55320884E-08
  0.182999998       2.83130692E-08
  0.189999998       3.13717869E-08
  0.196999997       3.47322384E-08
  0.203999996       3.84200192E-08
  0.210999995       4.24623536E-08
  0.217999995       4.68881325E-08
  0.224999994       5.17279624E-08
  0.231999993       5.70142369E-08
  0.238999993       6.27812398E-08
  0.246000007       6.90651234E-08
  0.252999991       7.59039480E-08
  0.259999990       8.33376177E-08
  0.266999990       9.14078768E-08
  0.273999989       1.00158246E-07
  0.280999988       1.09634115E-07
  0.287999988       1.19882714E-07
  0.294999987       1.30953197E-07
  0.301999986       1.42896695E-07
  0.308999985       1.55766429E-07
  0.316000015       1.69617564E-07
  0.323000014       1.84507172E-07
  0.330000013       2.00493986E-07
  0.337000012       2.17638288E-07
  0.344000012       2.36001583E-07
  0.351000011       2.55646569E-07
  0.358000010       2.76636996E-07
  0.365000010       2.99037566E-07
  0.372000009       3.22914104E-07
  0.379000008       3.48333145E-07
  0.386000007       3.75362106E-07
  0.393000007       4.04068885E-07
  0.400000006       4.34521525E-07
  0.407000005       4.66787924E-07
  0.414000005       5.00935414E-07
  0.421000004       5.37030473E-07
  0.428000003       5.75138813E-07
  0.435000002       6.15324609E-07
  0.442000002       6.57650844E-07
  0.449000001       7.02179022E-07
  0.456000000       7.48969001E-07
  0.463000000       7.98078474E-07
  0.469999999       8.49562468E-07
  0.476999998       9.03473108E-07
  0.483999997       9.59858767E-07
  0.490999997       1.01876367E-06
  0.497999996       1.08022778E-06
  0.504999995       1.14428701E-06
  0.512000024       1.21097230E-06
  0.518999994       1.28031058E-06
  0.526000023       1.35232438E-06
  0.532999992       1.42703152E-06
  0.540000021       1.50444430E-06
  0.546999991       1.58457044E-06
  0.554000020       1.66741063E-06
  0.560999990       1.75295907E-06
  0.568000019       1.84120336E-06
  0.574999988       1.93212441E-06
  0.582000017       2.02569572E-06
  0.588999987       2.12188570E-06
  0.596000016       2.22065569E-06
  0.602999985       2.32196180E-06
  0.610000014       2.42575356E-06
  0.616999984       2.53197481E-06
  0.624000013       2.64056189E-06
  0.630999982       2.75144475E-06
  0.638000011       2.86454588E-06
  0.644999981       2.97978181E-06
  0.652000010       3.09706343E-06
  0.658999979       3.21629545E-06
  0.666000009       3.33737898E-06
  0.672999978       3.46021034E-06
  0.680000007       3.58468083E-06
  0.686999977       3.71067881E-06
  0.694000006       3.83808901E-06
  0.700999975       3.96679161E-06
  0.708000004       4.09666063E-06
  0.714999974       4.22756966E-06
  0.722000003       4.35938591E-06
  0.728999972       4.49197842E-06
  0.736000001       4.62521302E-06
  0.742999971       4.75895604E-06
  0.750000000       4.89307422E-06
  0.757000029       5.02743296E-06
  0.763999999       5.16190130E-06
  0.771000028       5.29634644E-06
  0.777999997       5.43063607E-06
  0.785000026       5.56464147E-06
  0.791999996       5.69823305E-06
  0.799000025       5.83128440E-06
  0.805999994       5.96367227E-06
  0.813000023       6.09527615E-06
  0.819999993       6.22598191E-06
  0.827000022       6.35567812E-06
  0.833999991       6.48425839E-06
  0.841000021       6.61162130E-06
  0.847999990       6.73766999E-06
  0.855000019       6.86231260E-06
  0.861999989       6.98546091E-06
  0.869000018       7.10703262E-06
  0.875999987       7.22694995E-06
  0.883000016       7.34513924E-06
  0.889999986       7.46153137E-06
  0.897000015       7.57606540E-06
  0.903999984       7.68868267E-06
  0.911000013       7.79933362E-06
  0.917999983       7.90797549E-06
  0.925000012       8.01456645E-06
  0.931999981       8.11906921E-06
  0.939000010       8.22145103E-06
  0.945999980       8.32168280E-06
  0.953000009       8.41973542E-06
  0.959999979       8.51558252E-06
  0.967000008       8.60920773E-06
  0.973999977       8.70059375E-06
  0.981000006       8.78973060E-06
  0.987999976       8.87660735E-06
  0.995000005       8.96121583E-06
   1.00199997       9.04354874E-06
   1.00899994       9.12359610E-06
   1.01600003       9.20135062E-06
   1.02300000       9.27680048E-06
   1.02999997       9.34993204E-06
   1.03699994       9.42073439E-06
   1.04400003       9.48919387E-06
   1.05100000       9.55530231E-06
   1.05799997       9.61904789E-06
   1.06500006       9.68041604E-06
   1.07200003       9.73939405E-06
   1.07900000       9.79596189E-06
   1.08599997       9.85009774E-06
   1.09300005       9.90176886E-06
   1.10000002       9.95094251E-06
   1.10699999       9.99758413E-06
   1.11399996       1.00416537E-05
   1.12100005       1.00831176E-05
   1.12800002       1.01219402E-05
   1.13499999       1.01580799E-05
   1.14199996       1.01914920E-05
   1.14900005       1.02221238E-05
   1.15600002       1.02499243E-05
   1.16299999       1.02748290E-05
   1.16999996       1.02967788E-05
   1.17700005       1.03157081E-05
   1.18400002       1.03315524E-05
   1.19099998       1.03442526E-05
   1.19799995       1.03537523E-05
   1.20500004       1.03599941E-05
   1.21200001       1.03629191E-05
   1.21899998       1.03624725E-05
   1.22599995       1.03585908E-05
   1.23300004       1.03512102E-05
   1.24000001       1.03402717E-05
   1.24699998       1.03257153E-05
   1.25399995       1.03074881E-05
   1.26100004       1.02855420E-05
   1.26800001       1.02598406E-05
   1.27499998       1.02303520E-05
   1.28199995       1.01970472E-05
   1.28900003       1.01599080E-05
   1.29600000       1.01189107E-05
   1.30299997       1.00740435E-05
   1.30999994       1.00252946E-05
   1.31700003       9.97266307E-06
   1.32400000       9.91616253E-06
   1.33099997       9.85581391E-06
   1.33800006       9.79165270E-06
   1.34500003       9.72372891E-06
   1.35200000       9.65209620E-06
   1.35899997       9.57681914E-06
   1.36600006       9.49796504E-06
   1.37300003       9.41561575E-06
   1.38000000       9.32985222E-06
   1.38699996       9.24077358E-06
   1.39400005       9.14848715E-06
   1.40100002       9.05311572E-06
   1.40799999       8.95479752E-06
   1.41499996       8.85367808E-06
   1.42200005       8.74991474E-06
   1.42900002       8.64367121E-06
   1.43599999       8.53511574E-06
   1.44299996       8.42442660E-06
   1.45000005       8.31178204E-06
   1.45700002       8.19737397E-06
   1.46399999       8.08140339E-06
   1.47099996       7.96408222E-06
   1.47800004       7.84563235E-06
   1.48500001       7.72628209E-06
   1.49199998       7.60626426E-06
   1.49899995       7.48581442E-06
   1.50600004       7.36516995E-06
   1.51300001       7.24456413E-06
   1.51999998       7.12423298E-06
   1.52699995       7.00441115E-06
   1.53400004       6.88534010E-06
   1.54100001       6.76726177E-06
   1.54799998       6.65042307E-06
   1.55499995       6.53507050E-06
   1.56200004       6.42144687E-06
   1.56900001       6.30979002E-06
   1.57599998       6.20032961E-06
   1.58299994       6.09328663E-06
   1.59000003       5.98887527E-06
   1.59700000       5.88730154E-06
   1.60399997       5.78877143E-06
   1.61099994       5.69348276E-06
   1.61800003       5.60163198E-06
   1.62500000       5.51340963E-06
   1.63199997       5.42899579E-06
   1.63900006       5.34855872E-06
   1.64600003       5.27225120E-06
   1.65300000       5.20021285E-06
   1.65999997       5.13257282E-06
   1.66700006       5.06944298E-06
   1.67400002       5.01093109E-06
   1.68099999       4.95713266E-06
   1.68799996       4.90813454E-06
   1.69500005       4.86401677E-06
   1.70200002       4.82484757E-06
   1.70899999       4.79068149E-06
   1.71599996       4.76155810E-06
   1.72300005       4.73750242E-06
   1.73000002       4.71852445E-06
   1.73699999       4.70462237E-06
   1.74399996       4.69578436E-06
   1.75100005       4.69198812E-06
   1.75800002       4.69320639E-06
   1.76499999       4.69940369E-06
   1.77199996       4.71053727E-06
   1.77900004       4.72655711E-06
   1.78600001       4.74740091E-06
   1.79299998       4.77299955E-06
   1.79999995       4.80327026E-06
   1.80700004       4.83812255E-06
   1.81400001       4.87745683E-06
   1.82099998       4.92116760E-06
   1.82799995       4.96914845E-06
   1.83500004       5.02129114E-06
   1.84200001       5.07748427E-06
   1.84899998       5.13761233E-06
   1.85599995       5.20155845E-06
   1.86300004       5.26920394E-06
   1.87000000       5.34042829E-06
   1.87699997       5.41510599E-06
   1.88399994       5.49310971E-06
   1.89100003       5.57431031E-06
   1.89800000       5.65857817E-06
   1.90499997       5.74578735E-06
   1.91199994       5.83581732E-06
   1.91900003       5.92855122E-06
   1.92600000       6.02387718E-06
   1.93299997       6.12168378E-06
   1.94000006       6.22186099E-06
   1.94700003       6.32429965E-06
   1.95400000       6.42889427E-06
   1.96099997       6.53553843E-06
   1.96800005       6.64412391E-06
   1.97500002       6.75454430E-06
   1.98199999       6.86670046E-06
   1.98899996       6.98050144E-06
   1.99600005       7.09586675E-06
   2.00300002       7.21271954E-06
   2.00999999       7.33098659E-06
   2.01699996       7.45059151E-06
   2.02399993       7.57146017E-06
   2.03099990       7.69351846E-06
   2.03800011       7.81669314E-06
   2.04500008       7.94091102E-06
   2.05200005       8.06610115E-06
   2.05900002       8.19219895E-06
   2.06599998       8.31914349E-06
   2.07299995       8.44688293E-06
   2.07999992       8.57536907E-06
   2.08699989       8.70455187E-06
   2.09400010       8.83437224E-06
   2.10100007       8.96476831E-06
   2.10800004       9.09567189E-06
   2.11500001       9.22701656E-06
   2.12199998       9.35873595E-06
   2.12899995       9.49076548E-06
   2.13599992       9.62304057E-06
   2.14299989       9.75550029E-06
   2.15000010       9.88809097E-06
   2.15700006       1.00207526E-05
   2.16400003       1.01534242E-05
   2.17100000       1.02860295E-05
   2.17799997       1.04184774E-05
   2.18499994       1.05506751E-05
   2.19199991       1.06825291E-05
   2.19899988       1.08139520E-05
   2.20600009       1.09448602E-05
   2.21300006       1.10751698E-05
   2.22000003       1.12047946E-05
   2.22700000       1.13336419E-05
   2.23399997       1.14616141E-05
   2.24099994       1.15886041E-05
   2.24799991       1.17144982E-05
   2.25500011       1.18391736E-05
   2.26200008       1.19625092E-05
   2.26900005       1.20843906E-05
   2.27600002       1.22047031E-05
   2.28299999       1.23233458E-05
   2.28999996       1.24402168E-05
   2.29699993       1.25552060E-05
   2.30399990       1.26681907E-05
   2.31100011       1.27790408E-05
   2.31800008       1.28876272E-05
   2.32500005       1.29938207E-05
   2.33200002       1.30974940E-05
   2.33899999       1.31985262E-05
   2.34599996       1.32968044E-05
   2.35299993       1.33922240E-05
   2.35999990       1.34846887E-05
   2.36700010       1.35741038E-05
   2.37400007       1.36603576E-05
   2.38100004       1.37433390E-05
   2.38800001       1.38229316E-05
   2.39499998       1.38990235E-05
   2.40199995       1.39715175E-05
   2.40899992       1.40403290E-05
   2.41599989       1.41053879E-05
   2.42300010       1.41666287E-05
   2.43000007       1.42239987E-05
   2.43700004       1.42774370E-05
   2.44400001       1.43268935E-05
   2.45099998       1.43723064E-05
   2.45799994       1.44136202E-05
   2.46499991       1.44507749E-05
   2.47199988       1.44837259E-05
   2.47900009       1.45124486E-05
   2.48600006       1.45369386E-05
   2.49300003       1.45572003E-05
   2.50000000       1.45732456E-05
   2.50699997       1.45850863E-05
   2.51399994       1.45927352E-05
   2.52099991       1.45962049E-05
   2.52800012       1.45955128E-05
   2.53500009       1.45906824E-05
   2.54200006       1.45817457E-05
   2.54900002       1.45687500E-05
   2.55599999       1.45517579E-05
   2.56299996       1.45308504E-05
   2.56999993       1.45061176E-05
   2.57699990       1.44776441E-05
   2.58400011       1.44455162E-05
   2.59100008       1.44098130E-05
   2.59800005       1.43706193E-05
   2.60500002       1.43280267E-05
   2.61199999       1.42821373E-05
   2.61899996       1.42330655E-05
   2.62599993       1.41809378E-05
   2.63299990       1.41258952E-05
   2.64000010       1.40680786E-05
   2.64700007       1.40076372E-05
   2.65400004       1.39447111E-05
   2.66100001       1.38794339E-05
   2.66799998       1.38119449E-05
   2.67499995       1.37423767E-05
   2.68199992       1.36708732E-05
   2.68899989       1.35975888E-05
   2.69600010       1.35226855E-05
   2.70300007       1.34463307E-05
   2.71000004       1.33686917E-05
   2.71700001       1.32899349E-05
   2.72399998       1.32102232E-05
   2.73099995       1.31297129E-05
   2.73799992       1.30485505E-05
   2.74499989       1.29668842E-05
   2.75200009       1.28848542E-05
   2.75900006       1.28026077E-05
   2.76600003       1.27203029E-05
   2.77300000       1.26380946E-05
   2.77999997       1.25561401E-05
   2.78699994       1.24745893E-05
   2.79399991       1.23935852E-05
   2.80100012       1.23132613E-05
   2.80800009       1.22337415E-05
   2.81500006       1.21551429E-05
   2.82200003       1.20775685E-05
   2.82900000       1.20011246E-05
   2.83599997       1.19259121E-05
   2.84299994       1.18520347E-05
   2.84999990       1.17795917E-05
   2.85700011       1.17086820E-05
   2.86400008       1.16393885E-05
   2.87100005       1.15717812E-05
   2.87800002       1.15059238E-05
   2.88499999       1.14418663E-05
   2.89199996       1.13796541E-05
   2.89899993       1.13193255E-05
   2.90599990       1.12609159E-05
   2.91300011       1.12044527E-05
   2.92000008       1.11499639E-05
   2.92700005       1.10974770E-05
   2.93400002       1.10470164E-05
   2.94099998       1.09985976E-05
   2.94799995       1.09522225E-05
   2.95499992       1.09078783E-05
   2.96199989       1.08655413E-05
   2.96900010       1.08251888E-05
   2.97600007       1.07867882E-05
   2.98300004       1.07503074E-05
   2.99000001       1.07157111E-05
   2.99699998       1.06829675E-05
   3.00399995       1.06520420E-05
   3.01099992       1.06229045E-05
   3.01799989       1.05955251E-05
   3.02500010       1.05698646E-05
   3.03200006       1.05458730E-05
   3.03900003       1.05234922E-05
   3.04600000       1.05026629E-05
   3.05299997       1.04833243E-05
   3.05999994       1.04654255E-05
   3.06699991       1.04489127E-05
   3.07399988       1.04337450E-05
   3.08100009       1.04198853E-05
   3.08800006       1.04073006E-05
   3.09500003       1.03959646E-05
   3.10200000       1.03858383E-05
   3.10899997       1.03768743E-05
   3.11599994       1.03690190E-05
   3.12299991       1.03622187E-05
   3.13000011       1.03564207E-05
   3.13700008       1.03515886E-05
   3.14400005       1.03477014E-05
   3.15100002       1.03447510E-05
   3.15799999       1.03427383E-05
   3.16499996       1.03416651E-05
   3.17199993       1.03415350E-05
   3.17899990       1.03423408E-05
   3.18600011       1.03440689E-05
   3.19300008       1.03466955E-05
   3.20000005       1.03501980E-05
   3.20700002       1.03545617E-05
   3.21399999       1.03597858E-05
   3.22099996       1.03658949E-05
   3.22799993       1.03729280E-05
   3.23499990       1.03809225E-05
   3.24200010       1.03899147E-05
   3.24900007       1.03999237E-05
   3.25600004       1.04109558E-05
   3.26300001       1.04230085E-05
   3.26999998       1.04360834E-05
   3.27699995       1.04501823E-05
   3.28399992       1.04653254E-05
   3.29099989       1.04815463E-05
   3.29800010       1.04988903E-05
   3.30500007       1.05174149E-05
   3.31200004       1.05371655E-05
   3.31900001       1.05581748E-05
   3.32599998       1.05804520E-05
   3.33299994       1.06039870E-05
   3.33999991       1.06287680E-05
   3.34699988       1.06547850E-05
   3.35400009       1.06820380E-05
   3.36100006       1.07105452E-05
   3.36800003       1.07403312E-05
   3.37500000       1.07714250E-05
   3.38199997       1.08038412E-05
   3.38899994       1.08375816E-05
   3.39599991       1.08726290E-05
   3.40300012       1.09089415E-05
   3.41000009       1.09464681E-05
   3.41700006       1.09851535E-05
   3.42400002       1.10249466E-05
   3.43099999       1.10658129E-05
   3.43799996       1.11077325E-05
   3.44499993       1.11506843E-05
   3.45199990       1.11946356E-05
   3.45900011       1.12395364E-05
   3.46600008       1.12853131E-05
   3.47300005       1.13318774E-05
   3.48000002       1.13791293E-05
   3.48699999       1.14269678E-05
   3.49399996       1.14752957E-05
   3.50099993       1.15240200E-05
   3.50799990       1.15730563E-05
   3.51500010       1.16223264E-05
   3.52200007       1.16717556E-05
   3.52900004       1.17212530E-05
   3.53600001       1.17707068E-05
   3.54299998       1.18199887E-05
   3.54999995       1.18689541E-05
   3.55699992       1.19174592E-05
   3.56399989       1.19653796E-05
   3.57100010       1.20125997E-05
   3.57800007       1.20590148E-05
   3.58500004       1.21045268E-05
   3.59200001       1.21490375E-05
   3.59899998       1.21924504E-05
   3.60599995       1.22346601E-05
   3.61299992       1.22755528E-05
   3.61999989       1.23150039E-05
   3.62700009       1.23528898E-05
   3.63400006       1.23890986E-05
   3.64100003       1.24235448E-05
   3.64800000       1.24561648E-05
   3.65499997       1.24869130E-05
   3.66199994       1.25157430E-05
   3.66899991       1.25426077E-05
   3.67600012       1.25674560E-05
   3.68300009       1.25902388E-05
   3.69000006       1.26109135E-05
   3.69700003       1.26294508E-05
   3.70400000       1.26458262E-05
   3.71099997       1.26600307E-05
   3.71799994       1.26720870E-05
   3.72499990       1.26820341E-05
   3.73200011       1.26899340E-05
   3.73900008       1.26958521E-05
   3.74600005       1.26998430E-05
   3.75300002       1.27019603E-05
   3.75999999       1.27022577E-05
   3.76699996       1.27008070E-05
   3.77399993       1.26977011E-05
   3.78099990       1.26930463E-05
   3.78800011       1.26869645E-05
   3.79500008       1.26795858E-05
   3.80200005       1.26710547E-05
   3.80900002       1.26615287E-05
   3.81599998       1.26511650E-05
   3.82299995       1.26401137E-05
   3.82999992       1.26285140E-05
   3.83699989       1.26164969E-05
   3.84400010       1.26042150E-05
   3.85100007       1.25918295E-05
   3.85800004       1.25795223E-05
   3.86500001       1.25674669E-05
   3.87199998       1.25558363E-05
   3.87899995       1.25447868E-05
   3.88599992       1.25344723E-05
   3.89299989       1.25250472E-05
   3.90000010       1.25166580E-05
   3.90700006       1.25094375E-05
   3.91400003       1.25035076E-05
   3.92100000       1.24989811E-05
   3.92799997       1.24959715E-05
   3.93499994       1.24946000E-05
   3.94199991       1.24949765E-05
   3.94899988       1.24971994E-05
   3.95600009       1.25013412E-05
   3.96300006       1.25074530E-05
   3.97000003       1.25155821E-05
   3.97700000       1.25257684E-05
   3.98399997       1.25380438E-05
   3.99099994       1.25524193E-05
   3.99799991       1.25688885E-05
   4.00500011       1.25874294E-05
   4.01200008       1.26080113E-05
   4.01900005       1.26306040E-05
   4.02600002       1.26551586E-05
   4.03299999       1.26816130E-05
   4.03999996       1.27098856E-05
   4.04699993       1.27398798E-05
   4.05399990       1.27714984E-05
   4.06099987       1.28046395E-05
   4.06799984       1.28391903E-05
   4.07499981       1.28750198E-05
   4.08199978       1.29119871E-05
   4.08900023       1.29499458E-05
   4.09600019       1.29887567E-05
   4.10300016       1.30282860E-05
   4.11000013       1.30683939E-05
   4.11700010       1.31089364E-05
   4.12400007       1.31497509E-05
   4.13100004       1.31906754E-05
   4.13800001       1.32315508E-05
   4.14499998       1.32722207E-05
   4.15199995       1.33125286E-05
   4.15899992       1.33523217E-05
   4.16599989       1.33914518E-05
   4.17299986       1.34297870E-05
   4.17999983       1.34672127E-05
   4.18699980       1.35036262E-05
   4.19399977       1.35389209E-05
   4.20100021       1.35729897E-05
   4.20800018       1.36057206E-05
   4.21500015       1.36370081E-05
   4.22200012       1.36667695E-05
   4.22900009       1.36949275E-05
   4.23600006       1.37214302E-05
   4.24300003       1.37462384E-05
   4.25000000       1.37693269E-05
   4.25699997       1.37906909E-05
   4.26399994       1.38103387E-05
   4.27099991       1.38282776E-05
   4.27799988       1.38445102E-05
   4.28499985       1.38590412E-05
   4.29199982       1.38718833E-05
   4.29899979       1.38830674E-05
   4.30600023       1.38926534E-05
   4.31300020       1.39007170E-05
   4.32000017       1.39073472E-05
   4.32700014       1.39126341E-05
   4.33400011       1.39166768E-05
   4.34100008       1.39195708E-05
   4.34800005       1.39214126E-05
   4.35500002       1.39222875E-05
   4.36199999       1.39222793E-05
   4.36899996       1.39214799E-05
   4.37599993       1.39200001E-05
   4.38299990       1.39179683E-05
   4.38999987       1.39155309E-05
   4.39699984       1.39128333E-05
   4.40399981       1.39100130E-05
   4.41099977       1.39071917E-05
   4.41800022       1.39044814E-05
   4.42500019       1.39019849E-05
   4.43200016       1.38997993E-05
   4.43900013       1.38980149E-05
   4.44600010       1.38967252E-05
   4.45300007       1.38960313E-05
   4.46000004       1.38960513E-05
   4.46700001       1.38968935E-05
   4.47399998       1.38986607E-05
   4.48099995       1.39014319E-05
   4.48799992       1.39052627E-05
   4.49499989       1.39101912E-05
   4.50199986       1.39162448E-05
   4.50899982       1.39234526E-05
   4.51599979       1.39318408E-05
   4.52299976       1.39414442E-05
   4.53000021       1.39522972E-05
   4.53700018       1.39644335E-05
   4.54400015       1.39778813E-05
   4.55100012       1.39926433E-05
   4.55800009       1.40087050E-05
   4.56500006       1.40260172E-05
   4.57200003       1.40445172E-05
   4.57900000       1.40641387E-05
   4.58599997       1.40848279E-05
   4.59299994       1.41065339E-05
   4.59999990       1.41292057E-05
   4.60699987       1.41527835E-05
   4.61399984       1.41771980E-05
   4.62099981       1.42023655E-05
   4.62799978       1.42281933E-05
   4.63500023       1.42545678E-05
   4.64200020       1.42813597E-05
   4.64900017       1.43084380E-05
   4.65600014       1.43356765E-05
   4.66300011       1.43629650E-05
   4.67000008       1.43902062E-05
   4.67700005       1.44172991E-05
   4.68400002       1.44441237E-05
   4.69099998       1.44705482E-05
   4.69799995       1.44964315E-05
   4.70499992       1.45216263E-05
   4.71199989       1.45459908E-05
   4.71899986       1.45693875E-05
   4.72599983       1.45916847E-05
   4.73299980       1.46127704E-05
   4.73999977       1.46325419E-05
   4.74700022       1.46509037E-05
   4.75400019       1.46677585E-05
   4.76100016       1.46829962E-05
   4.76800013       1.46964949E-05
   4.77500010       1.47081300E-05
   4.78200006       1.47177934E-05
   4.78900003       1.47253950E-05
   4.79600000       1.47308710E-05
   4.80299997       1.47341643E-05
   4.80999994       1.47352303E-05
   4.81699991       1.47340297E-05
   4.82399988       1.47305182E-05
   4.83099985       1.47246601E-05
   4.83799982       1.47164128E-05
   4.84499979       1.47057390E-05
   4.85200024       1.46926131E-05
   4.85900021       1.46770426E-05
   4.86600018       1.46590628E-05
   4.87300014       1.46387310E-05
   4.88000011       1.46161146E-05
   4.88700008       1.45912791E-05
   4.89400005       1.45642798E-05
   4.90100002       1.45351669E-05
   4.90799999       1.45039949E-05
   4.91499996       1.44708229E-05
   4.92199993       1.44357291E-05
   4.92899990       1.43988109E-05
   4.93599987       1.43601883E-05
   4.94299984       1.43200077E-05
   4.94999981       1.42784193E-05
   4.95699978       1.42355775E-05
   4.96400023       1.41916198E-05
   4.97100019       1.41466699E-05
   4.97800016       1.41008368E-05
   4.98500013       1.40542397E-05
   4.99200010       1.40070151E-05