  -1.00000000       6.01916080E-23
 -0.992999971       5.34515024E-21
 -0.986000001       5.92317347E-20
 -0.978999972       3.15029772E-19
 -0.972000003       1.13204175E-18
 -0.964999974       3.22576823E-18
 -0.958000004       8.00808937E-18
 -0.950999975       1.83341258E-17
 -0.944000006       3.97670388E-17
 -0.936999977       8.20397798E-17
 -0.930000007       1.59699976E-16
 -0.922999978       2.90382058E-16
 -0.916000009       4.89415266E-16
 -0.908999979       7.61017122E-16
 -0.902000010       1.08886287E-15
 -0.894999981       1.43109202E-15
 -0.888000011       1.72500854E-15
 -0.880999982       1.90358860E-15
 -0.874000013       1.91992384E-15
 -0.866999984       1.76945521E-15
 -0.860000014       1.49712152E-15
 -0.852999985       1.18037832E-15
 -0.846000016       8.89744160E-16
 -0.838999987       6.42464591E-16
 -0.832000017       3.75313417E-16
 -0.824999988      -3.77815340E-17
 -0.818000019      -7.12663982E-16
 -0.810999990      -1.64287281E-15
 -0.804000020      -2.59365851E-15
 -0.796999991      -3.06222993E-15
 -0.790000021      -2.35272824E-15
 -0.782999992       2.26772028E-16
 -0.776000023       5.09622201E-15
 -0.768999994       1.21654218E-14
 -0.762000024       2.07398999E-14
 -0.754999995       2.96452587E-14
 -0.748000026       3.75586742E-14
 -0.740999997       4.34364933E-14
 -0.734000027       4.68595194E-14
 -0.726999998       4.81220153E-14
 -0.720000029       4.79802660E-14
 -0.713000000       4.71255352E-14
 -0.705999970       4.55950077E-14
 -0.699000001       4.24115461E-14
 -0.691999972       3.56962791E-14
 -0.685000002       2.33244718E-14
 -0.677999973       3.95171024E-15
 -0.671000004      -2.19736914E-14
 -0.663999975      -5.16686879E-14
 -0.657000005      -8.02756502E-14
 -0.649999976      -1.01957871E-13
 -0.643000007      -1.11502529E-13
 -0.635999978      -1.05835039E-13
 -0.629000008      -8.48113016E-14
 -0.621999979      -5.08954078E-14
 -0.615000010      -7.77979518E-15
 -0.607999980       4.15128171E-14
 -0.601000011       9.62036034E-14
 -0.593999982       1.58202051E-13
 -0.587000012       2.31021257E-13
 -0.579999983       3.17408778E-13
 -0.573000014       4.16567442E-13
 -0.565999985       5.22173017E-13
 -0.559000015       6.22245853E-13
 -0.551999986       7.01304086E-13
 -0.545000017       7.44327018E-13
 -0.537999988       7.41252329E-13
 -0.531000018       6.90355108E-13
 -0.523999989       5.99134783E-13
 -0.517000020       4.82188399E-13
 -0.509999990       3.56693028E-13
 -0.503000021       2.37102005E-13
 -0.495999992       1.31067046E-13
 -0.488999993       3.82290601E-14
 -0.481999993      -4.75388500E-14
 -0.474999994      -1.33218049E-13
 -0.467999995      -2.20986939E-13
 -0.460999995      -3.04192652E-13
 -0.453999996      -3.66838992E-13
 -0.446999997      -3.87194806E-13
 -0.439999998      -3.44500117E-13
 -0.432999998      -2.26409305E-13
 -0.425999999      -3.43059321E-14
 -0.419000000       2.15789531E-13
 -0.412000000       4.97480746E-13
 -0.405000001       7.82259132E-13
 -0.398000002       1.04898154E-12
 -0.391000003       1.29108128E-12
 -0.384000003       1.51859016E-12
 -0.377000004       1.75375534E-12
 -0.370000005       2.02130413E-12
 -0.363000005       2.33650252E-12
 -0.356000006       2.69523813E-12
 -0.349000007       3.07000150E-12
 -0.342000008       3.41384278E-12
 -0.335000008       3.67169489E-12
 -0.328000009       3.79578053E-12
 -0.321000010       3.76011548E-12
 -0.314000010       3.56910248E-12
 -0.307000011       3.25691557E-12
 -0.300000012       2.87747560E-12
 -0.293000013       2.48808721E-12
 -0.286000013       2.13229434E-12
 -0.279000014       1.82807697E-12
 -0.272000015       1.56587612E-12
 -0.264999986       1.31749765E-12
 -0.257999986       1.05283523E-12
 -0.250999987       7.58089013E-13
 -0.244000003       4.48083655E-13
 -0.237000003       1.66992911E-13
 -0.230000004      -2.40567064E-14
 -0.223000005      -6.88939127E-14
 -0.216000006       6.01648519E-14
 -0.209000006       3.46572678E-13
 -0.202000007       7.29018842E-13
 -0.194999993       1.11832256E-12
 -0.187999994       1.42734999E-12
 -0.180999994       1.60393367E-12
 -0.173999995       1.65449382E-12
 -0.166999996       1.64838217E-12
 -0.159999996       1.69940104E-12
 -0.152999997       1.92936357E-12
 -0.145999998       2.42586918E-12
 -0.138999999       3.20963091E-12
 -0.131999999       4.22416572E-12
 -0.125000000       5.35295029E-12
 -0.118000001       6.45892020E-12
 -0.111000001       7.43229003E-12
 -0.104000002       8.22865474E-12
  -9.70000029E-02   8.88221961E-12
  -9.00000036E-02   9.48780984E-12
  -8.29999968E-02   1.01573194E-11
  -7.59999976E-02   1.09665289E-11
  -6.89999983E-02   1.19128787E-11
  -6.19999990E-02   1.29015496E-11
  -5.49999997E-02   1.37669216E-11
  -4.80000004E-02   1.43229161E-11
  -4.10000011E-02   1.44240063E-11
  -3.40000018E-02   1.40135351E-11
  -2.70000007E-02   1.31399076E-11
  -1.99999996E-02   1.19328878E-11
  -1.30000003E-02   1.05473416E-11
  -6.00000005E-03   9.09479436E-12
   1.00000005E-03   7.58884969E-12
   8.00000038E-03   5.92587177E-12
   1.49999997E-02   3.90981561E-12
   2.19999999E-02   1.31329355E-12
   2.89999992E-02  -2.04706803E-12
   3.59999985E-02  -6.24936908E-12
   4.30000015E-02  -1.12432294E-11
   5.00000007E-02  -1.68748661E-11
   5.70000000E-02  -2.29537257E-11
   6.40000030E-02  -2.93382749E-11
   7.10000023E-02  -3.60117144E-11
   7.80000016E-02  -4.31226201E-11
   8.50000009E-02  -5.09778365E-11
   9.20000002E-02  -5.99934685E-11
   9.89999995E-02  -7.06238887E-11
  0.105999999      -8.32965086E-11
  0.112999998      -9.83771328E-11
  0.119999997      -1.16177873E-10
  0.127000004      -1.37003492E-10
  0.134000003      -1.61217512E-10
  0.141000003      -1.89302143E-10
  0.148000002      -2.21889854E-10
  0.155000001      -2.59755384E-10
  0.162000000      -3.03772452E-10
  0.169000000      -3.54854451E-10
  0.175999999      -4.13904189E-10
  0.182999998      -4.81794160E-10
  0.189999998      -5.59391700E-10
  0.196999997      -6.47622789E-10
  0.203999996      -7.47558959E-10
  0.210999995      -8.60500948E-10
  0.217999995      -9.88036875E-10
  0.224999994      -1.13205934E-09
  0.231999993      -1.29474242E-09
  0.238999993      -1.47849200E-09
  0.246000007      -1.68589021E-09
  0.252999991      -1.91965732E-09
  0.259999990      -2.18264740E-09
  0.266999990      -2.47788479E-09
  0.273999989      -2.80862733E-09
  0.280999988      -3.17844462E-09
  0.287999988      -3.59128682E-09
  0.294999987      -4.05152667E-09
  0.301999986      -4.56397231E-09
  0.308999985      -5.13385201E-09
  0.316000015      -5.76679016E-09
  0.323000014      -6.46877929E-09
  0.330000013      -7.24618765E-09
  0.337000012      -8.10579692E-09
  0.344000012      -9.05486353E-09
  0.351000011      -1.01012203E-08
  0.358000010      -1.12533618E-08
  0.365000010      -1.25205188E-08
  0.372000009      -1.39127136E-08
  0.379000008      -1.54407598E-08
  0.386000007      -1.71162569E-08
  0.393000007      -1.89515479E-08
  0.400000006      -2.09597193E-08
  0.407000005      -2.31545716E-08
  0.414000005      -2.55506727E-08
  0.421000004      -2.81633810E-08
  0.428000003      -3.10089305E-08
  0.435000002      -3.41044881E-08
  0.442000002      -3.74682152E-08
  0.449000001      -4.11192680E-08
  0.456000000      -4.50778295E-08
  0.463000000      -4.93650987E-08
  0.469999999      -5.40032374E-08
  0.476999998      -5.90154201E-08
  0.483999997      -6.44257696E-08
  0.490999997      -7.02594178E-08
  0.497999996      -7.65424630E-08
  0.504999995      -8.33020337E-08
  0.512000024      -9.05662887E-08
  0.518999994      -9.83643247E-08
  0.526000023      -1.06726219E-07
  0.532999992      -1.15682958E-07
  0.540000021      -1.25266340E-07
  0.546999991      -1.35508884E-07
  0.554000020      -1.46443782E-07
  0.560999990      -1.58104726E-07
  0.568000019      -1.70525809E-07
  0.574999988      -1.83741378E-07
  0.582000017      -1.97785951E-07
  0.588999987      -2.12694104E-07
  0.596000016      -2.28500426E-07
  0.602999985      -2.45239420E-07
  0.610000014      -2.62945406E-07
  0.616999984      -2.81652376E-07
  0.624000013      -3.01393840E-07
  0.630999982      -3.22202453E-07
  0.638000011      -3.44109907E-07
  0.644999981      -3.67146754E-07
  0.652000010      -3.91342070E-07
  0.658999979      -4.16723452E-07
  0.666000009      -4.43316623E-07
  0.672999978      -4.71145597E-07
  0.680000007      -5.00232090E-07
  0.686999977      -5.30595855E-07
  0.694000006      -5.62253774E-07
  0.700999975      -5.95219717E-07
  0.708000004      -6.29504825E-07
  0.714999974      -6.65116488E-07
  0.722000003      -7.02058287E-07
  0.728999972      -7.40330108E-07
  0.736000001      -7.79927802E-07
  0.742999971      -8.20843582E-07
  0.750000000      -8.63065338E-07
  0.757000029      -9.06577100E-07
  0.763999999      -9.51358288E-07
  0.771000028      -9.97383722E-07
  0.777999997      -1.04462310E-06
  0.785000026      -1.09304131E-06
  0.791999996      -1.14259751E-06
  0.799000025      -1.19324591E-06
  0.805999994      -1.24493556E-06
  0.813000023      -1.29761111E-06
  0.819999993      -1.35121206E-06
  0.827000022      -1.40567386E-06
  0.833999991      -1.46092736E-06
  0.841000021      -1.51689824E-06
  0.847999990      -1.57350780E-06
  0.855000019      -1.63067182E-06
  0.861999989      -1.68830184E-06
  0.869000018      -1.74630486E-06
  0.875999987      -1.80458437E-06
  0.883000016      -1.86304044E-06
  0.889999986      -1.92156995E-06
  0.897000015      -1.98006842E-06
  0.903999984      -2.03842819E-06
  0.911000013      -2.09653899E-06
  0.917999983      -2.15428918E-06
  0.925000012      -2.21156438E-06
  0.931999981      -2.26824818E-06
  0.939000010      -2.32422349E-06
  0.945999980      -2.37937320E-06
  0.953000009      -2.43358090E-06
  0.959999979      -2.48672995E-06
  0.967000008      -2.53870689E-06
  0.973999977      -2.58939940E-06
  0.981000006      -2.63869651E-06
  0.987999976      -2.68648841E-06
  0.995000005      -2.73266801E-06
   1.00199997      -2.77713139E-06
   1.00899994      -2.81977691E-06
   1.01600003      -2.86050772E-06
   1.02300000      -2.89923173E-06
   1.02999997      -2.93586208E-06
   1.03699994      -2.97031715E-06
   1.04400003      -3.00252100E-06
   1.05100000      -3.03240176E-06
   1.05799997      -3.05989352E-06
   1.06500006      -3.08493509E-06
   1.07200003      -3.10747100E-06
   1.07900000      -3.12745215E-06
   1.08599997      -3.14483691E-06
   1.09300005      -3.15959187E-06
   1.10000002      -3.17169065E-06
   1.10699999      -3.18111597E-06
   1.11399996      -3.18785715E-06
   1.12100005      -3.19191031E-06
   1.12800002      -3.19327705E-06
   1.13499999      -3.19196556E-06
   1.14199996      -3.18799084E-06
   1.14900005      -3.18137472E-06
   1.15600002      -3.17214790E-06
   1.16299999      -3.16034902E-06
   1.16999996      -3.14602516E-06
   1.17700005      -3.12923135E-06
   1.18400002      -3.11002964E-06
   1.19099998      -3.08848712E-06
   1.19799995      -3.06467859E-06
   1.20500004      -3.03868273E-06
   1.21200001      -3.01058571E-06
   1.21899998      -2.98047826E-06
   1.22599995      -2.94845972E-06
   1.23300004      -2.91463607E-06
   1.24000001      -2.87912167E-06
   1.24699998      -2.84203793E-06
   1.25399995      -2.80351196E-06
   1.26100004      -2.76367587E-06
   1.26800001      -2.72266607E-06
   1.27499998      -2.68062331E-06
   1.28199995      -2.63769243E-06
   1.28900003      -2.59402282E-06
   1.29600000      -2.54976953E-06
   1.30299997      -2.50509402E-06
   1.30999994      -2.46016361E-06
   1.31700003      -2.41515090E-06
   1.32400000      -2.37023346E-06
   1.33099997      -2.32559182E-06
   1.33800006      -2.28140993E-06
   1.34500003      -2.23787197E-06
   1.35200000      -2.19516437E-06
   1.35899997      -2.15347563E-06
   1.36600006      -2.11299630E-06
   1.37300003      -2.07392031E-06
   1.38000000      -2.03644458E-06
   1.38699996      -2.00076943E-06
   1.39400005      -1.96709721E-06
   1.40100002      -1.93563028E-06
   1.40799999      -1.90656965E-06
   1.41499996      -1.88011632E-06
   1.42200005      -1.85646661E-06
   1.42900002      -1.83581449E-06
   1.43599999      -1.81835071E-06
   1.44299996      -1.80426446E-06
   1.45000005      -1.79374285E-06
   1.45700002      -1.78697144E-06
   1.46399999      -1.78413211E-06
   1.47099996      -1.78540245E-06
   1.47800004      -1.79095264E-06
   1.48500001      -1.80094412E-06
   1.49199998      -1.81552912E-06
   1.49899995      -1.83484974E-06
   1.50600004      -1.85903821E-06
   1.51300001      -1.88821775E-06
   1.51999998      -1.92250195E-06
   1.52699995      -1.96199608E-06
   1.53400004      -2.00679528E-06
   1.54100001      -2.05698461E-06
   1.54799998      -2.11263546E-06
   1.55499995      -2.17380398E-06
   1.56200004      -2.24053065E-06
   1.56900001      -2.31283752E-06
   1.57599998      -2.39073188E-06
   1.58299994      -2.47420326E-06
   1.59000003      -2.56322710E-06
   1.59700000      -2.65776384E-06
   1.60399997      -2.75775983E-06
   1.61099994      -2.86314548E-06
   1.61800003      -2.97383554E-06
   1.62500000      -3.08972540E-06
   1.63199997      -3.21069297E-06
   1.63900006      -3.33659546E-06
   1.64600003      -3.46727097E-06
   1.65300000      -3.60254148E-06
   1.65999997      -3.74221236E-06
   1.66700006      -3.88607532E-06
   1.67400002      -4.03390686E-06
   1.68099999      -4.18547370E-06
   1.68799996      -4.34052572E-06
   1.69500005      -4.49880099E-06
   1.70200002      -4.66002120E-06
   1.70899999      -4.82389441E-06
   1.71599996      -4.99011321E-06
   1.72300005      -5.15836018E-06
   1.73000002      -5.32830654E-06
   1.73699999      -5.49961806E-06
   1.74399996      -5.67195275E-06
   1.75100005      -5.84496729E-06
   1.75800002      -6.01831653E-06
   1.76499999      -6.19165166E-06
   1.77199996      -6.36462119E-06
   1.77900004      -6.53686857E-06
   1.78600001      -6.70803502E-06
   1.79299998      -6.87776219E-06
   1.79999995      -7.04569538E-06
   1.80700004      -7.21148172E-06
   1.81400001      -7.37477512E-06
   1.82099998      -7.53524182E-06
   1.82799995      -7.69255712E-06
   1.83500004      -7.84640997E-06
   1.84200001      -7.99649661E-06
   1.84899998      -8.14252417E-06
   1.85599995      -8.28420889E-06
   1.86300004      -8.42128065E-06
   1.87000000      -8.55347935E-06
   1.87699997      -8.68056395E-06
   1.88399994      -8.80230436E-06
   1.89100003      -8.91849504E-06
   1.89800000      -9.02894499E-06
   1.90499997      -9.13349049E-06
   1.91199994      -9.23198513E-06
   1.91900003      -9.32430248E-06
   1.92600000      -9.41033613E-06
   1.93299997      -9.48999059E-06
   1.94000006      -9.56319036E-06
   1.94700003      -9.62987360E-06
   1.95400000      -9.68999848E-06
   1.96099997      -9.74354862E-06
   1.96800005      -9.79052675E-06
   1.97500002      -9.83095742E-06
   1.98199999      -9.86488430E-06
   1.98899996      -9.89237287E-06
   1.99600005      -9.91349953E-06
   2.00300002      -9.92835612E-06
   2.00999999      -9.93704634E-06
   2.01699996      -9.93968206E-06
   2.02399993      -9.93639060E-06
   2.03099990      -9.92731020E-06
   2.03800011      -9.91259367E-06
   2.04500008      -9.89241016E-06
   2.05200005      -9.86694158E-06
   2.05900002      -9.83637892E-06
   2.06599998      -9.80091590E-06
   2.07299995      -9.76075535E-06
   2.07999992      -9.71610280E-06
   2.08699989      -9.66716198E-06
   2.09400010      -9.61413843E-06
   2.10100007      -9.55723681E-06
   2.10800004      -9.49666537E-06
   2.11500001      -9.43263512E-06
   2.12199998      -9.36535889E-06
   2.12899995      -9.29505222E-06
   2.13599992      -9.22192430E-06
   2.14299989      -9.14617431E-06
   2.15000010      -9.06799778E-06
   2.15700006      -8.98758117E-06
   2.16400003      -8.90510910E-06
   2.17100000      -8.82075074E-06
   2.17799997      -8.73468070E-06
   2.18499994      -8.64705726E-06
   2.19199991      -8.55804046E-06
   2.19899988      -8.46778221E-06
   2.20600009      -8.37642528E-06
   2.21300006      -8.28410521E-06
   2.22000003      -8.19094203E-06
   2.22700000      -8.09704852E-06
   2.23399997      -8.00252747E-06
   2.24099994      -7.90747617E-06
   2.24799991      -7.81198469E-06
   2.25500011      -7.71613668E-06
   2.26200008      -7.62001036E-06
   2.26900005      -7.52367532E-06
   2.27600002      -7.42719430E-06
   2.28299999      -7.33062279E-06
   2.28999996      -7.23401126E-06
   2.29699993      -7.13740428E-06
   2.30399990      -7.04084277E-06
   2.31100011      -6.94436540E-06
   2.31800008      -6.84801034E-06
   2.32500005      -6.75181400E-06
   2.33200002      -6.65581229E-06
   2.33899999      -6.56003795E-06
   2.34599996      -6.46452145E-06
   2.35299993      -6.36929190E-06
   2.35999990      -6.27437976E-06
   2.36700010      -6.17982005E-06
   2.37400007      -6.08564687E-06
   2.38100004      -5.99190071E-06
   2.38800001      -5.89862566E-06
   2.39499998      -5.80586675E-06
   2.40199995      -5.71367491E-06
   2.40899992      -5.62210016E-06
   2.41599989      -5.53119753E-06
   2.42300010      -5.44102295E-06
   2.43000007      -5.35163736E-06
   2.43700004      -5.26310487E-06
   2.44400001      -5.17549961E-06
   2.45099998      -5.08890162E-06
   2.45799994      -5.00339456E-06
   2.46499991      -4.91906758E-06
   2.47199988      -4.83601070E-06
   2.47900009      -4.75431489E-06
   2.48600006      -4.67407381E-06
   2.49300003      -4.59537887E-06
   2.50000000      -4.51832420E-06
   2.50699997      -4.44300576E-06
   2.51399994      -4.36952359E-06
   2.52099991      -4.29798183E-06
   2.52800012      -4.22848643E-06
   2.53500009      -4.16114290E-06
   2.54200006      -4.09605400E-06
   2.54900002      -4.03331478E-06
   2.55599999      -3.97301619E-06
   2.56299996      -3.91524190E-06
   2.56999993      -3.86007150E-06
   2.57699990      -3.80758365E-06
   2.58400011      -3.75785089E-06
   2.59100008      -3.71094438E-06
   2.59800005      -3.66692848E-06
   2.60500002      -3.62586138E-06
   2.61199999      -3.58779084E-06
   2.61899996      -3.55275324E-06
   2.62599993      -3.52077382E-06
   2.63299990      -3.49186689E-06
   2.64000010      -3.46603724E-06
   2.64700007      -3.44328419E-06
   2.65400004      -3.42360113E-06
   2.66100001      -3.40697420E-06
   2.66799998      -3.39337976E-06
   2.67499995      -3.38278301E-06
   2.68199992      -3.37513529E-06
   2.68899989      -3.37037386E-06
   2.69600010      -3.36842322E-06
   2.70300007      -3.36919743E-06
   2.71000004      -3.37260235E-06
   2.71700001      -3.37853794E-06
   2.72399998      -3.38690006E-06
   2.73099995      -3.39758003E-06
   2.73799992      -3.41046325E-06
   2.74499989      -3.42542603E-06
   2.75200009      -3.44233376E-06
   2.75900006      -3.46104298E-06
   2.76600003      -3.48140134E-06
   2.77300000      -3.50325445E-06
   2.77999997      -3.52644633E-06
   2.78699994      -3.55082329E-06
   2.79399991      -3.57623230E-06
   2.80100012      -3.60252307E-06
   2.80800009      -3.62954324E-06
   2.81500006      -3.65713981E-06
   2.82200003      -3.68515748E-06
   2.82900000      -3.71343845E-06
   2.83599997      -3.74182719E-06
   2.84299994      -3.77017159E-06
   2.84999990      -3.79832750E-06
   2.85700011      -3.82615917E-06
   2.86400008      -3.85353997E-06
   2.87100005      -3.88035187E-06
   2.87800002      -3.90648120E-06
   2.88499999      -3.93181972E-06
   2.89199996      -3.95626148E-06
   2.89899993      -3.97970825E-06
   2.90599990      -4.00206955E-06
   2.91300011      -4.02326577E-06
   2.92000008      -4.04323055E-06
   2.92700005      -4.06190838E-06
   2.93400002      -4.07925518E-06
   2.94099998      -4.09523818E-06
   2.94799995      -4.10983102E-06
   2.95499992      -4.12301551E-06
   2.96199989      -4.13477892E-06
   2.96900010      -4.14511715E-06
   2.97600007      -4.15403611E-06
   2.98300004      -4.16155126E-06
   2.99000001      -4.16769171E-06
   2.99699998      -4.17249612E-06
   3.00399995      -4.17600904E-06
   3.01099992      -4.17828051E-06
   3.01799989      -4.17936553E-06
   3.02500010      -4.17932279E-06
   3.03200006      -4.17821411E-06
   3.03900003      -4.17610681E-06
   3.04600000      -4.17307501E-06
   3.05299997      -4.16919602E-06
   3.05999994      -4.16455487E-06
   3.06699991      -4.15924023E-06
   3.07399988      -4.15334262E-06
   3.08100009      -4.14694887E-06
   3.08800006      -4.14014403E-06
   3.09500003      -4.13300995E-06
   3.10200000      -4.12562758E-06
   3.10899997      -4.11807741E-06
   3.11599994      -4.11043948E-06
   3.12299991      -4.10279335E-06
   3.13000011      -4.09521544E-06
   3.13700008      -4.08778033E-06
   3.14400005      -4.08055257E-06
   3.15100002      -4.07359130E-06
   3.15799999      -4.06694562E-06
   3.16499996      -4.06065783E-06
   3.17199993      -4.05476658E-06
   3.17899990      -4.04930643E-06
   3.18600011      -4.04431012E-06
   3.19300008      -4.03980948E-06
   3.20000005      -4.03582999E-06
   3.20700002      -4.03238892E-06
   3.21399999      -4.02949308E-06
   3.22099996      -4.02713840E-06
   3.22799993      -4.02530986E-06
   3.23499990      -4.02398564E-06
   3.24200010      -4.02313890E-06
   3.24900007      -4.02274054E-06
   3.25600004      -4.02275964E-06
   3.26300001      -4.02316846E-06
   3.26999998      -4.02393471E-06
   3.27699995      -4.02502155E-06
   3.28399992      -4.02638534E-06
   3.29099989      -4.02797195E-06
   3.29800010      -4.02972137E-06
   3.30500007      -4.03156810E-06
   3.31200004      -4.03344802E-06
   3.31900001      -4.03530066E-06
   3.32599998      -4.03706827E-06
   3.33299994      -4.03869944E-06
   3.33999991      -4.04014327E-06
   3.34699988      -4.04135062E-06
   3.35400009      -4.04227103E-06
   3.36100006      -4.04285038E-06
   3.36800003      -4.04303182E-06
   3.37500000      -4.04276079E-06
   3.38199997      -4.04198636E-06
   3.38899994      -4.04066805E-06
   3.39599991      -4.03877493E-06
   3.40300012      -4.03628837E-06
   3.41000009      -4.03319564E-06
   3.41700006      -4.02948945E-06
   3.42400002      -4.02516389E-06
   3.43099999      -4.02021169E-06
   3.43799996      -4.01462785E-06
   3.44499993      -4.00840827E-06
   3.45199990      -4.00155568E-06
   3.45900011      -3.99408509E-06
   3.46600008      -3.98602242E-06
   3.47300005      -3.97740405E-06
   3.48000002      -3.96828182E-06
   3.48699999      -3.95870848E-06
   3.49399996      -3.94874178E-06
   3.50099993      -3.93843857E-06
   3.50799990      -3.92785478E-06
   3.51500010      -3.91704816E-06
   3.52200007      -3.90608375E-06
   3.52900004      -3.89503430E-06
   3.53600001      -3.88398030E-06
   3.54299998      -3.87301498E-06
   3.54999995      -3.86223746E-06
   3.55699992      -3.85174781E-06
   3.56399989      -3.84164741E-06
   3.57100010      -3.83202951E-06
   3.57800007      -3.82298231E-06
   3.58500004      -3.81459154E-06
   3.59200001      -3.80694223E-06
   3.59899998      -3.80012307E-06
   3.60599995      -3.79423000E-06
   3.61299992      -3.78936397E-06
   3.61999989      -3.78562891E-06
   3.62700009      -3.78312802E-06
   3.63400006      -3.78195887E-06
   3.64100003      -3.78220989E-06
   3.64800000      -3.78395885E-06
   3.65499997      -3.78727395E-06
   3.66199994      -3.79221638E-06
   3.66899991      -3.79884500E-06
   3.67600012      -3.80721849E-06
   3.68300009      -3.81739574E-06
   3.69000006      -3.82943472E-06
   3.69700003      -3.84338728E-06
   3.70400000      -3.85929661E-06
   3.71099997      -3.87719319E-06
   3.71799994      -3.89709885E-06
   3.72499990      -3.91902131E-06
   3.73200011      -3.94296148E-06
   3.73900008      -3.96891483E-06
   3.74600005      -3.99687315E-06
   3.75300002      -4.02682645E-06
   3.75999999      -4.05876062E-06
   3.76699996      -4.09265567E-06
   3.77399993      -4.12848294E-06
   3.78099990      -4.16620287E-06
   3.78800011      -4.20576134E-06
   3.79500008      -4.24709697E-06
   3.80200005      -4.29014108E-06
   3.80900002      -4.33481864E-06
   3.81599998      -4.38105053E-06
   3.82299995      -4.42875535E-06
   3.82999992      -4.47784714E-06
   3.83699989      -4.52823679E-06
   3.84400010      -4.57982696E-06
   3.85100007      -4.63251718E-06
   3.85800004      -4.68619646E-06
   3.86500001      -4.74075159E-06
   3.87199998      -4.79606524E-06
   3.87899995      -4.85201963E-06
   3.88599992      -4.90850016E-06
   3.89299989      -4.96538905E-06
   3.90000010      -5.02257035E-06
   3.90700006      -5.07992354E-06
   3.91400003      -5.13732675E-06
   3.92100000      -5.19465721E-06
   3.92799997      -5.25179212E-06
   3.93499994      -5.30861098E-06
   3.94199991      -5.36499556E-06
   3.94899988      -5.42083080E-06
   3.95600009      -5.47600575E-06
   3.96300006      -5.53041491E-06
   3.97000003      -5.58395323E-06
   3.97700000      -5.63652065E-06
   3.98399997      -5.68801852E-06
   3.99099994      -5.73835223E-06
   3.99799991      -5.78743629E-06
   4.00500011      -5.83519068E-06
   4.01200008      -5.88154762E-06
   4.01900005      -5.92644619E-06
   4.02600002      -5.96983000E-06
   4.03299999      -6.01165038E-06
   4.03999996      -6.05186096E-06
   4.04699993      -6.09041854E-06
   4.05399990      -6.12728718E-06
   4.06099987      -6.16243733E-06
   4.06799984      -6.19584853E-06
   4.07499981      -6.22751395E-06
   4.08199978      -6.25743542E-06
   4.08900023      -6.28562702E-06
   4.09600019      -6.31211105E-06
   4.10300016      -6.33691388E-06
   4.11000013      -6.36006553E-06
   4.11700010      -6.38159645E-06
   4.12400007      -6.40154531E-06
   4.13100004      -6.41995393E-06
   4.13800001      -6.43687554E-06
   4.14499998      -6.45237151E-06
   4.15199995      -6.46651097E-06
   4.15899992      -6.47937213E-06
   4.16599989      -6.49103549E-06
   4.17299986      -6.50158518E-06
   4.17999983      -6.51110713E-06
   4.18699980      -6.51968321E-06
   4.19399977      -6.52739573E-06
   4.20100021      -6.53432926E-06
   4.20800018      -6.54057339E-06
   4.21500015      -6.54622181E-06
   4.22200012      -6.55137364E-06
   4.22900009      -6.55613121E-06
   4.23600006      -6.56059456E-06
   4.24300003      -6.56486145E-06
   4.25000000      -6.56902375E-06
   4.25699997      -6.57317150E-06
   4.26399994      -6.57738883E-06
   4.27099991      -6.58175577E-06
   4.27799988      -6.58634963E-06
   4.28499985      -6.59124544E-06
   4.29199982      -6.59651823E-06
   4.29899979      -6.60224032E-06
   4.30600023      -6.60847991E-06
   4.31300020      -6.61529657E-06
   4.32000017      -6.62274215E-06
   4.32700014      -6.63085621E-06
   4.33400011      -6.63967285E-06
   4.34100008      -6.64921936E-06
   4.34800005      -6.65951666E-06
   4.35500002      -6.67058430E-06
   4.36199999      -6.68243410E-06
   4.36899996      -6.69507608E-06
   4.37599993      -6.70851159E-06
   4.38299990      -6.72273745E-06
   4.38999987      -6.73773729E-06
   4.39699984      -6.75348338E-06
   4.40399981      -6.76993704E-06
   4.41099977      -6.78705010E-06
   4.41800022      -6.80477206E-06
   4.42500019      -6.82304653E-06
   4.43200016      -6.84181578E-06
   4.43900013      -6.86101748E-06
   4.44600010      -6.88058753E-06
   4.45300007      -6.90045454E-06
   4.46000004      -6.92054073E-06
   4.46700001      -6.94076107E-06
   4.47399998      -6.96101961E-06
   4.48099995      -6.98121539E-06
   4.48799992      -7.00124065E-06
   4.49499989      -7.02098714E-06
   4.50199986      -7.04034937E-06
   4.50899982      -7.05922685E-06
   4.51599979      -7.07751815E-06
   4.52299976      -7.09512096E-06
   4.53000021      -7.11192888E-06
   4.53700018      -7.12783094E-06
   4.54400015      -7.14271346E-06
   4.55100012      -7.15646183E-06
   4.55800009      -7.16896102E-06
   4.56500006      -7.18009778E-06
   4.57200003      -7.18976389E-06
   4.57900000      -7.19785976E-06
   4.58599997      -7.20429216E-06
   4.59299994      -7.20897333E-06
   4.59999990      -7.21181777E-06
   4.60699987      -7.21273864E-06
   4.61399984      -7.21165088E-06
   4.62099981      -7.20847356E-06
   4.62799978      -7.20312710E-06
   4.63500023      -7.19554328E-06
   4.64200020      -7.18566071E-06
   4.64900017      -7.17342982E-06
   4.65600014      -7.15880515E-06
   4.66300011      -7.14175030E-06
   4.67000008      -7.12223709E-06
   4.67700005      -7.10023960E-06
   4.68400002      -7.07574009E-06
   4.69099998      -7.04872127E-06
   4.69799995      -7.01917452E-06
   4.70499992      -6.98709982E-06
   4.71199989      -6.95250810E-06
   4.71899986      -6.91542118E-06
   4.72599983      -6.87586589E-06
   4.73299980      -6.83387771E-06
   4.73999977      -6.78949664E-06
   4.74700022      -6.74277044E-06
   4.75400019      -6.69375413E-06
   4.76100016      -6.64250865E-06
   4.76800013      -6.58910039E-06
   4.77500010      -6.53360030E-06
   4.78200006      -6.47608749E-06
   4.78900003      -6.41664519E-06
   4.79600000      -6.35536344E-06
   4.80299997      -6.29233818E-06
   4.80999994      -6.22766856E-06
   4.81699991      -6.16145826E-06
   4.82399988      -6.09381686E-06
   4.83099985      -6.02485807E-06
   4.83799982      -5.95470010E-06
   4.84499979      -5.88346484E-06
   4.85200024      -5.81127142E-06
   4.85900021      -5.73824036E-06
   4.86600018      -5.66448898E-06
   4.87300014      -5.59013688E-06
   4.88000011      -5.51530366E-06
   4.88700008      -5.44011118E-06
   4.89400005      -5.36468451E-06
   4.90100002      -5.28914961E-06
   4.90799999      -5.21363518E-06
   4.91499996      -5.13827217E-06
   4.92199993      -5.06318884E-06
   4.92899990      -4.98850886E-06
   4.93599987      -4.91435094E-06
   4.94299984      -4.84082511E-06
   4.94999981      -4.76804234E-06
   4.95699978      -4.69610768E-06
   4.96400023      -4.62512935E-06
   4.97100019      -4.55521422E-06
   4.97800016      -4.48646506E-06
   4.98500013      -4.41898328E-06
   4.99200010      -4.35286893E-06