  -10.0000000         1.00000002E-24
  -9.86999989         1.00000022E-24
  -9.73999977         1.00000012E-24
  -9.60999966         1.00000002E-24
  -9.47999954         1.00000032E-24
  -9.35000038         1.00000022E-24
  -9.22000027         1.00000002E-24
  -9.09000015         1.00000002E-24
  -8.96000004         2.25270750E-14
  -8.82999992         1.04450065E-13
  -8.69999981        -5.37680967E-12
  -8.56999969         3.68043616E-11
  -8.43999958        -6.21567103E-11
  -8.31000042        -3.05613312E-10
  -8.18000031         1.44558909E-09
  -8.05000019        -4.59001392E-10
  -7.92000008        -8.95628371E-09
  -7.78999996         1.49159227E-08
  -7.65999985         2.59441446E-08
  -7.53000021        -8.88404088E-08
  -7.40000010        -1.62357860E-08
  -7.26999998         3.04009973E-07
  -7.13999987        -1.83583069E-07
  -7.01000023        -6.70614725E-07
  -6.88000011         9.28594261E-07
  -6.75000000         8.20109108E-07
  -6.61999989        -2.58145656E-06
  -6.48999977         3.78683922E-07
  -6.36000013         4.83706799E-06
  -6.23000002        -4.74898070E-06
  -6.09999990        -5.72414638E-06
  -5.96999979         1.35633509E-05
  -5.84000015         1.28644615E-06
  -5.71000004        -2.51258662E-05
  -5.57999992         1.25198803E-05
  -5.44999981         3.29401082E-05
  -5.32000017        -3.51349991E-05
  -5.19000006        -2.77313338E-05
  -5.05999994         5.61469751E-05
  -4.92999983         5.22162509E-06
  -4.80000019        -5.47098643E-05
  -4.67000008         2.42481892E-05
  -4.53999996         9.07296635E-06
  -4.40999985        -3.46706038E-05
  -4.28000021         8.31339567E-05
  -4.15000010        -2.20809056E-07
  -4.01999998        -1.84392586E-04
  -3.89000010         8.31388243E-05
  -3.75999999         2.21533686E-04
  -3.63000011        -1.81875599E-04
  -3.50000000        -1.37463707E-04
  -3.36999989         2.39561035E-04
  -3.24000001        -3.28164533E-05
  -3.10999990        -1.97885965E-04
  -2.98000002         1.45514947E-04
  -2.84999990         3.67421562E-05
  -2.72000003        -4.67862264E-05
  -2.58999991         1.65853722E-04
  -2.46000004        -2.87636823E-04
  -2.32999992        -2.23886978E-04
  -2.20000005         7.02134857E-04
  -2.06999993        -2.13403982E-05
  -1.94000006        -9.24471242E-04
  -1.80999994         5.05669916E-04
  -1.67999995         7.08143169E-04
  -1.54999995        -9.13768250E-04
  -1.41999996        -4.60279916E-05
  -1.28999996         8.61101842E-04
  -1.15999997        -7.06606545E-04
  -1.02999997        -1.59984338E-04
 -0.899999976         1.03766262E-03
 -0.769999981        -9.05247172E-04
 -0.639999986        -6.33988588E-04
 -0.509999990         1.58518658E-03
 -0.379999995        -4.41410113E-04
 -0.250000000        -1.28627406E-03
 -0.119999997         1.62110978E-03
   9.99999978E-03     2.24667616E-04
  0.140000001        -1.85216439E-03
  0.270000011         7.91201426E-04
  0.400000006         3.47954570E-04
  0.529999971        -1.11278787E-03
  0.660000026         2.28245626E-03
  0.790000021         5.32858423E-04
  0.920000017        -3.99245787E-03
   1.04999995         1.06036558E-03
   1.17999995         3.31999781E-03
   1.30999994        -3.13813193E-03
   1.44000006        -1.08546508E-03
   1.57000005         3.15341377E-03
   1.70000005        -2.56490195E-03
   1.83000004        -1.87106384E-03
   1.96000004         3.62066925E-03
   2.08999991        -2.54938379E-03
   2.22000003        -4.24755830E-03
   2.34999990         3.13645508E-03
   2.48000002        -2.14280281E-03
   2.60999990        -7.21648429E-03
   2.74000001         1.60864834E-03
   2.86999989        -5.35136438E-04
   3.00000000        -1.02073997E-02
   3.13000011        -5.15032420E-03
   3.25999999        -4.14762273E-03
   3.39000010        -1.30499061E-02
   3.51999998        -1.07987095E-02
   3.65000010        -1.16080437E-02
   3.77999997        -2.32951883E-02
   3.91000009        -2.25756112E-02
   4.03999996        -2.32989378E-02
   4.17000008        -4.03307565E-02
   4.30000019        -4.56905290E-02
   4.42999983        -4.74620238E-02
   4.55999994        -7.04464763E-02
   4.69000006        -8.53667408E-02
   4.82000017        -8.99767727E-02
   4.94999981       -0.120629311    
   5.07999992       -0.153581426    
   5.21000004       -0.168695122    
   5.34000015       -0.205940306    
   5.46999979       -0.259010345    
   5.59999990       -0.296987444    
   5.73000002       -0.351635247    
   5.86000013       -0.430936277    
   5.98999977       -0.501716375    
   6.11999989       -0.585269630    
   6.25000000       -0.699134529    
   6.38000011       -0.813948989    
   6.51000023       -0.943490684    
   6.63999987        -1.10950732    
   6.76999998        -1.28435421    
   6.90000010        -1.47673559    
   7.03000021        -1.71462679    
   7.15999985        -1.97131968    
   7.28999996        -2.24737024    
   7.42000008        -2.57858181    
   7.55000019        -2.94332409    
   7.67999983        -3.32902765    
   7.80999994        -3.77446890    
   7.94000006        -4.27162933    
   8.06999969        -4.79946947    
   8.19999981        -5.38949013    
   8.32999992        -6.04306221    
   8.46000004        -6.73858786    
   8.59000015        -7.50220585    
   8.72000027        -8.33891201    
   8.85000038        -9.22482491    
   8.97999954        -10.1838226    
   9.10999966        -11.2266397    
   9.23999977        -12.3246059    
   9.36999989        -13.4961472    
   9.50000000        -14.7604837    
   9.63000011        -16.0858555    
   9.76000023        -17.4800682    
   9.89000034        -18.9714203    
   10.0200005        -20.5307541    
   10.1499996        -22.1492443    
   10.2799997        -23.8586483    
   10.4099998        -25.6436939    
   10.5400000        -27.4841709    
   10.6700001        -29.4022865    
   10.8000002        -31.3935909    
   10.9300003        -33.4372139    
   11.0600004        -35.5449142    
   11.1899996        -37.7163277    
   11.3199997        -39.9359665    
   11.4499998        -42.2098351    
   11.5799999        -44.5325851    
   11.7100000        -46.8893166    
   11.8400002        -49.2905006    
   11.9700003        -51.7326584    
   12.1000004        -54.1935654    
   12.2299995        -56.6823158    
   12.3599997        -59.2048111    
   12.4899998        -61.7338142    
   12.6199999        -64.2672195    
   12.7500000        -66.8222427    
   12.8800001        -69.3796463    
   13.0100002        -71.9197464    
   13.1400003        -74.4564743    
   13.2700005        -76.9879761    
   13.3999996        -79.4885330    
   13.5299997        -81.9548340    
   13.6599998        -84.3937454    
   13.7900000        -86.7883911    
   13.9200001        -89.1200790    
   14.0500002        -91.3874664    
   14.1800003        -93.5830612    
   14.3100004        -95.6867981    
   14.4399996        -97.6835175    
   14.5699997        -99.5619125    
   14.6999998        -101.307014    
   14.8299999        -102.898895    
   14.9600000        -104.311646    
   15.0900002        -105.526260    
   15.2200003        -106.530334    
   15.3500004        -107.291908    
   15.4799995        -107.776260    
   15.6099997        -107.973457    
   15.7399998        -107.857307    
   15.8699999        -107.377037    
   16.0000000        -106.515747    
   16.1299992        -105.264549    
   16.2600002        -103.572906    
   16.3899994        -101.406807    
   16.5200005        -98.7647552    
   16.6499996        -95.6144562    
   16.7800007        -91.9190521    
   16.9099998        -87.6765366    
   17.0400009        -82.8730850    
   17.1700001        -77.4853363    
   17.2999992        -71.5157700    
   17.4300003        -64.9637985    
   17.5599995        -57.8280678    
   17.6900005        -50.1305161    
   17.8199997        -41.8841095    
   17.9500008        -33.1037598    
   18.0799999        -23.8385468    
   18.2099991        -14.1249151    
   18.3400002        -3.98954296    
   18.4699993         6.49522924    
   18.6000004         17.2597618    
   18.7299995         28.2647629    
   18.8600006         39.4310303    
   18.9899998         50.6609612    
   19.1200008         61.8944626    
   19.2500000         73.0534515    
   19.3799992         84.0305634    
   19.5100002         94.7475204    
   19.6399994         105.129036    
   19.7700005         115.077744    
   19.8999996         124.515015    
   20.0300007         133.370316    
   20.1599998         141.561539    
   20.2900009         149.026382    
   20.4200001         155.712875    
   20.5499992         161.560715    
   20.6800003         166.532379    
   20.8099995         170.605469    
   20.9400005         173.748367    
   21.0699997         175.949921    
   21.2000008         177.220947    
   21.3299999         177.563904    
   21.4599991         176.994156    
   21.5900002         175.552628    
   21.7199993         173.275635    
   21.8500004         170.202179    
   21.9799995         166.393753    
   22.1100006         161.912979    
   22.2399998         156.818192    
   22.3700008         151.180786    
   22.5000000         145.077347    
   22.6299992         138.579117    
   22.7600002         131.758224    
   22.8899994         124.689178    
   23.0200005         117.446243    
   23.1499996         110.100128    
   23.2800007         102.713348    
   23.4099998         95.3469696    
   23.5400009         88.0623474    
   23.6700001         80.9091339    
   23.7999992         73.9299469    
   23.9300003         67.1712189    
   24.0599995         60.6692619    
   24.1900005         54.4453621    
   24.3199997         48.5239983    
   24.4500008         42.9292755    
   24.5799999         37.6690178    
   24.7099991         32.7461853    
   24.8400002         28.1690598    
   24.9699993         23.9378662    
   25.1000004         20.0427513    
   25.2299995         16.4759197    
   25.3600006         13.2301083    
   25.4899998         10.2914848    
   25.6200008         7.64236069    
   25.7500000         5.26722908    
   25.8799992         3.15281487    
   26.0100002         1.27994895    
   26.1399994       -0.374828190    
   26.2700005        -1.82416058    
   26.3999996        -3.07877922    
   26.5300007        -4.16637230    
   26.6599998        -5.10784674    
   26.7900009        -5.90278912    
   26.9200001        -6.56837511    
   27.0499992        -7.13662338    
   27.1800003        -7.60772991    
   27.3099995        -7.97806787    
   27.4400005        -8.27970409    
   27.5699997        -8.52941418    
   27.7000008        -8.71151066    
   27.8299999        -8.83813381    
   27.9599991        -8.93690681    
   28.0900002        -8.99997139    
   28.2199993        -9.02061558    
   28.3500004        -9.02143192    
   28.4799995        -9.00968456    
   28.6100006        -8.97435284    
   28.7399998        -8.92095852    
   28.8700008        -8.85978413    
   29.0000000        -8.79081059    
   29.1299992        -8.71384335    
   29.2600002        -8.62789631    
   29.3899994        -8.53627872    
   29.5200005        -8.44826221    
   29.6499996        -8.35711956    
   29.7800007        -8.25436211    
   29.9099998        -8.15709496    
   30.0400009        -8.06938171    
   30.1700001        -7.96842575    
   30.2999992        -7.86173582    
   30.4300003        -7.77219677    
   30.5599995        -7.68114853    
   30.6900005        -7.57532978    
   30.8199997        -7.48117781    
   30.9500008        -7.39821577    
   31.0799999        -7.30129814    
   31.2099991        -7.20387363    
   31.3400002        -7.12177610    
   31.4699993        -7.03509998    
   31.6000004        -6.94065237    
   31.7299995        -6.85636759    
   31.8600006        -6.77663946    
   31.9899998        -6.69234848    
   32.1199989        -6.61019993    
   32.2500000        -6.52927351    
   32.3800011        -6.44801569    
   32.5099983        -6.37159634    
   32.6399994        -6.29420996    
   32.7700005        -6.21496201    
   32.9000015        -6.14403534    
   33.0299988        -6.07264233    
   33.1599998        -5.99280405    
   33.2900009        -5.92193842    
   33.4199982        -5.85887003    
   33.5499992        -5.78343296    
   33.6800003        -5.70850086    
   33.8100014        -5.64913559    
   33.9399986        -5.58368826    
   34.0699997        -5.50783110    
   34.2000008        -5.44569635    
   34.3300018        -5.39011621    
   34.4599991        -5.32095957    
   34.5900002        -5.25296116    
   34.7200012        -5.19813585    
   34.8499985        -5.13961458    
   34.9799995        -5.07388258    
   35.1100006        -5.01592875    
   35.2400017        -4.96381474    
   35.3699989        -4.90638065    
   35.5000000        -4.84695292    
   35.6300011        -4.79268503    
   35.7599983        -4.74118328    
   35.8899994        -4.68769121    
   36.0200005        -4.63341093    
   36.1500015        -4.58281851    
   36.2799988        -4.53458881    
   36.4099998        -4.48261404    
   36.5400009        -4.42928410    
   36.6699982        -4.38200855    
   36.7999992        -4.33656263    
   36.9300003        -4.28637695    
   37.0600014        -4.23818064    
   37.1899986        -4.19517422    
   37.3199997        -4.14785862    
   37.4500008        -4.09744978    
   37.5800018        -4.05463839    
   37.7099991        -4.01345348    
   37.8400002        -3.96466041    
   37.9700012        -3.91874242    
   38.0999985        -3.88062167    
   38.2299995        -3.83632207    
   38.3600006        -3.78719711    
   38.4900017        -3.74806929    
   38.6199989        -3.71009922    
   38.7500000        -3.66136360    
   38.8800011        -3.61778903    
   39.0099983        -3.58484960    
   39.1399994        -3.54304767    
   39.2700005        -3.49571776    
   39.4000015        -3.46026516    
   39.5299988        -3.42522526    
   39.6599998        -3.38019061    
   39.7900009        -3.33957624    
   39.9199982        -3.30496383    
   40.0499992        -3.26655674    
   40.1800003        -3.22886109    
   40.3100014        -3.19249773    
   40.4399986        -3.15422606    
   40.5699997        -3.12033820    
   40.7000008        -3.08472157    
   40.8300018        -3.04256916    
   40.9599991        -3.01186752    
   41.0900002        -2.98630357    
   41.2200012        -2.94353843    
   41.3499985        -2.90624833    
   41.4799995        -2.88713980    
   41.6100006        -2.85143137    
   41.7400017        -2.80784106    
   41.8699989        -2.79017067    
   42.0000000        -2.76756668    
   42.1300011        -2.72251654    
   42.2599983        -2.69580173    
   42.3899994        -2.68096948    
   42.5200005        -2.64638352    
   42.6500015        -2.61719465    
   42.7799988        -2.60279322    
   42.9099998        -2.57603478    
   43.0400009        -2.54865670    
   43.1699982        -2.53192663    
   43.2999992        -2.50770497    
   43.4300003        -2.48720455    
   43.5600014        -2.47648335    
   43.6899986        -2.45218301    
   43.8199997        -2.43049002    
   43.9500008        -2.42590332    
   44.0800018        -2.40522647    
   44.2099991        -2.37929964    
   44.3400002        -2.37926960    
   44.4700012        -2.36798978    
   44.5999985        -2.33644986    
   44.7299995        -2.33136439    
   44.8600006        -2.33145809    
   44.9900017        -2.30419564    
   45.1199989        -2.29086709    
   45.2500000        -2.29337907    
   45.3800011        -2.27122211    
   45.5099983        -2.24973249    
   45.6399994        -2.24879432    
   45.7700005        -2.23526525    
   45.9000015        -2.21602058    
   46.0299988        -2.21027803    
   46.1599998        -2.19567680    
   46.2900009        -2.17612815    
   46.4199982        -2.16789412    
   46.5499992        -2.15092564    
   46.6800003        -2.13084960    
   46.8100014        -2.12620831    
   46.9399986        -2.11012745    
   47.0699997        -2.08184934    
   47.2000008        -2.07442665    
   47.3300018        -2.06706738    
   47.4599991        -2.03888798    
   47.5900002        -2.02200603    
   47.7200012        -2.01573896    
   47.8499985        -1.99233305    
   47.9799995        -1.96887302    
   48.1100006        -1.95856023    
   48.2400017        -1.94248450    
   48.3699989        -1.92175901    
   48.5000000        -1.90535069    
   48.6300011        -1.88629746    
   48.7599983        -1.86621189    
   48.8899994        -1.84787619    
   49.0200005        -1.82717896    
   49.1500015        -1.80926681    
   49.2799988        -1.79273772    
   49.4099998        -1.76927316    
   49.5400009        -1.74762547    
   49.6699982        -1.73162973    
   49.7999992        -1.71012211    
   49.9300003        -1.68681121    
   50.0600014        -1.66835558    
   50.1899986        -1.64711249    
   50.3199997        -1.62377751    
   50.4500008        -1.60420179    
   50.5800018        -1.58484018    
   50.7099991        -1.56507921    
   50.8400002        -1.54471791    
   50.9700012        -1.52121961    
   51.0999985        -1.50048709    
   51.2299995        -1.48216379    
   51.3600006        -1.45901275    
   51.4900017        -1.43928266    
   51.6199989        -1.42587006    
   51.7500000        -1.40475106    
   51.8800011        -1.38008320    
   52.0099983        -1.36390102    
   52.1399994        -1.34688449    
   52.2700005        -1.32514513    
   52.4000015        -1.30796695    
   52.5299988        -1.29190016    
   52.6599998        -1.27282870    
   52.7900009        -1.25604808    
   52.9199982        -1.24043298    
   53.0499992        -1.22447217    
   53.1800003        -1.20993233    
   53.3100014        -1.19312584    
   53.4399986        -1.17641401    
   53.5699997        -1.16488469    
   53.7000008        -1.15141773    
   53.8300018        -1.13536358    
   53.9599991        -1.12559426    
   54.0900002        -1.11572778    
   54.2200012        -1.09917545    
   54.3499985        -1.08675230    
   54.4799995        -1.08044362    
   54.6100006        -1.06941378    
   54.7400017        -1.05552268    
   54.8699989        -1.04707766    
   55.0000000        -1.04028916    
   55.1300011        -1.02879155    
   55.2599983        -1.01748133    
   55.3899994        -1.01223695    
   55.5200005        -1.00587010    
   55.6500015       -0.992987216    
   55.7799988       -0.983420253    
   55.9099998       -0.979228795    
   56.0400009       -0.969673038    
   56.1699982       -0.958583772    
   56.2999992       -0.954094589    
   56.4300003       -0.947618186    
   56.5600014       -0.936236680    
   56.6899986       -0.928014636    
   56.8199997       -0.921583831    
   56.9500008       -0.914595962    
   57.0800018       -0.907910287    
   57.2099991       -0.897992730    
   57.3400002       -0.890168905    
   57.4700012       -0.888392508    
   57.5999985       -0.879861593    
   57.7299995       -0.868223906    
   57.8600006       -0.868681252    
   57.9900017       -0.865353405    
   58.1199989       -0.849115372    
   58.2500000       -0.845045507    
   58.3800011       -0.849782050    
   58.5099983       -0.838814378    
   58.6399994       -0.828855753    
   58.7700005       -0.834452212    
   58.9000015       -0.831450343    
   59.0299988       -0.818674922    
   59.1599998       -0.818293750    
   59.2900009       -0.821381986    
   59.4199982       -0.814344704    
   59.5499992       -0.808934987    
   59.6800003       -0.809849381    
   59.8100014       -0.809045196    
   59.9399986       -0.806157291    
   60.0699997       -0.803296685    
   60.2000008       -0.801939070    
   60.3300018       -0.802899241    
   60.4599991       -0.799725652    
   60.5900002       -0.792605162    
   60.7200012       -0.792519271    
   60.8499985       -0.795694649    
   60.9799995       -0.790485322    
   61.1100006       -0.785065413    
   61.2400017       -0.787494123    
   61.3699989       -0.785481453    
   61.5000000       -0.775653601    
   61.6300011       -0.771915317    
   61.7599983       -0.773680925    
   61.8899994       -0.768549681    
   62.0200005       -0.760483027    
   62.1500015       -0.759229779    
   62.2799988       -0.758365929    
   62.4099998       -0.750307679    
   62.5400009       -0.742704332    
   62.6699982       -0.741321385    
   62.7999992       -0.737612903    
   62.9300003       -0.727701068    
   63.0600014       -0.721778870    
   63.1899986       -0.722185731    
   63.3199997       -0.717676759    
   63.4500008       -0.707832813    
   63.5800018       -0.703228414    
   63.7099991       -0.701217473    
   63.8400002       -0.693081617    
   63.9700012       -0.684637129    
   64.0999985       -0.683100879    
   64.2300034       -0.681472719    
   64.3600006       -0.673638642    
   64.4899979       -0.666671813    
   64.6200027       -0.666278362    
   64.7500000       -0.663831830    
   64.8799973       -0.653670251    
   65.0100021       -0.648462951    
   65.1399994       -0.651781023    
   65.2699966       -0.645489752    
   65.4000015       -0.632481396    
   65.5299988       -0.634257436    
   65.6600037       -0.638121426    
   65.7900009       -0.626039326    
   65.9199982       -0.619654894    
   66.0500031       -0.625059485    
   66.1800003       -0.617225587    
   66.3099976       -0.605310798    
   66.4400024       -0.608579874    
   66.5699997       -0.607558668    
   66.6999969       -0.596596122    
   66.8300018       -0.595242918    
   66.9599991       -0.595445693    
   67.0899963       -0.587042212    
   67.2200012       -0.582833827    
   67.3499985       -0.580400765    
   67.4800034       -0.573666036    
   67.6100006       -0.571502268    
   67.7399979       -0.567560256    
   67.8700027       -0.558700919    
   68.0000000       -0.560432434    
   68.1299973       -0.561727941    
   68.2600021       -0.548913240    
   68.3899994       -0.545130312    
   68.5199966       -0.549814165    
   68.6500015       -0.538231730    
   68.7799988       -0.529913306    
   68.9100037       -0.539428651    
   69.0400009       -0.535937846    
   69.1699982       -0.521907985    
   69.3000031       -0.525332630    
   69.4300003       -0.528332949    
   69.5599976       -0.515968859    
   69.6900024       -0.511798024    
   69.8199997       -0.516525209    
   69.9499969       -0.512051046    
   70.0800018       -0.505929232    
   70.2099991       -0.506543696    
   70.3399963       -0.506537735    
   70.4700012       -0.503296077    
   70.5999985       -0.498727769    
   70.7300034       -0.496244848    
   70.8600006       -0.497296900    
   70.9899979       -0.493332148    
   71.1200027       -0.486044407    
   71.2500000       -0.488793433    
   71.3799973       -0.492569745    
   71.5100021       -0.484499454    
   71.6399994       -0.479760796    
   71.7699966       -0.484390825    
   71.9000015       -0.481311202    
   72.0299988       -0.473091930    
   72.1600037       -0.474186122    
   72.2900009       -0.477159500    
   72.4199982       -0.472717941    
   72.5500031       -0.468529433    
   72.6800003       -0.470269591    
   72.8099976       -0.472171336    
   72.9400024       -0.468348980    
   73.0699997       -0.464022934    
   73.1999969       -0.467232704    
   73.3300018       -0.469560206    
   73.4599991       -0.462710112    
   73.5899963       -0.461983383    
   73.7200012       -0.472314745    
   73.8499985       -0.472270906    
   73.9800034       -0.463872790    
   74.1100006       -0.469137967    
   74.2399979       -0.477093458    
   74.3700027       -0.471225321    
   74.5000000       -0.469727755    
   74.6299973       -0.480656236    
   74.7600021       -0.484432846    
   74.8899994       -0.481117964    
   75.0199966       -0.485652477    
   75.1500015       -0.492655486    
   75.2799988       -0.493545681    
   75.4100037       -0.494049996    
   75.5400009       -0.498551905    
   75.6699982       -0.504804969    
   75.8000031       -0.508242726    
   75.9300003       -0.507855654    
   76.0599976       -0.512251437    
   76.1900024       -0.521626770    
   76.3199997       -0.522300959    
   76.4499969       -0.519436717    
   76.5800018       -0.527591825    
   76.7099991       -0.533149898    
   76.8399963       -0.527306616    
   76.9700012       -0.531002164    
   77.0999985       -0.542572916    
   77.2300034       -0.540358365    
   77.3600006       -0.536912799    
   77.4899979       -0.545738578    
   77.6200027       -0.546777129    
   77.7500000       -0.539121509    
   77.8799973       -0.543296933    
   78.0100021       -0.550226450    
   78.1399994       -0.546341300    
   78.2699966       -0.543619871    
   78.4000015       -0.546174586    
   78.5299988       -0.546702206    
   78.6600037       -0.546423197    
   78.7900009       -0.544237912    
   78.9199982       -0.540828586    
   79.0500031       -0.542684197    
   79.1800003       -0.541598499    
   79.3099976       -0.533450425    
   79.4400024       -0.534222245    
   79.5699997       -0.539219797    
   79.6999969       -0.531228244    
   79.8300018       -0.524743080    
   79.9599991       -0.528132439    
   80.0899963       -0.521192729    
   80.2200012       -0.509847224    
   80.3499985       -0.512370944    
   80.4800034       -0.511716962    
   80.6100006       -0.499252230    
   80.7399979       -0.494327337    
   80.8700027       -0.493129641    
   81.0000000       -0.482411534    
   81.1299973       -0.473683327    
   81.2600021       -0.470178545    
   81.3899994       -0.461205512    
   81.5199966       -0.451200634    
   81.6500015       -0.443674386    
   81.7799988       -0.433529407    
   81.9100037       -0.425363392    
   82.0400009       -0.418600082    
   82.1699982       -0.405341208    
   82.3000031       -0.393133074    
   82.4300003       -0.385436833    
   82.5599976       -0.371284455    
   82.6900024       -0.356918991    
   82.8199997       -0.351727337    
   82.9499969       -0.341635227    
   83.0800018       -0.323569953    
   83.2099991       -0.312519073    
   83.3399963       -0.303170294    
   83.4700012       -0.286193877    
   83.5999985       -0.273260176    
   83.7300034       -0.265852660    
   83.8600006       -0.251456320    
   83.9899979       -0.235022634    
   84.1200027       -0.225460678    
   84.2500000       -0.215553790    
   84.3799973       -0.201439708    
   84.5100021       -0.189099193    
   84.6399994       -0.179070979    
   84.7699966       -0.167658672    
   84.9000015       -0.154660374    
   85.0299988       -0.143380046    
   85.1600037       -0.136705577    
   85.2900009       -0.130308226    
   85.4199982       -0.119037360    
   85.5500031       -0.108722374    
   85.6800003       -0.103453584    
   85.8099976        -9.58524570E-02
   85.9400024        -8.56679529E-02
   86.0699997        -8.13997760E-02
   86.1999969        -7.95802251E-02
   86.3300018        -7.21079335E-02
   86.4599991        -6.42365217E-02
   86.5899963        -6.21385016E-02
   86.7200012        -6.03428669E-02
   86.8499985        -5.48154525E-02
   86.9800034        -5.08573614E-02
   87.1100006        -5.06990701E-02
   87.2399979        -4.79962714E-02
   87.3700027        -4.18164507E-02
   87.5000000        -4.09917124E-02
   87.6299973        -4.53031026E-02
   87.7600021        -4.40440923E-02
   87.8899994        -3.92495319E-02
   88.0199966        -4.04162630E-02
   88.1500015        -4.23177667E-02
   88.2799988        -3.96027453E-02
   88.4100037        -4.04893607E-02
   88.5400009        -4.57135290E-02
   88.6699982        -4.75628562E-02
   88.8000031        -4.82016392E-02
   88.9300003        -5.05262278E-02
   89.0599976        -5.25638387E-02
   89.1900024        -5.75217083E-02
   89.3199997        -6.35245964E-02
   89.4499969        -6.43233880E-02
   89.5800018        -6.75047636E-02
   89.7099991        -7.65369311E-02
   89.8399963        -7.96859562E-02
   89.9700012        -8.10828805E-02
   90.0999985        -9.16198716E-02
   90.2300034        -9.91942808E-02
   90.3600006        -9.89769697E-02
   90.4899979       -0.105089009    
   90.6200027       -0.112922147    
   90.7500000       -0.114206001    
   90.8799973       -0.121203035    
   91.0100021       -0.131699368    
   91.1399994       -0.132781520    
   91.2699966       -0.135516778    
   91.4000015       -0.145047083    
   91.5299988       -0.147673130    
   91.6600037       -0.149334371    
   91.7900009       -0.158560514    
   91.9199982       -0.162478507    
   92.0500031       -0.162335619    
   92.1800003       -0.169073105    
   92.3099976       -0.173318177    
   92.4400024       -0.173909664    
   92.5699997       -0.181513935    
   92.6999969       -0.185942963    
   92.8300018       -0.182354793    
   92.9599991       -0.185938850    
   93.0899963       -0.192685783    
   93.2200012       -0.192329481    
   93.3499985       -0.195354655    
   93.4800034       -0.201151758    
   93.6100006       -0.199586630    
   93.7399979       -0.200100735    
   93.8700027       -0.205096290    
   94.0000000       -0.204114497    
   94.1299973       -0.204995617    
   94.2600021       -0.211172447    
   94.3899994       -0.209200308    
   94.5199966       -0.206234172    
   94.6500015       -0.212602168    
   94.7799988       -0.213309973    
   94.9100037       -0.208465353    
   95.0400009       -0.213767976    
   95.1699982       -0.217413276    