  -10.0000000         1.00000002E-24
  -9.86999989         1.00000002E-24
  -9.73999977         1.00000012E-24
  -9.60999966         1.00000022E-24
  -9.47999954         1.00000022E-24
  -9.35000038         1.00000022E-24
  -9.22000027         1.00000002E-24
  -9.09000015         1.00000002E-24
  -8.96000004         8.22875241E-19
  -8.82999992        -2.02541063E-17
  -8.69999981        -1.01712325E-16
  -8.56999969         3.62153849E-15
  -8.43999958        -2.68121249E-14
  -8.31000042         7.17704433E-14
  -8.18000031         6.86180848E-14
  -8.05000019        -6.74534810E-13
  -7.92000008         2.97747666E-14
  -7.78999996         5.26571235E-12
  -7.65999985        -4.35204910E-12
  -7.53000021        -3.11846382E-11
  -7.40000010         5.53064781E-11
  -7.26999998         1.05454319E-10
  -7.13999987        -3.58005098E-10
  -7.01000023        -7.97884744E-11
  -6.88000011         1.46986134E-09
  -6.75000000        -1.16114440E-09
  -6.61999989        -4.12081524E-09
  -6.48999977         7.59089325E-09
  -6.36000013         7.57838237E-09
  -6.23000002        -2.87667739E-08
  -6.09999990        -5.40995426E-09
  -5.96999979         8.12636145E-08
  -5.84000015        -2.08558557E-08
  -5.71000004        -1.84990157E-07
  -5.57999992         1.06693285E-07
  -5.44999981         3.52291949E-07
  -5.32000017        -3.03254694E-07
  -5.19000006        -5.75675870E-07
  -5.05999994         6.67067809E-07
  -4.92999983         8.29673922E-07
  -4.80000019        -1.24108249E-06
  -4.67000008        -1.09714210E-06
  -4.53999996         2.02945193E-06
  -4.40999985         1.39671079E-06
  -4.28000021        -2.98139662E-06
  -4.15000010        -1.75839580E-06
  -4.01999998         4.02557453E-06
  -3.89000010         2.14931629E-06
  -3.75999999        -5.16283035E-06
  -3.63000011        -2.47568823E-06
  -3.50000000         6.44405327E-06
  -3.36999989         2.71208478E-06
  -3.24000001        -7.55441761E-06
  -3.10999990        -2.76220885E-06
  -2.98000002         7.27638781E-06
  -2.84999990         1.57599811E-06
  -2.72000003        -4.07670314E-06
  -2.58999991         3.55091493E-06
  -2.46000004        -1.69275643E-06
  -2.32999992        -1.51982940E-05
  -2.20000005         6.98331951E-06
  -2.06999993         3.23354507E-05
  -1.94000006        -1.01829055E-05
  -1.80999994        -5.17552689E-05
  -1.67999995         1.48490044E-05
  -1.54999995         7.63045391E-05
  -1.41999996        -2.12605719E-05
  -1.28999996        -1.14065057E-04
  -1.15999997         1.33722788E-05
  -1.02999997         1.56229638E-04
 -0.899999976         2.63111488E-05
 -0.769999981        -1.66591199E-04
 -0.639999986        -7.67689999E-05
 -0.509999990         1.25753722E-04
 -0.379999995         8.63868845E-05
 -0.250000000        -7.64257566E-05
 -0.119999997        -4.97645779E-05
   9.99999978E-03     6.44235406E-05
  0.140000001         1.94893728E-05
  0.270000011        -4.76823880E-05
  0.400000006         1.16719502E-05
  0.529999971        -2.71607059E-05
  0.660000026        -1.32336238E-04
  0.790000021         8.20438436E-05
  0.920000017         3.16149992E-04
   1.04999995        -2.88744977E-05
   1.17999995        -3.79126752E-04
   1.30999994        -7.62032323E-06
   1.44000006         2.88972748E-04
   1.57000005        -1.25743594E-04
   1.70000005        -2.55712919E-04
   1.83000004         2.87163886E-04
   1.96000004         3.24583089E-04
   2.08999991        -3.28276044E-04
   2.22000003        -3.70757713E-04
   2.34999990         3.48461646E-04
   2.48000002         3.95928684E-04
   2.60999990        -5.30904741E-04
   2.74000001        -6.46259810E-04
   2.86999989         7.65852688E-04
   3.00000000         1.42637861E-03
   3.13000011         6.10145580E-05
   3.25999999        -7.87698489E-04
   3.39000010         3.99518904E-04
   3.51999998         1.18828821E-03
   3.65000010         3.75544827E-04
   3.77999997         9.64727660E-05
   3.91000009         1.13342528E-03
   4.03999996         1.96684012E-03
   4.17000008         2.04996276E-03
   4.30000019         2.07409775E-03
   4.42999983         2.62052589E-03
   4.55999994         3.79505823E-03
   4.69000006         5.02134440E-03
   4.82000017         5.91335446E-03
   4.94999981         6.92034187E-03
   5.07999992         8.40315409E-03
   5.21000004         1.08231260E-02
   5.34000015         1.46950353E-02
   5.46999979         1.88695751E-02
   5.59999990         2.21366696E-02
   5.73000002         2.60509029E-02
   5.86000013         3.23561020E-02
   5.98999977         4.03909944E-02
   6.11999989         4.91963029E-02
   6.25000000         5.88236712E-02
   6.38000011         7.02305436E-02
   6.51000023         8.51411372E-02
   6.63999987        0.103502668    
   6.76999998        0.123638399    
   6.90000010        0.146601677    
   7.03000021        0.174633220    
   7.15999985        0.206865728    
   7.28999996        0.242685556    
   7.42000008        0.284375191    
   7.55000019        0.333311260    
   7.67999983        0.389635593    
   7.80999994        0.454098076    
   7.94000006        0.526353419    
   8.06999969        0.606462002    
   8.19999981        0.697431147    
   8.32999992        0.801199436    
   8.46000004        0.916979432    
   8.59000015         1.04529047    
   8.72000027         1.18726432    
   8.85000038         1.34290719    
   8.97999954         1.51427531    
   9.10999966         1.70413613    
   9.23999977         1.91177523    
   9.36999989         2.13638020    
   9.50000000         2.37976551    
   9.63000011         2.64244723    
   9.76000023         2.92388010    
   9.89000034         3.22569180    
   10.0200005         3.54926658    
   10.1499996         3.89398217    
   10.2799997         4.25907469    
   10.4099998         4.64309120    
   10.5400000         5.04461861    
   10.6700001         5.46509218    
   10.8000002         5.90593576    
   10.9300003         6.36529636    
   11.0600004         6.84065866    
   11.1899996         7.32981682    
   11.3199997         7.83075523    
   11.4499998         8.34425163    
   11.5799999         8.87092686    
   11.7100000         9.40695572    
   11.8400002         9.94898319    
   11.9700003         10.4963217    
   12.1000004         11.0464134    
   12.2299995         11.5975151    
   12.3599997         12.1508341    
   12.4899998         12.7041759    
   12.6199999         13.2534151    
   12.7500000         13.7980471    
   12.8800001         14.3367729    
   13.0100002         14.8672123    
   13.1400003         15.3908472    
   13.2700005         15.9075565    
   13.3999996         16.4137650    
   13.5299997         16.9099274    
   13.6599998         17.3971043    
   13.7900000         17.8726692    
   13.9200001         18.3375435    
   14.0500002         18.7944927    
   14.1800003         19.2419987    
   14.3100004         19.6806355    
   14.4399996         20.1128139    
   14.5699997         20.5357895    
   14.6999998         20.9492054    
   14.8299999         21.3589039    
   14.9600000         21.7668190    
   15.0900002         22.1716328    
   15.2200003         22.5741749    
   15.3500004         22.9736538    
   15.4799995         23.3702774    
   15.6099997         23.7686691    
   15.7399998         24.1703529    
   15.8699999         24.5741234    
   16.0000000         24.9817085    
   16.1299992         25.3925514    
   16.2600002         25.8043594    
   16.3899994         26.2202549    
   16.5200005         26.6427689    
   16.6499996         27.0695896    
   16.7800007         27.5007572    
   16.9099998         27.9372177    
   17.0400009         28.3763103    
   17.1700001         28.8168030    
   17.2999992         29.2596474    
   17.4300003         29.7040596    
   17.5599995         30.1490765    
   17.6900005         30.5934792    
   17.8199997         31.0345116    
   17.9500008         31.4704533    
   18.0799999         31.8998394    
   18.2099991         32.3201218    
   18.3400002         32.7302666    
   18.4699993         33.1283417    
   18.6000004         33.5092583    
   18.7299995         33.8698807    
   18.8600006         34.2093277    
   18.9899998         34.5244026    
   19.1200008         34.8114014    
   19.2500000         35.0671310    
   19.3799992         35.2868080    
   19.5100002         35.4669800    
   19.6399994         35.6065331    
   19.7700005         35.7019691    
   19.8999996         35.7478523    
   20.0300007         35.7408524    
   20.1599998         35.6792984    
   20.2900009         35.5606613    
   20.4200001         35.3812141    
   20.5499992         35.1386108    
   20.6800003         34.8332443    
   20.8099995         34.4644661    
   20.9400005         34.0290756    
   21.0699997         33.5262756    
   21.2000008         32.9579506    
   21.3299999         32.3251801    
   21.4599991         31.6302185    
   21.5900002         30.8768349    
   21.7199993         30.0667324    
   21.8500004         29.2020264    
   21.9799995         28.2885113    
   22.1100006         27.3324738    
   22.2399998         26.3392620    
   22.3700008         25.3150444    
   22.5000000         24.2660065    
   22.6299992         23.1985855    
   22.7600002         22.1209564    
   22.8899994         21.0413723    
   23.0200005         19.9670620    
   23.1499996         18.9055862    
   23.2800007         17.8646736    
   23.4099998         16.8512611    
   23.5400009         15.8718510    
   23.6700001         14.9328985    
   23.7999992         14.0406942    
   23.9300003         13.2008657    
   24.0599995         12.4178381    
   24.1900005         11.6951780    
   24.3199997         11.0359325    
   24.4500008         10.4427757    
   24.5799999         9.91801071    
   24.7099991         9.46203613    
   24.8400002         9.07283401    
   24.9699993         8.74880600    
   25.1000004         8.48960114    
   25.2299995         8.29375744    
   25.3600006         8.15900326    
   25.4899998         8.08247185    
   25.6200008         8.05794334    
   25.7500000         8.07806969    
   25.8799992         8.13988781    
   26.0100002         8.24201870    
   26.1399994         8.37912083    
   26.2700005         8.54476833    
   26.3999996         8.73466492    
   26.5300007         8.94361687    
   26.6599998         9.16543293    
   26.7900009         9.39630318    
   26.9200001         9.63367844    
   27.0499992         9.87432671    
   27.1800003         10.1152668    
   27.3099995         10.3528719    
   27.4400005         10.5825348    
   27.5699997         10.8018236    
   27.7000008         11.0105686    
   27.8299999         11.2081165    
   27.9599991         11.3937101    
   28.0900002         11.5665188    
   28.2199993         11.7244635    
   28.3500004         11.8666048    
   28.4799995         11.9943161    
   28.6100006         12.1083698    
   28.7399998         12.2087011    
   28.8700008         12.2959490    
   29.0000000         12.3706532    
   29.1299992         12.4334459    
   29.2600002         12.4855261    
   29.3899994         12.5277176    
   29.5200005         12.5610456    
   29.6499996         12.5863581    
   29.7800007         12.6030283    
   29.9099998         12.6121054    
   30.0400009         12.6171341    
   30.1700001         12.6189451    
   30.2999992         12.6163101    
   30.4300003         12.6100321    
   30.5599995         12.6000185    
   30.6900005         12.5851049    
   30.8199997         12.5681620    
   30.9500008         12.5526323    
   31.0799999         12.5373392    
   31.2099991         12.5207739    
   31.3400002         12.5031672    
   31.4699993         12.4836102    
   31.6000004         12.4626341    
   31.7299995         12.4436359    
   31.8600006         12.4274225    
   31.9899998         12.4112291    
   32.1199989         12.3937426    
   32.2500000         12.3761444    
   32.3800011         12.3594790    
   32.5099983         12.3438606    
   32.6399994         12.3291016    
   32.7700005         12.3149786    
   32.9000015         12.3012514    
   33.0299988         12.2878456    
   33.1599998         12.2752590    
   33.2900009         12.2642097    
   33.4199982         12.2543039    
   33.5499992         12.2439785    
   33.6800003         12.2328587    
   33.8100014         12.2226210    
   33.9399986         12.2140083    
   34.0699997         12.2058697    
   34.2000008         12.1982136    
   34.3300018         12.1918440    
   34.4599991         12.1855736    
   34.5900002         12.1783047    
   34.7200012         12.1710529    
   34.8499985         12.1644659    
   34.9799995         12.1586237    
   35.1100006         12.1543026    
   35.2400017         12.1510868    
   35.3699989         12.1474161    
   35.5000000         12.1427069    
   35.6300011         12.1370897    
   35.7599983         12.1317701    
   35.8899994         12.1285839    
   36.0200005         12.1266823    
   36.1500015         12.1243000    
   36.2799988         12.1221924    
   36.4099998         12.1199932    
   36.5400009         12.1160173    
   36.6699982         12.1125364    
   36.7999992         12.1117287    
   36.9300003         12.1107178    
   37.0600014         12.1082335    
   37.1899986         12.1067915    
   37.3199997         12.1062107    
   37.4500008         12.1051512    
   37.5800018         12.1047916    
   37.7099991         12.1047602    
   37.8400002         12.1034584    
   37.9700012         12.1025858    
   38.0999985         12.1035604    
   38.2299995         12.1042500    
   38.3600006         12.1037083    
   38.4900017         12.1037207    
   38.6199989         12.1050282    
   38.7500000         12.1067381    
   38.8800011         12.1077156    
   39.0099983         12.1074085    
   39.1399994         12.1072531    
   39.2700005         12.1091146    
   39.4000015         12.1121292    
   39.5299988         12.1145296    
   39.6599998         12.1162319    
   39.7900009         12.1171246    
   39.9199982         12.1172380    
   40.0499992         12.1184978    
   40.1800003         12.1218109    
   40.3100014         12.1252785    
   40.4399986         12.1277924    
   40.5699997         12.1298885    
   40.7000008         12.1313782    
   40.8300018         12.1323690    
   40.9599991         12.1343527    
   41.0900002         12.1380587    
   41.2200012         12.1423311    
   41.3499985         12.1454391    
   41.4799995         12.1470051    
   41.6100006         12.1485701    
   41.7400017         12.1512117    
   41.8699989         12.1541996    
   42.0000000         12.1570330    
   42.1300011         12.1599674    
   42.2599983         12.1630249    
   42.3899994         12.1663713    
   42.5200005         12.1696911    
   42.6500015         12.1720009    
   42.7799988         12.1736345    
   42.9099998         12.1754923    
   43.0400009         12.1777029    
   43.1699982         12.1810980    
   43.2999992         12.1855812    
   43.4300003         12.1887674    
   43.5600014         12.1904573    
   43.6899986         12.1923771    
   43.8199997         12.1936455    
   43.9500008         12.1940746    
   44.0800018         12.1963282    
   44.2099991         12.2004728    
   44.3400002         12.2041931    
   44.4700012         12.2066288    
   44.5999985         12.2072287    
   44.7299995         12.2066145    
   44.8600006         12.2072029    
   44.9900017         12.2091246    
   45.1199989         12.2116852    
   45.2500000         12.2158260    
   45.3800011         12.2194090    
   45.5099983         12.2193193    
   45.6399994         12.2180481    
   45.7700005         12.2184229    
   45.9000015         12.2194920    
   46.0299988         12.2214985    
   46.1599998         12.2242126    
   46.2900009         12.2250299    
   46.4199982         12.2252922    
   46.5499992         12.2278042    
   46.6800003         12.2299309    
   46.8100014         12.2297316    
   46.9399986         12.2297649    
   47.0699997         12.2305946    
   47.2000008         12.2316389    
   47.3300018         12.2343674    
   47.4599991         12.2373638    
   47.5900002         12.2377634    
   47.7200012         12.2375832    
   47.8499985         12.2388639    
   47.9799995         12.2396278    
   48.1100006         12.2399979    
   48.2400017         12.2417326    
   48.3699989         12.2432041    
   48.5000000         12.2440186    
   48.6300011         12.2464657    
   48.7599983         12.2488976    
   48.8899994         12.2489901    
   49.0200005         12.2492142    
   49.1500015         12.2503614    
   49.2799988         12.2506781    
   49.4099998         12.2522049    
   49.5400009         12.2555113    
   49.6699982         12.2569094    
   49.7999992         12.2572889    
   49.9300003         12.2590675    
   50.0600014         12.2595301    
   50.1899986         12.2592697    
   50.3199997         12.2619162    
   50.4500008         12.2644224    
   50.5800018         12.2648211    
   50.7099991         12.2668037    
   50.8400002         12.2684927    
   50.9700012         12.2673292    
   51.0999985         12.2687359    
   51.2299995         12.2731237    
   51.3600006         12.2743359    
   51.4900017         12.2741013    
   51.6199989         12.2762814    
   51.7500000         12.2782335    
   51.8800011         12.2795916    
   52.0099983         12.2818060    
   52.1399994         12.2824898    
   52.2700005         12.2827482    
   52.4000015         12.2860270    
   52.5299988         12.2895041    
   52.6599998         12.2906675    
   52.7900009         12.2917948    
   52.9199982         12.2928867    
   53.0499992         12.2934923    
   53.1800003         12.2959957    
   53.3100014         12.2994986    
   53.4399986         12.3014364    
   53.5699997         12.3033047    
   53.7000008         12.3055801    
   53.8300018         12.3062315    
   53.9599991         12.3072081    
   54.0900002         12.3108921    
   54.2200012         12.3140936    
   54.3499985         12.3148441    
   54.4799995         12.3161774    
   54.6100006         12.3186541    
   54.7400017         12.3204975    
   54.8699989         12.3233986    
   55.0000000         12.3274031    
   55.1300011         12.3285389    
   55.2599983         12.3278399    
   55.3899994         12.3293667    
   55.5200005         12.3317156    
   55.6500015         12.3341608    
   55.7799988         12.3387232    
   55.9099998         12.3417435    
   56.0400009         12.3409004    
   56.1699982         12.3416185    
   56.2999992         12.3442392    
   56.4300003         12.3450336    
   56.5600014         12.3473520    
   56.6899986         12.3513317    
   56.8199997         12.3515234    
   56.9500008         12.3517570    
   57.0800018         12.3561001    
   57.2099991         12.3581295    
   57.3400002         12.3573132    
   57.4700012         12.3590651    
   57.5999985         12.3602848    
   57.7299995         12.3598709    
   57.8600006         12.3627911    
   57.9900017         12.3658838    
   58.1199989         12.3658266    
   58.2500000         12.3672371    
   58.3800011         12.3686180    
   58.5099983         12.3665190    
   58.6399994         12.3667364    
   58.7700005         12.3703003    
   58.9000015         12.3714828    
   59.0299988         12.3720703    
   59.1599998         12.3736725    
   59.2900009         12.3726072    
   59.4199982         12.3717127    
   59.5499992         12.3736095    
   59.6800003         12.3734522    
   59.8100014         12.3725567    
   59.9399986         12.3752012    
   60.0699997         12.3765173    
   60.2000008         12.3749352    
   60.3300018         12.3757057    
   60.4599991         12.3762493    
   60.5900002         12.3733072    
   60.7200012         12.3723793    
   60.8499985         12.3743277    
   60.9799995         12.3747139    
   61.1100006         12.3752050    
   61.2400017         12.3765554    
   61.3699989         12.3753071    
   61.5000000         12.3734312    
   61.6300011         12.3733187    
   61.7599983         12.3722591    
   61.8899994         12.3715200    
   62.0200005         12.3736467    
   62.1500015         12.3747339    
   62.2799988         12.3736172    
   62.4099998         12.3738232    
   62.5400009         12.3735456    
   62.6699982         12.3711672    
   62.7999992         12.3710327    
   62.9300003         12.3730803    
   63.0600014         12.3731365    
   63.1899986         12.3726816    
   63.3199997         12.3736734    
   63.4500008         12.3737230    
   63.5800018         12.3729181    
   63.7099991         12.3731432    
   63.8400002         12.3733263    
   63.9700012         12.3731785    
   64.0999985         12.3739309    
   64.2300034         12.3747311    
   64.3600006         12.3751240    
   64.4899979         12.3761320    
   64.6200027         12.3768263    
   64.7500000         12.3763142    
   64.8799973         12.3761616    
   65.0100021         12.3766308    
   65.1399994         12.3765612    
   65.2699966         12.3772249    
   65.4000015         12.3793430    
   65.5299988         12.3800936    
   65.6600037         12.3792191    
   65.7900009         12.3800907    
   65.9199982         12.3814602    
   66.0500031         12.3799801    
   66.1800003         12.3789902    
   66.3099976         12.3813410    
   66.4400024         12.3826523    
   66.5699997         12.3818016    
   66.6999969         12.3826494    
   66.8300018         12.3837614    
   66.9599991         12.3829775    
   67.0899963         12.3832588    
   67.2200012         12.3844147    
   67.3499985         12.3840761    
   67.4800034         12.3843384    
   67.6100006         12.3854752    
   67.7399979         12.3853712    
   67.8700027         12.3856468    
   68.0000000         12.3859034    
   68.1299973         12.3841200    
   68.2600021         12.3843060    
   68.3899994         12.3872128    
   68.5199966         12.3871374    
   68.6500015         12.3858728    
   68.7799988         12.3873806    
   68.9100037         12.3872147    
   69.0400009         12.3851824    
   69.1699982         12.3863249    
   69.3000031         12.3874903    
   69.4300003         12.3860102    
   69.5599976         12.3861780    
   69.6900024         12.3869171    
   69.8199997         12.3855791    
   69.9499969         12.3858824    
   70.0800018         12.3872480    
   70.2099991         12.3859520    
   70.3399963         12.3851233    
   70.4700012         12.3860836    
   70.5999985         12.3855934    
   70.7300034         12.3855677    
   70.8600006         12.3870583    
   70.9899979         12.3858213    
   71.1200027         12.3830843    
   71.2500000         12.3829575    
   71.3799973         12.3837299    
   71.5100021         12.3841743    
   71.6399994         12.3851795    
   71.7699966         12.3846560    
   71.9000015         12.3826828    
   72.0299988         12.3822269    
   72.1600037         12.3822985    
   72.2900009         12.3817911    
   72.4199982         12.3825445    
   72.5500031         12.3831673    
   72.6800003         12.3816290    
   72.8099976         12.3805494    
   72.9400024         12.3811951    
   73.0699997         12.3812885    
   73.1999969         12.3807373    
   73.3300018         12.3806639    
   73.4599991         12.3804007    
   73.5899963         12.3798285    
   73.7200012         12.3795691    
   73.8499985         12.3793364    
   73.9800034         12.3791819    
   74.1100006         12.3794422    
   74.2399979         12.3794394    
   74.3700027         12.3789196    
   74.5000000         12.3788757    
   74.6299973         12.3795261    
   74.7600021         12.3798275    
   74.8899994         12.3795719    
   75.0199966         12.3795471    
   75.1500015         12.3796711    
   75.2799988         12.3797054    
   75.4100037         12.3805971    
   75.5400009         12.3819752    
   75.6699982         12.3819504    
   75.8000031         12.3813591    
   75.9300003         12.3821926    
   76.0599976         12.3832645    
   76.1900024         12.3837023    
   76.3199997         12.3849630    
   76.4499969         12.3864174    
   76.5800018         12.3868961    
   76.7099991         12.3876915    
   76.8399963         12.3884783    
   76.9700012         12.3884563    
   77.0999985         12.3903561    
   77.2300034         12.3941374    
   77.3600006         12.3954363    
   77.4899979         12.3947020    
   77.6200027         12.3954372    
   77.7500000         12.3969469    
   77.8799973         12.3984795    
   78.0100021         12.4008942    
   78.1399994         12.4024954    
   78.2699966         12.4028807    
   78.4000015         12.4043579    
   78.5299988         12.4061413    
   78.6600037         12.4070168    
   78.7900009         12.4087124    
   78.9199982         12.4106293    
   79.0500031         12.4113178    
   79.1800003         12.4129066    
   79.3099976         12.4155741    
   79.4400024         12.4168911    
   79.5699997         12.4178972    
   79.6999969         12.4196510    
   79.8300018         12.4203510    
   79.9599991         12.4205837    
   80.0899963         12.4216709    
   80.2200012         12.4226208    
   80.3499985         12.4245834    
   80.4800034         12.4284191    
   80.6100006         12.4301386    
   80.7399979         12.4285831    
   80.8700027         12.4280729    
   81.0000000         12.4297800    
   81.1299973         12.4319601    
   81.2600021         12.4342718    
   81.3899994         12.4350042    
   81.5199966         12.4336214    
   81.6500015         12.4341593    
   81.7799988         12.4372234    
   81.9100037         12.4386129    
   82.0400009         12.4386721    
   82.1699982         12.4397163    
   82.3000031         12.4396658    
   82.4300003         12.4386129    
   82.5599976         12.4400511    
   82.6900024         12.4426107    
   82.8199997         12.4434137    
   82.9499969         12.4441404    
   83.0800018         12.4449949    
   83.2099991         12.4437609    
   83.3399963         12.4426155    
   83.4700012         12.4444408    
   83.5999985         12.4470129    
   83.7300034         12.4479542    
   83.8600006         12.4477806    
   83.9899979         12.4472036    
   84.1200027         12.4472618    
   84.2500000         12.4484587    
   84.3799973         12.4491291    
   84.5100021         12.4488974    
   84.6399994         12.4491739    
   84.7699966         12.4494886    
   84.9000015         12.4498091    
   85.0299988         12.4517002    
   85.1600037         12.4533243    
   85.2900009         12.4522429    
   85.4199982         12.4510679    
   85.5500031         12.4516182    
   85.6800003         12.4518461    
   85.8099976         12.4523478    
   85.9400024         12.4544258    
   86.0699997         12.4552574    
   86.1999969         12.4542971    
   86.3300018         12.4544735    
   86.4599991         12.4547195    
   86.5899963         12.4537449    
   86.7200012         12.4547758    
   86.8499985         12.4572220    
   86.9800034         12.4566498    
   87.1100006         12.4549294    
   87.2399979         12.4560728    
   87.3700027         12.4579678    
   87.5000000         12.4582052    
   87.6299973         12.4578400    
   87.7600021         12.4572010    
   87.8899994         12.4568062    
   88.0199966         12.4578676    
   88.1500015         12.4590731    
   88.2799988         12.4593067    
   88.4100037         12.4594860    
   88.5400009         12.4590168    
   88.6699982         12.4576931    
   88.8000031         12.4576654    
   88.9300003         12.4587994    
   89.0599976         12.4593916    
   89.1900024         12.4599514    
   89.3199997         12.4603252    
   89.4499969         12.4597082    
   89.5800018         12.4596863    
   89.7099991         12.4605856    
   89.8399963         12.4605503    
   89.9700012         12.4599924    
   90.0999985         12.4597406    
   90.2300034         12.4592161    
   90.3600006         12.4593449    
   90.4899979         12.4604473    
   90.6200027         12.4607277    
   90.7500000         12.4605122    
   90.8799973         12.4607830    
   91.0100021         12.4602814    
   91.1399994         12.4594879    
   91.2699966         12.4603205    
   91.4000015         12.4617739    
   91.5299988         12.4622326    
   91.6600037         12.4617662    
   91.7900009         12.4607344    
   91.9199982         12.4602928    
   92.0500031         12.4611158    
   92.1800003         12.4616880    
   92.3099976         12.4613962    
   92.4400024         12.4611130    
   92.5699997         12.4608688    
   92.6999969         12.4611664    
   92.8300018         12.4624376    
   92.9599991         12.4631958    
   93.0899963         12.4629259    
   93.2200012         12.4623623    
   93.3499985         12.4612331    
   93.4800034         12.4604778    
   93.6100006         12.4614124    
   93.7399979         12.4626598    
   93.8700027         12.4634361    
   94.0000000         12.4640875    
   94.1299973         12.4633541    
   94.2600021         12.4619703    
   94.3899994         12.4620018    
   94.5199966         12.4619331    
   94.6500015         12.4617996    
   94.7799988         12.4640427    
   94.9100037         12.4656038    
   95.0400009         12.4637632    
   95.1699982         12.4625444    