  -9.37500000       1.00000002E-24
  -9.26500034       1.00000002E-24
  -9.15499973       1.00000012E-24
  -9.04500008       1.00000022E-24
  -8.93500042       1.00000022E-24
  -8.82499981       1.00000022E-24
  -8.71500015       1.00000012E-24
  -8.60499954       1.00000002E-24
  -8.49499989       1.00000002E-24
  -8.38500023       9.99454917E-25
  -8.27499962       9.91174244E-25
  -8.16499996       1.01909321E-24
  -8.05500031       1.16454733E-24
  -7.94500017       6.87288309E-25
  -7.83500004      -1.33329745E-25
  -7.72499990       5.37654540E-24
  -7.61499977       7.73073747E-24
  -7.50500011      -3.66979734E-23
  -7.39499998      -4.17727219E-23
  -7.28499985       2.24998933E-22
  -7.17500019       2.42293919E-22
  -7.06500006      -1.06582565E-21
  -6.95499992      -1.15710956E-21
  -6.84499979       4.60564633E-21
  -6.73500013       5.51402756E-21
  -6.62500000      -1.83185205E-20
  -6.51499987      -2.83902119E-20
  -6.40500021       5.98231559E-20
  -6.29500008       1.37181184E-19
  -6.18499994      -1.26824146E-19
  -6.07499981      -5.33468319E-19
  -5.96500015       1.85532637E-20
  -5.85500002       1.54551201E-18
  -5.74499989       1.07633982E-18
  -5.63500023      -3.10959071E-18
  -5.52500010      -4.79322048E-18
  -5.41499996       3.51373131E-18
  -5.30499983       1.24238822E-17
  -5.19500017       1.21678175E-18
  -5.08500004      -2.23906327E-17
  -4.97499990      -1.48754404E-17
  -4.86499977       3.05327154E-17
  -4.75500011       3.86205136E-17
  -4.64499998      -3.55844265E-17
  -4.53499985      -7.94126674E-17
  -4.42500019       3.37833764E-17
  -4.31500006       1.62427144E-16
  -4.20499992       1.90251690E-17
  -4.09499979      -2.94698644E-16
  -3.98499990      -2.30733231E-16
  -3.87500000       3.57301235E-16
  -3.76500010       6.59937822E-16
  -3.65499997      -7.74929400E-17
  -3.54500008      -1.09965237E-15
  -3.43499994      -7.37304699E-16
  -3.32500005       1.07166481E-15
  -3.21499991       1.91756316E-15
  -3.10500002      -1.02126173E-16
  -2.99499989      -2.93627508E-15
  -2.88499999      -2.16559093E-15
  -2.77500010       2.75248396E-15
  -2.66499996       5.65998554E-15
  -2.55500007       5.93711651E-16
  -2.44499993      -8.19297023E-15
  -2.33500004      -8.20142616E-15
  -2.22499990       4.72410222E-15
  -2.11500001       1.58808378E-14
  -2.00500011       7.37638896E-15
  -1.89499998      -1.48416605E-14
  -1.78499997      -2.19273791E-14
  -1.67499995       1.00120438E-15
  -1.56500006       2.85109223E-14
  -1.45500004       2.16581852E-14
  -1.34500003      -1.92546191E-14
  -1.23500001      -4.57659762E-14
  -1.12500000      -1.61095993E-14
  -1.01499999       4.78079050E-14
 -0.904999971       7.26930723E-14
 -0.795000017       1.27204003E-14
 -0.685000002      -8.53464231E-14
 -0.574999988      -1.12761885E-13
 -0.465000004      -1.60392058E-14
 -0.354999989       1.20700365E-13
 -0.245000005       1.46737725E-13
 -0.135000005       1.84730889E-14
  -2.50000004E-02  -1.30453631E-13
   8.50000009E-02  -1.34119292E-13
  0.194999993       6.12167821E-15
  0.305000007       1.16911946E-13
  0.414999992       5.63114178E-14
  0.524999976      -1.12984437E-13
  0.634999990      -1.72689920E-13
  0.745000005       2.62849485E-14
  0.855000019       3.62585992E-13
  0.964999974       4.68410358E-13
   1.07500005       5.63158562E-14
   1.18499994      -6.73311396E-13
   1.29499996      -1.03671260E-12
   1.40499997      -5.02212692E-13
   1.51499999       6.25380715E-13
   1.62500000       1.37351241E-12
   1.73500001       1.11428499E-12
   1.84500003       2.34248439E-13
   1.95500004      -4.41740503E-13
   2.06500006      -7.27123440E-13
   2.17499995      -1.12258759E-12
   2.28500009      -1.72217665E-12
   2.39499998      -1.64659183E-12
   2.50500011      -1.17564378E-13
   2.61500001       2.14847367E-12
   2.72499990       3.37962644E-12
   2.83500004       2.78775180E-12
   2.94499993       1.50093338E-12
   3.05500007       9.41675123E-13
   3.16499996       8.29298056E-13
   3.27500010      -3.15307107E-13
   3.38499999      -2.98040087E-12
   3.49499989      -6.34908532E-12
   3.60500002      -1.05721482E-11
   3.71499991      -1.77642675E-11
   3.82500005      -2.91428583E-11
   3.93499994      -4.21571458E-11
   4.04500008      -5.32024598E-11
   4.15500021      -6.39963499E-11
   4.26499987      -8.27428126E-11
   4.37500000      -1.16562301E-10
   4.48500013      -1.64138342E-10
   4.59499979      -2.19260693E-10
   4.70499992      -2.82025098E-10
   4.81500006      -3.63194336E-10
   4.92500019      -4.75663731E-10
   5.03499985      -6.24570229E-10
   5.14499998      -8.09422196E-10
   5.25500011      -1.03491993E-09
   5.36499977      -1.31604150E-09
   5.47499990      -1.67254344E-09
   5.58500004      -2.12243778E-09
   5.69500017      -2.68258749E-09
   5.80499983      -3.37299366E-09
   5.91499996      -4.21864810E-09
   6.02500010      -5.24971755E-09
   6.13500023      -6.50272280E-09
   6.24499989      -8.02051137E-09
   6.35500002      -9.84912774E-09
   6.46500015      -1.20360442E-08
   6.57499981      -1.46340717E-08
   6.68499994      -1.77067161E-08
   6.79500008      -2.13275975E-08
   6.90500021      -2.55742858E-08
   7.01499987      -3.05236405E-08
   7.12500000      -3.62526862E-08
   7.23500013      -4.28425473E-08
   7.34499979      -5.03802511E-08
   7.45499992      -5.89551838E-08
   7.56500006      -6.86512678E-08
   7.67500019      -7.95413655E-08
   7.78499985      -9.16884844E-08
   7.89499998      -1.05148288E-07
   8.00500011      -1.19963403E-07
   8.11499977      -1.36151712E-07
   8.22500038      -1.53700995E-07
   8.33500004      -1.72572086E-07
   8.44499969      -1.92698565E-07
   8.55500031      -2.13976790E-07
   8.66499996      -2.36256710E-07
   8.77499962      -2.59340936E-07
   8.88500023      -2.82986093E-07
   8.99499989      -3.06899352E-07
   9.10499954      -3.30738231E-07
   9.21500015      -3.54117873E-07
   9.32499981      -3.76615048E-07
   9.43500042      -3.97762875E-07
   9.54500008      -4.17048909E-07
   9.65499973      -4.33930865E-07
   9.76500034      -4.47857872E-07
   9.87500000      -4.58280539E-07
   9.98499966      -4.64653795E-07
   10.0950003      -4.66449166E-07
   10.2049999      -4.63176946E-07
   10.3149996      -4.54403533E-07
   10.4250002      -4.39760271E-07
   10.5349998      -4.18956290E-07
   10.6450005      -3.91800171E-07
   10.7550001      -3.58219467E-07
   10.8649998      -3.18268803E-07
   10.9750004      -2.72129682E-07
   11.0850000      -2.20111744E-07
   11.1949997      -1.62659134E-07
   11.3050003      -1.00355869E-07
   11.4150000      -3.39215553E-08
   11.5249996       3.58030441E-08
   11.6350002       1.07872765E-07
   11.7449999       1.81252588E-07
   11.8549995       2.54836607E-07
   11.9650002       3.27475618E-07
   12.0749998       3.98005312E-07
   12.1850004       4.65268613E-07
   12.2950001       5.28138685E-07
   12.4049997       5.85548321E-07
   12.5150003       6.36519417E-07
   12.6250000       6.80184883E-07
   12.7349997       7.15813371E-07
   12.8450003       7.42834459E-07
   12.9549999       7.60850696E-07
   13.0649996       7.69633687E-07
   13.1750002       7.69125165E-07
   13.2849998       7.59452064E-07
   13.3950005       7.40930943E-07
   13.5050001       7.14045655E-07
   13.6149998       6.79422328E-07
   13.7250004       6.37821756E-07
   13.8350000       5.90126149E-07
   13.9449997       5.37303833E-07
   14.0550003       4.80377025E-07
   14.1650000       4.20409975E-07
   14.2749996       3.58492258E-07
   14.3850002       2.95695571E-07
   14.4949999       2.33036644E-07
   14.6049995       1.71472635E-07
   14.7150002       1.11897762E-07
   14.8249998       5.51119328E-08
   14.9350004       1.79249937E-09
   15.0450001      -4.74979132E-08
   15.1549997      -9.22984000E-08
   15.2650003      -1.32267374E-07
   15.3750000      -1.67201662E-07
   15.4849997      -1.97017812E-07
   15.5950003      -2.21722985E-07
   15.7049999      -2.41414824E-07
   15.8149996      -2.56288700E-07
   15.9250002      -2.66615984E-07
   16.0349998      -2.72714232E-07
   16.1450005      -2.74945563E-07
   16.2549992      -2.73721184E-07
   16.3649998      -2.69477027E-07
   16.4750004      -2.62643795E-07
   16.5849991      -2.53646334E-07
   16.6949997      -2.42912193E-07
   16.8050003      -2.30856458E-07
   16.9150009      -2.17860972E-07
   17.0249996      -2.04277768E-07
   17.1350002      -1.90438712E-07
   17.2450008      -1.76645685E-07
   17.3549995      -1.63158617E-07
   17.4650002      -1.50203036E-07
   17.5750008      -1.37978802E-07
   17.6849995      -1.26653973E-07
   17.7950001      -1.16362727E-07
   17.9050007      -1.07217751E-07
   18.0149994      -9.93143985E-08
   18.1250000      -9.27198442E-08
   18.2350006      -8.74735875E-08
   18.3449993      -8.36033252E-08
   18.4549999      -8.11266574E-08
   18.5650005      -8.00380491E-08
   18.6749992      -8.03120344E-08
   18.7849998      -8.19195378E-08
   18.8950005      -8.48218065E-08
   19.0049992      -8.89492782E-08
   19.1149998      -9.42055607E-08
   19.2250004      -1.00489196E-07
   19.3349991      -1.07688123E-07
   19.4449997      -1.15653933E-07
   19.5550003      -1.24202614E-07
   19.6650009      -1.33134648E-07
   19.7749996      -1.42228330E-07
   19.8850002      -1.51215829E-07
   19.9950008      -1.59789565E-07
   20.1049995      -1.67627036E-07
   20.2150002      -1.74385249E-07
   20.3250008      -1.79676505E-07
   20.4349995      -1.83078157E-07
   20.5450001      -1.84164804E-07
   20.6550007      -1.82512537E-07
   20.7649994      -1.77684356E-07
   20.8750000      -1.69245553E-07
   20.9850006      -1.56797853E-07
   21.0949993      -1.39985303E-07
   21.2049999      -1.18486177E-07
   21.3150005      -9.20365508E-08
   21.4249992      -6.04692616E-08
   21.5349998      -2.37208386E-08
   21.6450005       1.81781257E-08
   21.7549992       6.50858638E-08
   21.8649998       1.16722482E-07
   21.9750004       1.72673367E-07
   22.0849991       2.32404076E-07
   22.1949997       2.95250146E-07
   22.3050003       3.60406062E-07
   22.4150009       4.26948134E-07
   22.5249996       4.93866537E-07
   22.6350002       5.60070589E-07
   22.7450008       6.24396648E-07
   22.8549995       6.85648274E-07
   22.9650002       7.42639770E-07
   23.0750008       7.94207949E-07
   23.1849995       8.39226232E-07
   23.2950001       8.76650631E-07
   23.4050007       9.05565173E-07
   23.5149994       9.25194854E-07
   23.6250000       9.34913146E-07
   23.7350006       9.34274624E-07
   23.8449993       9.23040659E-07
   23.9549999       9.01174985E-07
   24.0650005       8.68837276E-07
   24.1749992       8.26395592E-07
   24.2849998       7.74428884E-07
   24.3950005       7.13698569E-07
   24.5049992       6.45120565E-07
   24.6149998       5.69755741E-07
   24.7250004       4.88790988E-07
   24.8349991       4.03498518E-07
   24.9449997       3.15199799E-07
   25.0550003       2.25250346E-07
   25.1650009       1.35012527E-07
   25.2749996       4.58081963E-08
   25.3850002      -4.11144505E-08
   25.4950008      -1.24591395E-07
   25.6049995      -2.03560830E-07
   25.7150002      -2.77095467E-07
   25.8250008      -3.44416947E-07
   25.9349995      -4.04888283E-07
   26.0450001      -4.58017439E-07
   26.1550007      -5.03477452E-07
   26.2649994      -5.41109443E-07
   26.3750000      -5.70901591E-07
   26.4850006      -5.92975198E-07
   26.5949993      -6.07582990E-07
   26.7049999      -6.15093484E-07
   26.8150005      -6.15959436E-07
   26.9249992      -6.10701761E-07
   27.0349998      -5.99912028E-07
   27.1450005      -5.84240468E-07
   27.2549992      -5.64362608E-07
   27.3649998      -5.40954090E-07
   27.4750004      -5.14684359E-07
   27.5849991      -4.86208137E-07
   27.6949997      -4.56146296E-07
   27.8050003      -4.25074688E-07
   27.9150009      -3.93527273E-07
   28.0249996      -3.61993045E-07
   28.1350002      -3.30900463E-07
   28.2450008      -3.00610253E-07
   28.3549995      -2.71422522E-07
   28.4650002      -2.43583344E-07
   28.5750008      -2.17281254E-07
   28.6849995      -1.92646610E-07
   28.7950001      -1.69760753E-07
   28.9050007      -1.48665109E-07
   29.0149994      -1.29363883E-07
   29.1250000      -1.11827276E-07
   29.2350006      -9.59992121E-08
   29.3449993      -8.18037975E-08
   29.4549999      -6.91483990E-08
   29.5650005      -5.79290109E-08
   29.6749992      -4.80377160E-08
   29.7849998      -3.93657231E-08
   29.8950005      -3.18028626E-08
   30.0049992      -2.52406895E-08
   30.1149998      -1.95784136E-08
   30.2250004      -1.47237760E-08
   30.3349991      -1.05900053E-08
   30.4449997      -7.09678316E-09
   30.5550003      -4.17349089E-09
   30.6650009      -1.75635706E-09
   30.7749996       2.17375007E-10
   30.8850002       1.80759763E-09
   30.9950008       3.06479730E-09
   31.1049995       4.03126910E-09
   31.2150002       4.74809969E-09
   31.3250008       5.25489385E-09
   31.4349995       5.58431967E-09
   31.5450001       5.76504799E-09
   31.6550007       5.82952620E-09
   31.7649994       5.81020432E-09
   31.8750000       5.72793102E-09
   31.9850006       5.59281110E-09
   32.0950012       5.41668932E-09
   32.2050018       5.21538412E-09
   32.3149986       4.99834929E-09
   32.4249992       4.76655737E-09
   32.5349998       4.52217463E-09
   32.6450005       4.27049729E-09
   32.7550011       4.01116340E-09
   32.8650017       3.73817066E-09
   32.9749985       3.45129680E-09
   33.0849991       3.15857274E-09
   33.1949997       2.86605584E-09
   33.3050003       2.57440913E-09
   33.4150009       2.28693953E-09
   33.5250015       2.01237427E-09
   33.6349983       1.75940940E-09
   33.7449989       1.53735957E-09
   33.8549995       1.36176104E-09
   33.9650002       1.24982835E-09
   34.0750008       1.20989152E-09
   34.1850014       1.24229327E-09
   34.2949982       1.34785394E-09
   34.4049988       1.52696933E-09
   34.5149994       1.77417225E-09
   34.6250000       2.08312989E-09
   34.7350006       2.45267806E-09
   34.8450012       2.87717628E-09
   34.9550018       3.33452022E-09
   35.0649986       3.79427734E-09
   35.1749992       4.23464908E-09
   35.2849998       4.64278216E-09
   35.3950005       5.00435027E-09
   35.5050011       5.30428057E-09
   35.6150017       5.53389645E-09
   35.7249985       5.68712943E-09
   35.8349991       5.75377390E-09
   35.9449997       5.72643799E-09
   36.0550003       5.61091573E-09
   36.1650009       5.42173062E-09
   36.2750015       5.17173770E-09
   36.3849983       4.87288254E-09
   36.4949989       4.54067983E-09
   36.6049995       4.18922808E-09
   36.7150002       3.82654974E-09
   36.8250008       3.46197937E-09
   36.9350014       3.11277915E-09
   37.0449982       2.79612355E-09
   37.1549988       2.51837773E-09
   37.2649994       2.27697505E-09
   37.3750000       2.06754303E-09
   37.4850006       1.88494664E-09
   37.5950012       1.72364023E-09
   37.7050018       1.58224034E-09
   37.8149986       1.46315693E-09
   37.9249992       1.36432143E-09
   38.0349998       1.27607036E-09
   38.1450005       1.18855870E-09
   38.2550011       1.09764431E-09
   38.3650017       1.00327802E-09
   38.4749985       9.09204101E-10
   38.5849991       8.25856217E-10
   38.6949997       7.66654407E-10
   38.8050003       7.38714756E-10
   38.9150009       7.41621597E-10
   39.0250015       7.75495834E-10
   39.1349983       8.44540271E-10
   39.2449989       9.52418366E-10
   39.3549995       1.10023979E-09
   39.4650002       1.28964872E-09
   39.5750008       1.52137880E-09
   39.6850014       1.78828563E-09
   39.7949982       2.07389239E-09
   39.9049988       2.35955588E-09
   40.0149994       2.63044830E-09
   40.1250000       2.87477264E-09
   40.2350006       3.08152970E-09
   40.3450012       3.24090621E-09
   40.4550018       3.34430150E-09
   40.5649986       3.38240569E-09
   40.6749992       3.34530337E-09
   40.7849998       3.22711968E-09
   40.8950005       3.03118664E-09
   41.0050011       2.76987722E-09
   41.1150017       2.45871545E-09
   41.2249985       2.11054041E-09
   41.3349991       1.73465597E-09
   41.4449997       1.33943845E-09
   41.5550003       9.34382571E-10
   41.6650009       5.31621802E-10
   41.7750015       1.47688223E-10
   41.8849983      -1.98814146E-10
   41.9949989      -4.95840868E-10
   42.1049995      -7.44021345E-10
   42.2150002      -9.51385859E-10
   42.3250008      -1.12367915E-09
   42.4350014      -1.26309707E-09
   42.5449982      -1.37321554E-09
   42.6549988      -1.45921519E-09
   42.7649994      -1.52513047E-09
   42.8750000      -1.57683522E-09
   42.9850006      -1.62580716E-09
   43.0950012      -1.68310732E-09
   43.2050018      -1.75025516E-09
   43.3149986      -1.82124493E-09
   43.4249992      -1.89118476E-09
   43.5349998      -1.95690930E-09
   43.6450005      -2.01234207E-09
   43.7550011      -2.05099693E-09
   43.8650017      -2.07082218E-09
   43.9749985      -2.06904049E-09
   44.0849991      -2.03454609E-09
   44.1949997      -1.95329530E-09
   44.3050003      -1.81960325E-09
   44.4150009      -1.63580627E-09
   44.5250015      -1.40479584E-09
   44.6349983      -1.13136533E-09
   44.7449989      -8.27540536E-10
   44.8549995      -5.07107523E-10
   44.9650002      -1.76488588E-10
   45.0750008       1.61227781E-10
   45.1850014       4.96019059E-10
   45.2949982       8.12809042E-10
   45.4049988       1.10071419E-09
   45.5149994       1.35266809E-09
   45.6250000       1.56005786E-09
   45.7350006       1.71743519E-09
   45.8450012       1.82983428E-09
   45.9550018       1.90611882E-09
   46.0649986       1.94744576E-09
   46.1749992       1.95118277E-09
   46.2849998       1.92334082E-09
   46.3950005       1.87737381E-09
   46.5050011       1.82257209E-09
   46.6150017       1.76274206E-09
   46.7249985       1.70372028E-09
   46.8349991       1.65141079E-09
   46.9449997       1.60277858E-09
   47.0550003       1.54832669E-09
   47.1650009       1.48364943E-09
   47.2750015       1.41039125E-09
   47.3849983       1.32670097E-09
   47.4949989       1.22565280E-09
   47.6049995       1.10299636E-09
   47.7150002       9.58181312E-10
   47.8250008       7.88155263E-10
   47.9350014       5.89090554E-10
   48.0449982       3.65395658E-10
   48.1549988       1.30168001E-10
   48.2649994      -1.02876332E-10
   48.3750000      -3.20911936E-10
   48.4850006      -5.07199227E-10
   48.5950012      -6.43745279E-10
   48.7050018      -7.18617832E-10
   48.8149986      -7.22657489E-10
   48.9249992      -6.40382247E-10
   49.0349998      -4.54344118E-10
   49.1450005      -1.59428179E-10
   49.2550011       2.35568343E-10
   49.3650017       7.19687809E-10
   49.4749985       1.28255839E-09
   49.5849991       1.90510185E-09
   49.6949997       2.55918486E-09
   49.8050003       3.21926485E-09
   49.9150009       3.86415744E-09
   50.0250015       4.46486714E-09
   50.1349983       4.98224706E-09
   50.2449989       5.38227241E-09
   50.3549995       5.64572522E-09
   50.4650002       5.76040637E-09
   50.5750008       5.71490233E-09
   50.6850014       5.50579715E-09
   50.7949982       5.14201393E-09
   50.9049988       4.63628780E-09
   51.0149994       4.00058076E-09
   51.1250000       3.25562222E-09
   51.2350006       2.43709652E-09
   51.3450012       1.58593505E-09
   51.4550018       7.37975625E-10
   51.5649986      -7.38325789E-11
   51.6749992      -8.16564760E-10
   51.7849998      -1.46398116E-09
   51.8950005      -2.00030037E-09
   52.0050011      -2.41245712E-09
   52.1150017      -2.68545186E-09
   52.2249985      -2.81108803E-09
   52.3349991      -2.79577428E-09
   52.4449997      -2.65557798E-09
   52.5550003      -2.41027176E-09
   52.6650009      -2.08605488E-09
   52.7750015      -1.71508618E-09
   52.8849983      -1.32479083E-09
   52.9949989      -9.32842581E-10
   53.1049995      -5.56996393E-10
   53.2150002      -2.21789184E-10
   53.3250008       5.10657558E-11
   53.4350014       2.52086935E-10
   53.5449982       3.78127668E-10
   53.6549988       4.25693508E-10
   53.7649994       3.98369532E-10
   53.8750000       3.13473691E-10
   53.9850006       1.91635666E-10
   54.0950012       4.45186110E-11
   54.2050018      -1.19569132E-10
   54.3149986      -2.84490154E-10
   54.4249992      -4.30553176E-10
   54.5349998      -5.45495260E-10
   54.6450005      -6.22660701E-10
   54.7550011      -6.53952337E-10
   54.8650017      -6.35435593E-10
   54.9749985      -5.76703074E-10
   55.0849991      -4.94616736E-10
   55.1949997      -3.99791034E-10
   55.3050003      -2.97267155E-10
   55.4150009      -1.96508781E-10
   55.5250015      -1.10992132E-10
   55.6349983      -5.07551536E-11
   55.7449989      -2.43741086E-11
   55.8549995      -4.45638734E-11
   55.9650002      -1.21168311E-10
   56.0750008      -2.50182181E-10
   56.1850014      -4.18185292E-10
   56.2949982      -6.14498452E-10
   56.4049988      -8.30399638E-10
   56.5149994      -1.05131071E-09
   56.6250000      -1.26102273E-09
   56.7350006      -1.45051737E-09
   56.8450012      -1.61215608E-09
   56.9550018      -1.72924564E-09
   57.0649986      -1.78334425E-09
   57.1749992      -1.76913650E-09
   57.2849998      -1.69118430E-09
   57.3950005      -1.55051050E-09
   57.5050011      -1.34757483E-09
   57.6150017      -1.09484644E-09
   57.7249985      -8.11753498E-10
   57.8349991      -5.08566578E-10
   57.9449997      -1.88698779E-10
   58.0550003       1.34845773E-10
   58.1650009       4.39636355E-10
   58.2750015       7.09965031E-10
   58.3849983       9.39807676E-10
   58.4949989       1.12132437E-09
   58.6049995       1.24548871E-09
   58.7150002       1.31507361E-09
   58.8250008       1.34317557E-09
   58.9350014       1.33697708E-09
   59.0449982       1.29493272E-09
   59.1549988       1.22076527E-09
   59.2649994       1.12784770E-09
   59.3750000       1.02846864E-09
   59.4850006       9.30386324E-10
   59.5950012       8.44552539E-10
   59.7050018       7.83495102E-10
   59.8149986       7.49346141E-10
   59.9249992       7.33821115E-10
   60.0349998       7.31745997E-10
   60.1450005       7.45025708E-10
   60.2550011       7.72871211E-10
   60.3650017       8.08498046E-10
   60.4749985       8.46072434E-10
   60.5849991       8.80474305E-10
   60.6949997       8.99653962E-10
   60.8050003       8.88387752E-10
   60.9150009       8.41806902E-10
   61.0250015       7.66148200E-10
   61.1349983       6.65708932E-10
   61.2449989       5.39307543E-10
   61.3549995       3.90219967E-10
   61.4650002       2.27998398E-10
   61.5750008       5.78267156E-11
   61.6850014      -1.21043384E-10
   61.7949982      -3.02633141E-10
   61.9049988      -4.70109118E-10
   62.0149994      -6.08925632E-10
   62.1250000      -7.15846771E-10
   62.2350006      -7.91508581E-10
   62.3450012      -8.33457470E-10
   62.4550018      -8.41655912E-10
   62.5649986      -8.22235946E-10
   62.6749992      -7.79585341E-10
   62.7849998      -7.11972981E-10
   62.8950005      -6.21364293E-10
   63.0050011      -5.21087229E-10
   63.1150017      -4.27032382E-10
   63.2249985      -3.46429024E-10
   63.3349991      -2.81017432E-10
   63.4449997      -2.35031244E-10
   63.5550003      -2.12508233E-10
   63.6650009      -2.11576340E-10
   63.7750015      -2.29283204E-10
   63.8849983      -2.68436884E-10
   63.9949989      -3.32061961E-10
   64.1050034      -4.13942269E-10
   64.2149963      -5.01565955E-10
   64.3249969      -5.85414106E-10
   64.4349976      -6.58769816E-10
   64.5449982      -7.12770620E-10
   64.6549988      -7.40790596E-10
   64.7649994      -7.45489337E-10
   64.8750000      -7.32783334E-10
   64.9850006      -7.00199232E-10
   65.0950012      -6.39300834E-10
   65.2050018      -5.48300183E-10
   65.3150024      -4.34458802E-10
   65.4250031      -3.06021403E-10
   65.5350037      -1.70604267E-10
   65.6449966      -3.98825972E-11
   65.7549973       7.43297091E-11
   65.8649979       1.69426959E-10
   65.9749985       2.49291671E-10
   66.0849991       3.12394027E-10
   66.1949997       3.50846324E-10
   66.3050003       3.60912189E-10
   66.4150009       3.45890067E-10
   66.5250015       3.09035075E-10
   66.6350021       2.52954657E-10
   66.7450027       1.86354362E-10
   66.8550034       1.21940957E-10
   66.9649963       6.61492736E-11
   67.0749969       1.88177893E-11
   67.1849976      -1.68659583E-11
   67.2949982      -3.28651273E-11
   67.4049988      -2.48746232E-11
   67.5149994       6.72946161E-12
   67.6250000       6.44996626E-11
   67.7350006       1.52067442E-10
   67.8450012       2.63197936E-10
   67.9550018       3.82684051E-10
   68.0650024       5.00303798E-10
   68.1750031       6.14708562E-10
   68.2850037       7.22319371E-10
   68.3949966       8.13465462E-10
   68.5049973       8.82611206E-10
   68.6149979       9.31475230E-10
   68.7249985       9.57603441E-10
   68.8349991       9.50390655E-10
   68.9449997       9.04422370E-10
   69.0550003       8.28000946E-10
   69.1650009       7.32849559E-10
   69.2750015       6.23944507E-10
   69.3850021       5.05332387E-10
   69.4950027       3.86962962E-10
   69.6050034       2.77950107E-10
   69.7149963       1.80003720E-10
   69.8249969       9.49327422E-11
   69.9349976       3.23142242E-11
   70.0449982       2.08498453E-12
   70.1549988       4.60661587E-12
   70.2649994       3.45948409E-11
   70.3750000       8.91876295E-11
   70.4850006       1.65049654E-10
   70.5950012       2.53066401E-10
   70.7050018       3.43921086E-10
   70.8150024       4.34922182E-10
   70.9250031       5.24425225E-10
   71.0350037       6.03891381E-10
   71.1449966       6.62451816E-10
   71.2549973       6.95136670E-10
   71.3649979       7.00250136E-10
   71.4749985       6.74192313E-10
   71.5849991       6.16834861E-10
   71.6949997       5.37082989E-10
   71.8050003       4.44579928E-10
   71.9150009       3.40069556E-10
   72.0250015       2.22144803E-10
   72.1350021       9.87554830E-11
   72.2450027      -1.72829286E-11
   72.3550034      -1.20051413E-10
   72.4649963      -2.08225728E-10
   72.5749969      -2.75394874E-10
   72.6849976      -3.14072046E-10
   72.7949982      -3.27310901E-10
   72.9049988      -3.25685229E-10
   73.0149994      -3.13945425E-10
   73.1250000      -2.90557800E-10
   73.2350006      -2.59023969E-10
   73.3450012      -2.29115144E-10
   73.4550018      -2.07170697E-10
   73.5650024      -1.95226557E-10
   73.6750031      -1.99974329E-10
   73.7850037      -2.32602840E-10
   73.8949966      -2.98103736E-10
   74.0049973      -3.92643668E-10
   74.1149979      -5.11973963E-10
   74.2249985      -6.54384824E-10
   74.3349991      -8.15131351E-10
   74.4449997      -9.86394411E-10
   74.5550003      -1.16367038E-09
   74.6650009      -1.34450739E-09
   74.7750015      -1.52042923E-09
   74.8850021      -1.67793757E-09
   74.9950027      -1.80828319E-09
   75.1050034      -1.90922678E-09
   75.2149963      -1.97789141E-09
   75.3249969      -2.01077954E-09
   75.4349976      -2.01112882E-09
   75.5449982      -1.98667038E-09
   75.6549988      -1.93829908E-09
   75.7649994      -1.85990112E-09
   75.8750000      -1.75158144E-09
   75.9850006      -1.62434133E-09
   76.0950012      -1.48917512E-09
   76.2050018      -1.35025213E-09
   76.3150024      -1.21140653E-09
   76.4250031      -1.07924902E-09
   76.5350037      -9.54660573E-10
   76.6449966      -8.29712354E-10
   76.7549973      -6.98867686E-10
   76.8649979      -5.66178548E-10
   76.9749985      -4.36180148E-10
   77.0849991      -3.04950176E-10
   77.1949997      -1.65873856E-10
   77.3050003      -1.70799694E-11
   77.4150009       1.42998363E-10
   77.5250015       3.19954480E-10
   77.6350021       5.15374521E-10
   77.7450027       7.20083659E-10
   77.8550034       9.22819321E-10
   77.9649963       1.12051213E-09
   78.0749969       1.31303068E-09
   78.1849976       1.49357759E-09
   78.2949982       1.65238123E-09
   78.4049988       1.78455473E-09
   78.5149994       1.88551641E-09
   78.6250000       1.94356642E-09
   78.7350006       1.94719219E-09
   78.8450012       1.89732119E-09
   78.9550018       1.80403603E-09
   79.0650024       1.67442382E-09
   79.1750031       1.51239399E-09
   79.2850037       1.32703171E-09
   79.3949966       1.13106435E-09
   79.5049973       9.32887212E-10
   79.6149979       7.39658057E-10
   79.7249985       5.66968472E-10
   79.8349991       4.35851522E-10
   79.9449997       3.60034780E-10
   80.0550003       3.43478773E-10
   80.1650009       3.88478666E-10
   80.2750015       4.96852670E-10
   80.3850021       6.63654687E-10
   80.4950027       8.78755180E-10
   80.6050034       1.13496901E-09
   80.7149963       1.42648449E-09
   80.8249969       1.73905412E-09
   80.9349976       2.04961381E-09
   81.0449982       2.33600117E-09
   81.1549988       2.58024402E-09
   81.2649994       2.76394285E-09
   81.3750000       2.87027468E-09
   81.4850006       2.89201929E-09
   81.5950012       2.82975354E-09
   81.7050018       2.68133160E-09
   81.8150024       2.44128051E-09
   81.9250031       2.11171503E-09
   82.0350037       1.70587722E-09
   82.1449966       1.24000565E-09
   82.2549973       7.30545735E-10
   82.3649979       2.00838041E-10
   82.4749985      -3.19969523E-10
   82.5849991      -8.09900369E-10
   82.6949997      -1.25897315E-09
   82.8050003      -1.65755432E-09
   82.9150009      -1.98811967E-09
   83.0250015      -2.23383179E-09
   83.1350021      -2.38832976E-09
   83.2450027      -2.45197551E-09
   83.3550034      -2.42614573E-09
   83.4649963      -2.31855535E-09
   83.5749969      -2.14823292E-09
   83.6849976      -1.93687621E-09
   83.7949982      -1.69836989E-09
   83.9049988      -1.44264478E-09
   84.0149994      -1.18509957E-09
   84.1250000      -9.44681555E-10
   84.2350006      -7.35866090E-10
   84.3450012      -5.69174485E-10
   84.4550018      -4.55476434E-10
   84.5650024      -4.01128047E-10
   84.6750031      -4.00519451E-10
   84.7850037      -4.40747688E-10