  -9.37500000       1.00000002E-24
  -9.26500034       1.00000012E-24
  -9.15499973       1.00000032E-24
  -9.04500008       1.00000022E-24
  -8.93500042       1.00000002E-24
  -8.82499981       1.00000002E-24
  -8.71500015       1.00000022E-24
  -8.60499954       1.00000022E-24
  -8.49499989       1.00000022E-24
  -8.38500023      -5.51298481E-24
  -8.27499962       9.99740843E-23
  -8.16499996       7.62412797E-23
  -8.05500031      -2.26228021E-21
  -7.94500017      -1.23418286E-21
  -7.83500004       2.56954384E-20
  -7.72499990       2.30756023E-20
  -7.61499977      -1.87218283E-19
  -7.50500011      -2.79142386E-19
  -7.39499998       8.84791881E-19
  -7.28499985       2.11173668E-18
  -7.17500019      -2.35052429E-18
  -7.06500006      -1.04951816E-17
  -6.95499992       3.03089497E-19
  -6.84499979       3.54187456E-17
  -6.73500013       2.62827590E-17
  -6.62500000      -8.00841594E-17
  -6.51499987      -1.25677362E-16
  -6.40500021       1.05953326E-16
  -6.29500008       3.48057829E-16
  -6.18499994      -9.14722626E-18
  -6.07499981      -6.76399960E-16
  -5.96500015      -3.17281760E-16
  -5.85500002       1.01935354E-15
  -5.74499989       8.76778627E-16
  -5.63500023      -1.37603117E-15
  -5.52500010      -1.65565877E-15
  -5.41499996       1.97760382E-15
  -5.30499983       2.94325187E-15
  -5.19500017      -3.10568781E-15
  -5.08500004      -5.50997897E-15
  -4.97499990       4.86648846E-15
  -4.86499977       1.08360705E-14
  -4.75500011      -6.87921577E-15
  -4.64499998      -2.20693113E-14
  -4.53499985       5.79807563E-15
  -4.42500019       4.29984180E-14
  -4.31500006       9.20816886E-15
  -4.20499992      -6.91867286E-14
  -4.09499979      -5.28913935E-14
  -3.98499990       7.62890185E-14
  -3.87500000       1.21691868E-13
  -3.76500010      -2.99311391E-14
  -3.65499997      -1.70501078E-13
  -3.54500008      -6.86923459E-14
  -3.43499994       1.35409953E-13
  -3.32500005       1.43607186E-13
  -3.21499991      -1.65073372E-14
  -3.10500002      -9.25289915E-14
  -2.99499989      -6.73369916E-14
  -2.88499999      -7.69877326E-14
  -2.77500010      -2.12068014E-14
  -2.66499996       1.98251707E-13
  -2.55500007       2.46826404E-13
  -2.44499993      -1.32208399E-13
  -2.33500004      -4.16510928E-13
  -2.22499990      -3.68240391E-14
  -2.11500001       4.52339473E-13
  -2.00500011       1.48466254E-13
  -1.89499998      -4.82354879E-13
  -1.78499997      -2.35099700E-13
  -1.67499995       5.79655302E-13
  -1.56500006       4.47527920E-13
  -1.45500004      -6.07718953E-13
  -1.34500003      -8.08695125E-13
  -1.23500001       3.30645044E-13
  -1.12500000       1.06621537E-12
  -1.01499999       3.27975413E-13
 -0.904999971      -7.09286796E-13
 -0.795000017      -8.22431478E-13
 -0.685000002      -3.03778243E-13
 -0.574999988       3.35739276E-13
 -0.465000004       9.45652953E-13
 -0.354999989       7.50473034E-13
 -0.245000005      -6.15594869E-13
 -0.135000005      -1.32902999E-12
  -2.50000004E-02   1.56718619E-13
   8.50000009E-02   1.62868189E-12
  0.194999993       2.53701032E-13
  0.305000007      -1.93691742E-12
  0.414999992      -1.04552001E-12
  0.524999976       1.46445616E-12
  0.634999990       1.13237859E-12
  0.745000005      -1.07525664E-12
  0.855000019      -5.04930624E-13
  0.964999974       1.96057537E-12
   1.07500005       1.28407083E-12
   1.18499994      -1.83086098E-12
   1.29499996      -2.11428206E-12
   1.40499997       3.78048626E-14
   1.51499999       7.64277489E-14
   1.62500000      -4.22019028E-13
   1.73500001       2.88006619E-12
   1.84500003       5.39409186E-12
   1.95500004      -4.60323782E-13
   2.06500006      -9.33156243E-12
   2.17499995      -9.04444488E-12
   2.28500009      -1.55520486E-12
   2.39499998      -5.41536651E-13
   2.50500011      -8.84934313E-12
   2.61500001      -1.64548167E-11
   2.72499990      -1.99662838E-11
   2.83500004      -2.53844671E-11
   2.94499993      -3.32010877E-11
   3.05500007      -4.02395721E-11
   3.16499996      -5.30781773E-11
   3.27500010      -7.92600846E-11
   3.38499999      -1.10746128E-10
   3.49499989      -1.37964612E-10
   3.60500002      -1.71600220E-10
   3.71499991      -2.26177466E-10
   3.82500005      -2.94613750E-10
   3.93499994      -3.67710973E-10
   4.04500008      -4.63430905E-10
   4.15500021      -6.03093797E-10
   4.26499987      -7.75875697E-10
   4.37500000      -9.65696634E-10
   4.48500013      -1.19478893E-09
   4.59499979      -1.49764579E-09
   4.70499992      -1.87260540E-09
   4.81500006      -2.30762542E-09
   4.92500019      -2.83155654E-09
   5.03499985      -3.48596441E-09
   5.14499998      -4.27021440E-09
   5.25500011      -5.17471177E-09
   5.36499977      -6.24426244E-09
   5.47499990      -7.54244667E-09
   5.58500004      -9.07766218E-09
   5.69500017      -1.08362466E-08
   5.80499983      -1.28649118E-08
   5.91499996      -1.52434421E-08
   6.02500010      -1.79985342E-08
   6.13500023      -2.11256062E-08
   6.24499989      -2.46737297E-08
   6.35500002      -2.87239175E-08
   6.46500015      -3.33030421E-08
   6.57499981      -3.84049343E-08
   6.68499994      -4.40756693E-08
   6.79500008      -5.03905255E-08
   6.90500021      -5.73668402E-08
   7.01499987      -6.49846825E-08
   7.12500000      -7.32670316E-08
   7.23500013      -8.22520718E-08
   7.34499979      -9.19159291E-08
   7.45499992      -1.02207892E-07
   7.56500006      -1.13123200E-07
   7.67500019      -1.24650157E-07
   7.78499985      -1.36691369E-07
   7.89499998      -1.49129605E-07
   8.00500011      -1.61914159E-07
   8.11499977      -1.74981778E-07
   8.22500038      -1.88157827E-07
   8.33500004      -2.01245896E-07
   8.44499969      -2.14143071E-07
   8.55500031      -2.26745897E-07
   8.66499996      -2.38821883E-07
   8.77499962      -2.50109309E-07
   8.88500023      -2.60467942E-07
   8.99499989      -2.69789524E-07
   9.10499954      -2.77840627E-07
   9.21500015      -2.84351813E-07
   9.32499981      -2.89190666E-07
   9.43500042      -2.92289428E-07
   9.54500008      -2.93475921E-07
   9.65499973      -2.92544598E-07
   9.76500034      -2.89432933E-07
   9.87500000      -2.84166418E-07
   9.98499966      -2.76694976E-07
   10.0950003      -2.66947978E-07
   10.2049999      -2.54990312E-07
   10.3149996      -2.40966813E-07
   10.4250002      -2.24959493E-07
   10.5349998      -2.07051045E-07
   10.6450005      -1.87457601E-07
   10.7550001      -1.66446682E-07
   10.8649998      -1.44202019E-07
   10.9750004      -1.20914891E-07
   11.0850000      -9.69125580E-08
   11.1949997      -7.25411198E-08
   11.3050003      -4.80182152E-08
   11.4150000      -2.35512356E-08
   11.5249996       5.13034448E-10
   11.6350002       2.38229028E-08
   11.7449999       4.61949625E-08
   11.8549995       6.74919534E-08
   11.9650002       8.74508714E-08
   12.0749998       1.05810820E-07
   12.1850004       1.22499557E-07
   12.2950001       1.37516764E-07
   12.4049997       1.50745961E-07
   12.5150003       1.62065476E-07
   12.6250000       1.71541075E-07
   12.7349997       1.79330925E-07
   12.8450003       1.85501932E-07
   12.9549999       1.90111763E-07
   13.0649996       1.93374433E-07
   13.1750002       1.95581080E-07
   13.2849998       1.96951532E-07
   13.3950005       1.97715792E-07
   13.5050001       1.98244805E-07
   13.6149998       1.98962525E-07
   13.7250004       2.00231028E-07
   13.8350000       2.02449158E-07
   13.9449997       2.06153288E-07
   14.0550003       2.11904009E-07
   14.1650000       2.20197521E-07
   14.2749996       2.31600026E-07
   14.3850002       2.46836350E-07
   14.4949999       2.66638324E-07
   14.6049995       2.91648689E-07
   14.7150002       3.22580405E-07
   14.8249998       3.60313294E-07
   14.9350004       4.05715298E-07
   15.0450001       4.59515491E-07
   15.1549997       5.22458322E-07
   15.2650003       5.95412644E-07
   15.3750000       6.79189725E-07
   15.4849997       7.74380112E-07
   15.5950003       8.81464473E-07
   15.7049999       1.00091484E-06
   15.8149996       1.13303588E-06
   15.9250002       1.27779845E-06
   16.0349998       1.43490126E-06
   16.1450005       1.60383854E-06
   16.2549992       1.78377513E-06
   16.3649998       1.97342138E-06
   16.4750004       2.17107549E-06
   16.5849991       2.37465588E-06
   16.6949997       2.58161094E-06
   16.8050003       2.78888342E-06
   16.9150009       2.99299791E-06
   17.0249996       3.19008313E-06
   17.1350002       3.37581218E-06
   17.2450008       3.54547069E-06
   17.3549995       3.69413510E-06
   17.4650002       3.81672771E-06
   17.5750008       3.90799323E-06
   17.6849995       3.96264886E-06
   17.7950001       3.97567374E-06
   17.9050007       3.94241579E-06
   18.0149994       3.85855583E-06
   18.1250000       3.72027671E-06
   18.2350006       3.52460256E-06
   18.3449993       3.26955046E-06
   18.4549999       2.95407290E-06
   18.5650005       2.57814122E-06
   18.6749992       2.14300849E-06
   18.7849998       1.65132030E-06
   18.8950005       1.10699534E-06
   19.0049992       5.15167642E-07
   19.1149998      -1.17718734E-07
   19.2250004      -7.83920427E-07
   19.3349991      -1.47461060E-06
   19.4449997      -2.18008950E-06
   19.5550003      -2.88989077E-06
   19.6650009      -3.59294313E-06
   19.7749996      -4.27785790E-06
   19.8850002      -4.93321750E-06
   19.9950008      -5.54780399E-06
   20.1049995      -6.11086352E-06
   20.2150002      -6.61239710E-06
   20.3250008      -7.04339391E-06
   20.4349995      -7.39603684E-06
   20.5450001      -7.66394260E-06
   20.6550007      -7.84236454E-06
   20.7649994      -7.92826813E-06
   20.8750000      -7.92035553E-06
   20.9850006      -7.81915060E-06
   21.0949993      -7.62705758E-06
   21.2049999      -7.34824425E-06
   21.3150005      -6.98843996E-06
   21.4249992      -6.55482108E-06
   21.5349998      -6.05591322E-06
   21.6450005      -5.50134564E-06
   21.7549992      -4.90149660E-06
   21.8649998      -4.26723591E-06
   21.9750004      -3.60974741E-06
   22.0849991      -2.94028087E-06
   22.1949997      -2.26980842E-06
   22.3050003      -1.60874242E-06
   22.4150009      -9.66781613E-07
   22.5249996      -3.52773185E-07
   22.6350002       2.25493537E-07
   22.7450008       7.61458978E-07
   22.8549995       1.24983796E-06
   22.9650002       1.68660381E-06
   23.0750008       2.06900427E-06
   23.1849995       2.39557789E-06
   23.2950001       2.66608436E-06
   23.4050007       2.88137358E-06
   23.5149994       3.04326295E-06
   23.6250000       3.15443344E-06
   23.7350006       3.21827770E-06
   23.8449993       3.23873951E-06
   23.9549999       3.22017377E-06
   24.0650005       3.16720934E-06
   24.1749992       3.08458561E-06
   24.2849998       2.97701922E-06
   24.3950005       2.84913426E-06
   24.5049992       2.70538430E-06
   24.6149998       2.54992165E-06
   24.7250004       2.38651637E-06
   24.8349991       2.21858136E-06
   24.9449997       2.04919365E-06
   25.0550003       1.88100796E-06
   25.1650009       1.71620400E-06
   25.2749996       1.55657676E-06
   25.3850002       1.40363261E-06
   25.4950008       1.25854547E-06
   25.6049995       1.12210307E-06
   25.7150002       9.94810080E-07
   25.8250008       8.77015395E-07
   25.9349995       7.68886878E-07
   26.0450001       6.70343638E-07
   26.1550007       5.81139091E-07
   26.2649994       5.00985834E-07
   26.3750000       4.29528967E-07
   26.4850006       3.66268893E-07
   26.5949993       3.10628536E-07
   26.7049999       2.62064731E-07
   26.8150005       2.20034806E-07
   26.9249992       1.83913158E-07
   27.0349998       1.53046614E-07
   27.1450005       1.26854530E-07
   27.2549992       1.04794779E-07
   27.3649998       8.62889493E-08
   27.4750004       7.07758048E-08
   27.5849991       5.77948782E-08
   27.6949997       4.69422723E-08
   27.8050003       3.78031686E-08
   27.9150009       3.00091187E-08
   28.0249996       2.33073951E-08
   28.1350002       1.75021029E-08
   28.2450008       1.23874058E-08
   28.3549995       7.80559084E-09
   28.4650002       3.70290976E-09
   28.5750008       5.83364329E-11
   28.6849995      -3.18092419E-09
   28.7950001      -6.03954531E-09
   28.9050007      -8.46918180E-09
   29.0149994      -1.04275797E-08
   29.1250000      -1.19346826E-08
   29.2350006      -1.30028273E-08
   29.3449993      -1.35944758E-08
   29.4549999      -1.37051162E-08
   29.5650005      -1.34105704E-08
   29.6749992      -1.27827420E-08
   29.7849998      -1.18396732E-08
   29.8950005      -1.06275388E-08
   30.0049992      -9.26740107E-09
   30.1149998      -7.86567256E-09
   30.2250004      -6.45370735E-09
   30.3349991      -5.06435782E-09
   30.4449997      -3.78957221E-09
   30.5550003      -2.70578915E-09
   30.6650009      -1.80776016E-09
   30.7749996      -1.06682796E-09
   30.8850002      -4.94407626E-10
   30.9950008      -9.83552614E-11
   31.1049995       1.71697143E-10
   31.2150002       3.87481491E-10
   31.3250008       5.87595528E-10
   31.4349995       7.93812516E-10
   31.5450001       1.04543851E-09
   31.6550007       1.38344125E-09
   31.7649994       1.82228410E-09
   31.8750000       2.35666575E-09
   31.9850006       2.97502534E-09
   32.0950012       3.65311070E-09
   32.2050018       4.35079661E-09
   32.3149986       5.02085085E-09
   32.4249992       5.60839908E-09
   32.5349998       6.04850747E-09
   32.6450005       6.28410968E-09
   32.7550011       6.28183816E-09
   32.8650017       6.01627503E-09
   32.9749985       5.45389334E-09
   33.0849991       4.57636951E-09
   33.1949997       3.40941697E-09
   33.3050003       2.00503347E-09
   33.4150009       4.04676931E-10
   33.5250015      -1.35390754E-09
   33.6349983      -3.19925908E-09
   33.7449989      -5.02655251E-09
   33.8549995      -6.74331879E-09
   33.9650002      -8.29363334E-09
   34.0750008      -9.62818003E-09
   34.1850014      -1.06746567E-08
   34.2949982      -1.13631398E-08
   34.4049988      -1.16717596E-08
   34.5149994      -1.16206476E-08
   34.6250000      -1.12226850E-08
   34.7350006      -1.04731903E-08
   34.8450012      -9.39921740E-09
   34.9550018      -8.08455169E-09
   35.0649986      -6.61916078E-09
   35.1749992      -5.04865216E-09
   35.2849998      -3.40377260E-09
   35.3950005      -1.75546111E-09
   35.5050011      -1.96853325E-10
   35.6150017       1.22118415E-09
   35.7249985       2.49602894E-09
   35.8349991       3.61732599E-09
   35.9449997       4.54722615E-09
   36.0550003       5.26679811E-09
   36.1650009       5.80740878E-09
   36.2750015       6.21629637E-09
   36.3849983       6.51198917E-09
   36.4949989       6.69306655E-09
   36.6049995       6.77745504E-09
   36.7150002       6.80928069E-09
   36.8250008       6.82332857E-09
   36.9350014       6.81719925E-09
   37.0449982       6.76887080E-09
   37.1549988       6.67290534E-09
   37.2649994       6.54058629E-09
   37.3750000       6.36274500E-09
   37.4850006       6.09502049E-09
   37.5950012       5.69422243E-09
   37.7050018       5.15254950E-09
   37.8149986       4.47821824E-09
   37.9249992       3.65813269E-09
   38.0349998       2.66603850E-09
   38.1450005       1.50346857E-09
   38.2550011       2.10386625E-10
   38.3650017      -1.16581156E-09
   38.4749985      -2.59369770E-09
   38.5849991      -4.04355571E-09
   38.6949997      -5.46042278E-09
   38.8050003      -6.76427758E-09
   38.9150009      -7.88347965E-09
   39.0250015      -8.78269724E-09
   39.1349983      -9.44428891E-09
   39.2449989      -9.82625270E-09
   39.3549995      -9.86824666E-09
   39.4650002      -9.55032764E-09
   39.5750008      -8.91221408E-09
   39.6850014      -7.99392463E-09
   39.7949982      -6.79713930E-09
   39.9049988      -5.33995914E-09
   40.0149994      -3.70884035E-09
   40.1250000      -2.00524264E-09
   40.2350006      -2.72361939E-10
   40.3450012       1.47026846E-09
   40.4550018       3.15002935E-09
   40.5649986       4.66587435E-09
   40.6749992       5.97245764E-09
   40.7849998       7.07532388E-09
   40.8950005       7.95547184E-09
   41.0050011       8.56593108E-09
   41.1150017       8.90035334E-09
   41.2249985       9.00309161E-09
   41.3349991       8.90813112E-09
   41.4449997       8.62130989E-09
   41.5550003       8.16569834E-09
   41.6650009       7.59494867E-09
   41.7750015       6.95499347E-09
   41.8849983       6.27027230E-09
   41.9949989       5.56754776E-09
   42.1049995       4.87766272E-09
   42.2150002       4.21420232E-09
   42.3250008       3.57762953E-09
   42.4350014       2.97291991E-09
   42.5449982       2.39948794E-09
   42.6549988       1.83864413E-09
   42.7649994       1.27497357E-09
   42.8750000       7.11687376E-10
   42.9850006       1.43556986E-10
   43.0950012      -4.59082994E-10
   43.2050018      -1.11435805E-09
   43.3149986      -1.80497828E-09
   43.4249992      -2.51505283E-09
   43.5349998      -3.25689276E-09
   43.6450005      -4.03034361E-09
   43.7550011      -4.78960871E-09
   43.8650017      -5.48678702E-09
   43.9749985      -6.11746609E-09
   44.0849991      -6.68491262E-09
   44.1949997      -7.14948545E-09
   44.3050003      -7.45861062E-09
   44.4150009      -7.60476482E-09
   44.5250015      -7.60881935E-09
   44.6349983      -7.46361728E-09
   44.7449989      -7.14210602E-09
   44.8549995      -6.65342403E-09
   44.9650002      -6.04495254E-09
   45.0750008      -5.34810507E-09
   45.1850014      -4.56302462E-09
   45.2949982      -3.70255981E-09
   45.4049988      -2.81278023E-09
   45.5149994      -1.93624783E-09
   45.6250000      -1.08637732E-09
   45.7350006      -2.74328643E-10
   45.8450012       4.67834993E-10
   45.9550018       1.11392473E-09
   46.0649986       1.67168457E-09
   46.1749992       2.15871698E-09
   46.2849998       2.56724486E-09
   46.3950005       2.88013391E-09
   46.5050011       3.10807269E-09
   46.6150017       3.27870064E-09
   46.7249985       3.39576522E-09
   46.8349991       3.44132878E-09
   46.9449997       3.41485240E-09
   47.0550003       3.33573280E-09
   47.1650009       3.20503335E-09
   47.2750015       2.99703440E-09
   47.3849983       2.69286971E-09
   47.4949989       2.29266317E-09
   47.6049995       1.79213422E-09
   47.7150002       1.17878951E-09
   47.8250008       4.54353333E-10
   47.9350014      -3.68652886E-10
   48.0449982      -1.29034805E-09
   48.1549988      -2.30991404E-09
   48.2649994      -3.39330564E-09
   48.3750000      -4.49076953E-09
   48.4850006      -5.57616442E-09
   48.5950012      -6.62456490E-09
   48.7050018      -7.56486163E-09
   48.8149986      -8.31208968E-09
   48.9249992      -8.83858764E-09
   49.0349998      -9.15104703E-09
   49.1450005      -9.20666121E-09
   49.2550011      -8.92820751E-09
   49.3650017      -8.30344948E-09
   49.4749985      -7.38953432E-09
   49.5849991      -6.21181684E-09
   49.6949997      -4.74640682E-09
   49.8050003      -3.02317327E-09
   49.9150009      -1.15750354E-09
   50.0250015       7.53079155E-10
   50.1349983       2.68191536E-09
   50.2449989       4.58592453E-09
   50.3549995       6.34683506E-09
   50.4650002       7.85015697E-09
   50.5750008       9.05766839E-09
   50.6850014       9.95503235E-09
   50.7949982       1.04899538E-08
   50.9049988       1.06147624E-08
   51.0149994       1.03427835E-08
   51.1250000       9.71814895E-09
   51.2350006       8.77083295E-09
   51.3450012       7.53683604E-09
   51.4550018       6.08341599E-09
   51.5649986       4.48610438E-09
   51.6749992       2.81721846E-09
   51.7849998       1.17044197E-09
   51.8950005      -3.52211676E-10
   52.0050011      -1.69253422E-09
   52.1150017      -2.82680857E-09
   52.2249985      -3.70212749E-09
   52.3349991      -4.24813607E-09
   52.4449997      -4.46067672E-09
   52.5550003      -4.39956072E-09
   52.6650009      -4.08966416E-09
   52.7750015      -3.50714657E-09
   52.8849983      -2.68644329E-09
   52.9949989      -1.75027504E-09
   53.1049995      -7.93777488E-10
   53.2150002       1.76279172E-10
   53.3250008       1.14174259E-09
   53.4350014       2.00132111E-09
   53.5449982       2.66269384E-09
   53.6549988       3.13244852E-09
   53.7649994       3.44573547E-09
   53.8750000       3.57226404E-09
   53.9850006       3.46867512E-09
   54.0950012       3.17308135E-09
   54.2050018       2.77055712E-09
   54.3149986       2.30123098E-09
   54.4249992       1.77146009E-09
   54.5349998       1.22431232E-09
   54.6450005       7.31343597E-10
   54.7550011       3.33818334E-10
   54.8650017       4.50755717E-11
   54.9749985      -1.10583750E-10
   55.0849991      -1.09117403E-10
   55.1949997       4.33186577E-11
   55.3050003       3.27812860E-10
   55.4150009       7.32011340E-10
   55.5250015       1.22117438E-09
   55.6349983       1.72913661E-09
   55.7449989       2.21234564E-09
   55.8549995       2.66945177E-09
   55.9650002       3.07471959E-09
   56.0750008       3.34910988E-09
   56.1850014       3.44194007E-09
   56.2949982       3.38189055E-09
   56.4049988       3.19573612E-09
   56.5149994       2.84208146E-09
   56.6250000       2.29207875E-09
   56.7350006       1.61334734E-09
   56.8450012       8.94758434E-10
   56.9550018       1.41905723E-10
   57.0649986      -6.67286504E-10
   57.1749992      -1.47153245E-09
   57.2849998      -2.16650142E-09
   57.3950005      -2.72323075E-09
   57.5050011      -3.17320747E-09
   57.6150017      -3.50126328E-09
   57.7249985      -3.64890074E-09
   57.8349991      -3.61206109E-09
   57.9449997      -3.44711681E-09
   58.0550003      -3.18401794E-09
   58.1650009      -2.81231527E-09
   58.2750015      -2.35062747E-09
   58.3849983      -1.85771609E-09
   58.4949989      -1.37542500E-09
   58.6049995      -9.22131649E-10
   58.7150002      -5.34317035E-10
   58.8250008      -2.53846916E-10
   58.9350014      -8.36472350E-11
   59.0449982      -1.00276107E-11
   59.1549988      -4.90172659E-11
   59.2649994      -2.13795842E-10
   59.3750000      -4.63051014E-10
   59.4850006      -7.44638018E-10
   59.5950012      -1.06098985E-09
   59.7050018      -1.42322742E-09
   59.8149986      -1.77405823E-09
   59.9249992      -2.03600248E-09
   60.0349998      -2.20831331E-09
   60.1450005      -2.33178632E-09
   60.2550011      -2.38297426E-09
   60.3650017      -2.29694552E-09
   60.4749985      -2.07988249E-09
   60.5849991      -1.80262449E-09
   60.6949997      -1.48746293E-09
   60.8050003      -1.09777376E-09
   60.9150009      -6.44945763E-10
   61.0250015      -2.11028653E-10
   61.1349983       1.52112434E-10
   61.2449989       4.62283906E-10
   61.3549995       7.26647464E-10
   61.4650002       9.01758834E-10
   61.5750008       9.60001301E-10
   61.6850014       9.26923149E-10
   61.7949982       8.25749857E-10
   61.9049988       6.45087539E-10
   62.0149994       3.86458809E-10
   62.1250000       9.03359609E-11
   62.2350006      -2.06354961E-10
   62.3450012      -4.91220398E-10
   62.4550018      -7.41931072E-10
   62.5649986      -9.20240717E-10
   62.6749992      -1.01225506E-09
   62.7849998      -1.02787412E-09
   62.8950005      -9.54771262E-10
   63.0050011      -7.64182662E-10
   63.1150017      -4.66848837E-10
   63.2249985      -1.09181379E-10
   63.3349991       2.89352514E-10
   63.4449997       7.36732231E-10
   63.5550003       1.20360721E-09
   63.6650009       1.62401026E-09
   63.7750015       1.97149630E-09
   63.8849983       2.26940644E-09
   63.9949989       2.51207521E-09
   64.1050034       2.64422484E-09
   64.2149963       2.63933009E-09
   64.3249969       2.53197907E-09
   64.4349976       2.34754327E-09
   64.5449982       2.06569517E-09
   64.6549988       1.68507830E-09
   64.7649994       1.26189048E-09
   64.8750000       8.47094672E-10
   64.9850006       4.39550119E-10
   65.0950012       3.74381880E-11
   65.2050018      -3.15859949E-10
   65.3150024      -5.76285741E-10
   65.4250031      -7.44922346E-10
   65.5350037      -8.33836555E-10
   65.6449966      -8.28461966E-10
   65.7549973      -7.19166338E-10
   65.8649979      -5.32708044E-10
   65.9749985      -3.00302283E-10
   66.0849991      -2.81647275E-11
   66.1949997       2.74782502E-10
   66.3050003       5.75903936E-10
   66.4150009       8.49082804E-10
   66.5250015       1.09038290E-09
   66.6350021       1.28469391E-09
   66.7450027       1.39675072E-09
   66.8550034       1.41527323E-09
   66.9649963       1.36617762E-09
   67.0749969       1.26474542E-09
   67.1849976       1.09886700E-09
   67.2949982       8.78176032E-10
   67.4049988       6.51570242E-10
   67.5149994       4.51769622E-10
   67.6250000       2.68410266E-10
   67.7350006       1.01566922E-10
   67.8450012      -4.69845907E-12
   67.9550018      -1.30902520E-11
   68.0650024       6.37483330E-11
   68.1750031       2.01735600E-10
   68.2850037       4.08643508E-10
   68.3949966       6.95757785E-10
   68.5049973       1.03910847E-09
   68.6149979       1.40268630E-09
   68.7249985       1.77485815E-09
   68.8349991       2.15146789E-09
   68.9449997       2.50374077E-09
   69.0550003       2.79093326E-09
   69.1650009       2.99087000E-09
   69.2750015       3.09822701E-09
   69.3850021       3.10693449E-09
   69.4950027       3.01188874E-09
   69.6050034       2.81793744E-09
   69.7149963       2.53576138E-09
   69.8249969       2.17730367E-09
   69.9349976       1.75925907E-09
   70.0449982       1.30015743E-09
   70.1549988       8.13659251E-10
   70.2649994       3.16646070E-10
   70.3750000      -1.61076263E-10
   70.4850006      -5.92295712E-10
   70.5950012      -9.72831149E-10
   70.7050018      -1.30803102E-09
   70.8150024      -1.58566693E-09
   70.9250031      -1.78536641E-09
   71.0350037      -1.91061345E-09
   71.1449966      -1.98582861E-09
   71.2549973      -2.02230188E-09
   71.3649979      -2.01299288E-09
   71.4749985      -1.96425276E-09
   71.5849991      -1.90627514E-09
   71.6949997      -1.86134042E-09
   71.8050003      -1.82144055E-09
   71.9150009      -1.76974702E-09
   72.0250015      -1.70872660E-09
   72.1350021      -1.65197511E-09
   72.2450027      -1.59794944E-09
   72.3550034      -1.52892243E-09
   72.4649963      -1.43478163E-09
   72.5749969      -1.32288358E-09
   72.6849976      -1.19861598E-09
   72.7949982      -1.04771936E-09
   72.9049988      -8.50593151E-10
   73.0149994      -6.10385742E-10
   73.1250000      -3.52875118E-10
   73.2350006      -9.73236908E-11
   73.3450012       1.56621577E-10
   73.4550018       4.05479317E-10
   73.5650024       6.21342533E-10
   73.6750031       7.70224939E-10
   73.7850037       8.40648828E-10
   73.8949966       8.35313707E-10
   74.0049973       7.40586537E-10
   74.1149979       5.28042610E-10
   74.2249985       1.90483074E-10
   74.3349991      -2.43923576E-10
   74.4449997      -7.42788775E-10
   74.5550003      -1.29705624E-09
   74.6650009      -1.90259808E-09
   74.7750015      -2.52836596E-09
   74.8850021      -3.12458237E-09
   74.9950027      -3.65771879E-09
   75.1050034      -4.11500434E-09
   75.2149963      -4.47318538E-09
   75.3249969      -4.68756767E-09
   75.4349976      -4.72423700E-09
   75.5449982      -4.58559235E-09
   75.6549988      -4.28995595E-09
   75.7649994      -3.84168430E-09
   75.8750000      -3.24026628E-09
   75.9850006      -2.50868282E-09
   76.0950012      -1.69221159E-09
   76.2050018      -8.32713676E-10
   76.3150024       3.93936758E-11
   76.4250031       8.90210849E-10
   76.5350037       1.67553738E-09
   76.6449966       2.35234920E-09
   76.7549973       2.89107982E-09
   76.8649979       3.27850747E-09
   76.9749985       3.51221763E-09
   77.0849991       3.58856944E-09
   77.1949997       3.49847840E-09
   77.3050003       3.24575411E-09
   77.4150009       2.86453194E-09
   77.5250015       2.39978615E-09
   77.6350021       1.87590676E-09
   77.7450027       1.31080169E-09
   77.8550034       7.54558305E-10
   77.9649963       2.73989109E-10
   78.0749969      -1.05057747E-10
   78.1849976      -3.97281541E-10
   78.2949982      -5.93070315E-10
   78.4049988      -6.45063392E-10
   78.5149994      -5.36619804E-10
   78.6250000      -3.10434484E-10
   78.7350006      -2.34917381E-12
   78.8450012       4.00358358E-10
   78.9550018       8.99579689E-10
   79.0650024       1.43661139E-09
   79.1750031       1.94688599E-09
   79.2850037       2.42246911E-09
   79.3949966       2.87361246E-09
   79.5049973       3.26598837E-09
   79.6149979       3.54736485E-09
   79.7249985       3.70911368E-09
   79.8349991       3.77374709E-09
   79.9449997       3.74402509E-09
   80.0550003       3.60908059E-09
   80.1650009       3.38407369E-09
   80.2750015       3.10497184E-09
   80.3850021       2.79648971E-09
   80.4950027       2.47277065E-09
   80.6050034       2.15234830E-09
   80.7149963       1.84894855E-09
   80.8249969       1.56709978E-09
   80.9349976       1.32338818E-09
   81.0449982       1.14474985E-09
   81.1549988       1.03134834E-09
   81.2649994       9.55444057E-10
   81.3750000       9.09861131E-10
   81.4850006       9.13395970E-10
   81.5950012       9.52220858E-10
   81.7050018       9.70185154E-10
   81.8150024       9.43120471E-10
   81.9250031       9.05659658E-10
   82.0350037       8.71420103E-10
   82.1449966       7.88309196E-10
   82.2549973       6.18404938E-10
   82.3649979       4.02686690E-10
   82.4749985       1.91258315E-10
   82.5849991      -3.46557193E-11
   82.6949997      -3.05817260E-10
   82.8050003      -5.79671033E-10
   82.9150009      -7.87277910E-10
   83.0250015      -9.29869348E-10
   83.1350021      -1.05230769E-09
   83.2450027      -1.14649235E-09
   83.3550034      -1.15868248E-09
   83.4649963      -1.07792797E-09
   83.5749969      -9.43600309E-10
   83.6849976      -7.72872211E-10
   83.7949982      -5.50828050E-10
   83.9049988      -2.92284669E-10
   84.0149994      -5.05125282E-11
   84.1250000       1.39348602E-10
   84.2350006       2.73188472E-10
   84.3450012       3.36073364E-10
   84.4550018       2.98241515E-10
   84.5650024       1.50264953E-10
   84.6750031      -1.03379028E-10
   84.7850037      -4.75905926E-10