  -9.37500000       1.00000002E-24
  -9.26500034       1.00000012E-24
  -9.15499973       1.00000022E-24
  -9.04500008       1.00000012E-24
  -8.93500042       1.00000012E-24
  -8.82499981       1.00000022E-24
  -8.71500015       1.00000012E-24
  -8.60499954       1.00000012E-24
  -8.49499989       1.00000032E-24
  -8.38500023       1.00000032E-24
  -8.27499962       1.00000032E-24
  -8.16499996       9.99999921E-25
  -8.05500031       9.99994103E-25
  -7.94500017       1.00002793E-24
  -7.83500004       9.99902102E-25
  -7.72499990       9.99896679E-25
  -7.61499977       1.00217520E-24
  -7.50500011       9.97820495E-25
  -7.39499998       9.77343441E-25
  -7.28499985       1.03013668E-24
  -7.17500019       1.17722926E-24
  -7.06500006       8.09529307E-25
  -6.95499992      -1.44822487E-25
  -6.84499979       1.58523295E-24
  -6.73500013       7.04532384E-24
  -6.62500000       1.91553453E-24
  -6.51499987      -2.41067483E-23
  -6.40500021      -2.07786168E-23
  -6.29500008       7.78667876E-23
  -6.18499994       1.40119077E-22
  -6.07499981      -1.40927274E-22
  -5.96500015      -5.70456900E-22
  -5.85500002      -5.93799585E-23
  -5.74499989       1.66406899E-21
  -5.63500023       1.64818685E-21
  -5.52500010      -3.24437341E-21
  -5.41499996      -7.33066846E-21
  -5.30499983       2.36325238E-21
  -5.19500017       2.09453715E-20
  -5.08500004       1.13859327E-20
  -4.97499990      -4.19870158E-20
  -4.86499977      -6.09167145E-20
  -4.75500011       4.92049066E-20
  -4.64499998       1.77557640E-19
  -4.53499985       3.09737813E-20
  -4.42500019      -3.62670541E-19
  -4.31500006      -3.55456880E-19
  -4.20499992       4.75602899E-19
  -4.09499979       1.11758346E-18
  -3.98499990      -4.92048226E-20
  -3.87500000      -2.25827855E-18
  -3.76500010      -1.76879380E-18
  -3.65499997       2.84412612E-18
  -3.54500008       5.64834822E-18
  -3.43499994      -5.56812235E-19
  -3.32500005      -1.05169786E-17
  -3.21499991      -7.46301208E-18
  -3.10500002       1.19250501E-17
  -2.99499989       2.15107524E-17
  -2.88499999      -2.91286524E-18
  -2.77500010      -3.57586142E-17
  -2.66499996      -2.11033875E-17
  -2.55500007       3.86185250E-17
  -2.44499993       5.68354145E-17
  -2.33500004      -1.82377311E-17
  -2.22499990      -9.25474749E-17
  -2.11500001      -3.27675027E-17
  -2.00500011       1.10087899E-16
  -1.89499998       1.16257601E-16
  -1.78499997      -8.11833898E-17
  -1.67499995      -2.18915003E-16
  -1.56500006      -3.27538376E-17
  -1.45500004       2.87302167E-16
  -1.34500003       2.47475552E-16
  -1.23500001      -2.25177886E-16
  -1.12500000      -4.97820268E-16
  -1.01499999      -3.97702086E-17
 -0.904999971       6.36203853E-16
 -0.795000017       4.69341221E-16
 -0.685000002      -5.27045605E-16
 -0.574999988      -9.26531860E-16
 -0.465000004       1.17975596E-16
 -0.354999989       1.25140552E-15
 -0.245000005       5.98460223E-16
 -0.135000005      -1.22119800E-15
  -2.50000004E-02  -1.53238096E-15
   8.50000009E-02   5.00535274E-16
  0.194999993       2.23120358E-15
  0.305000007       1.01586842E-15
  0.414999992      -1.91346585E-15
  0.524999976      -2.69477963E-15
  0.634999990       2.16734833E-16
  0.745000005       3.48718001E-15
  0.855000019       2.32184458E-15
  0.964999974      -2.91053205E-15
   1.07500005      -5.09989135E-15
   1.18499994       7.72162805E-16
   1.29499996       7.84395454E-15
   1.40499997       4.07635792E-15
   1.51499999      -8.45952557E-15
   1.62500000      -1.17471273E-14
   1.73500001       2.43513481E-15
   1.84500003       1.64116394E-14
   1.95500004       1.01132371E-14
   2.06500006      -9.14518942E-15
   2.17499995      -1.75604245E-14
   2.28500009      -7.56037638E-15
   2.39499998       7.89918956E-15
   2.50500011       1.54352425E-14
   2.61500001       9.80730745E-15
   2.72499990      -5.39636686E-15
   2.83500004      -1.33203444E-14
   2.94499993      -1.70343673E-15
   3.05500007       7.63684736E-15
   3.16499996      -1.17444439E-14
   3.27500010      -2.70563787E-14
   3.38499999       1.47621292E-14
   3.49499989       6.97587468E-14
   3.60500002       3.16958103E-14
   3.71499991      -7.58730643E-14
   3.82500005      -9.22401803E-14
   3.93499994       2.06010983E-14
   4.04500008       9.24049181E-14
   4.15500021       2.90641636E-14
   4.26499987      -3.38135722E-14
   4.37500000      -5.84047386E-15
   4.48500013      -7.71113384E-15
   4.59499979      -7.78602850E-14
   4.70499992      -3.37066834E-14
   4.81500006       1.39863422E-13
   4.92500019       1.49025052E-13
   5.03499985      -7.66504780E-14
   5.14499998      -1.76807584E-13
   5.25500011      -1.73057013E-14
   5.36499977       3.19766186E-14
   5.47499990      -1.30867390E-13
   5.58500004      -4.69220034E-14
   5.69500017       3.25908761E-13
   5.80499983       2.99490169E-13
   5.91499996      -2.28017664E-13
   6.02500010      -3.15142660E-13
   6.13500023       3.20826617E-13
   6.24499989       5.53670770E-13
   6.35500002      -1.39137603E-13
   6.46500015      -6.00266419E-13
   6.57499981      -2.51068778E-13
   6.68499994      -4.11205439E-13
   6.79500008      -1.71347810E-12
   6.90500021      -2.59291742E-12
   7.01499987      -2.41492221E-12
   7.12500000      -3.31193948E-12
   7.23500013      -6.36352733E-12
   7.34499979      -9.20805012E-12
   7.45499992      -1.05795615E-11
   7.56500006      -1.34708061E-11
   7.67500019      -2.00114734E-11
   7.78499985      -2.75434502E-11
   7.89499998      -3.43713773E-11
   8.00500011      -4.44389352E-11
   8.11499977      -6.07571424E-11
   8.22500038      -7.98947089E-11
   8.33500004      -9.97814331E-11
   8.44499969      -1.26673727E-10
   8.55500031      -1.66282682E-10
   8.66499996      -2.15010898E-10
   8.77499962      -2.69685385E-10
   8.88500023      -3.38349515E-10
   8.99499989      -4.30007752E-10
   9.10499954      -5.42107526E-10
   9.21500015      -6.71885658E-10
   9.32499981      -8.31323121E-10
   9.43500042      -1.03482123E-09
   9.54500008      -1.28116517E-09
   9.65499973      -1.56652713E-09
   9.76500034      -1.90643323E-09
   9.87500000      -2.32345099E-09
   9.98499966      -2.82182477E-09
   10.0950003      -3.39864248E-09
   10.2049999      -4.07205736E-09
   10.3149996      -4.87127272E-09
   10.4250002      -5.80579451E-09
   10.5349998      -6.87454094E-09
   10.6450005      -8.09925638E-09
   10.7550001      -9.51579349E-09
   10.8649998      -1.11369634E-08
   10.9750004      -1.29593278E-08
   11.0850000      -1.50034545E-08
   11.1949997      -1.73088690E-08
   11.3050003      -1.98896952E-08
   11.4150000      -2.27357422E-08
   11.5249996      -2.58582826E-08
   11.6350002      -2.92908542E-08
   11.7449999      -3.30401875E-08
   11.8549995      -3.70808948E-08
   11.9650002      -4.14051797E-08
   12.0749998      -4.60304861E-08
   12.1850004      -5.09475200E-08
   12.2950001      -5.61076732E-08
   12.4049997      -6.14742035E-08
   12.5150003      -6.70369928E-08
   12.6250000      -7.27607841E-08
   12.7349997      -7.85674032E-08
   12.8450003      -8.43877643E-08
   12.9549999      -9.01835762E-08
   13.0649996      -9.58957216E-08
   13.1750002      -1.01419623E-07
   13.2849998      -1.06657716E-07
   13.3950005      -1.11550634E-07
   13.5050001      -1.16030009E-07
   13.6149998      -1.19985458E-07
   13.7250004      -1.23310954E-07
   13.8350000      -1.25943799E-07
   13.9449997      -1.27827178E-07
   14.0550003      -1.28874120E-07
   14.1650000      -1.29004448E-07
   14.2749996      -1.28184425E-07
   14.3850002      -1.26395889E-07
   14.4949999      -1.23599122E-07
   14.6049995      -1.19763840E-07
   14.7150002      -1.14910797E-07
   14.8249998      -1.09086265E-07
   14.9350004      -1.02318793E-07
   15.0450001      -9.46391125E-08
   15.1549997      -8.61245582E-08
   15.2650003      -7.68847102E-08
   15.3750000      -6.70154776E-08
   15.4849997      -5.66026550E-08
   15.5950003      -4.57628317E-08
   15.7049999      -3.46433566E-08
   15.8149996      -2.33797817E-08
   15.9250002      -1.20843930E-08
   16.0349998      -8.80536422E-10
   16.1450005       1.00856834E-08
   16.2549992       2.06813571E-08
   16.3649998       3.08081560E-08
   16.4750004       4.03734894E-08
   16.5849991       4.92675625E-08
   16.6949997       5.73937058E-08
   16.8050003       6.47009912E-08
   16.9150009       7.11596684E-08
   17.0249996       7.67221593E-08
   17.1350002       8.13435079E-08
   17.2450008       8.50274660E-08
   17.3549995       8.78111379E-08
   17.4650002       8.97118184E-08
   17.5750008       9.07340478E-08
   17.6849995       9.09262425E-08
   17.7950001       9.03776396E-08
   17.9050007       8.91531116E-08
   18.0149994       8.72845334E-08
   18.1250000       8.48363939E-08
   18.2350006       8.19201560E-08
   18.3449993       7.86243177E-08
   18.4549999       7.49888827E-08
   18.5650005       7.10718027E-08
   18.6749992       6.69777407E-08
   18.7849998       6.27890131E-08
   18.8950005       5.85301905E-08
   19.0049992       5.42367076E-08
   19.1149998       4.99952932E-08
   19.2250004       4.58744296E-08
   19.3349991       4.18761417E-08
   19.4449997       3.80027814E-08
   19.5550003       3.43109967E-08
   19.6650009       3.08493853E-08
   19.7749996       2.76024430E-08
   19.8850002       2.45508343E-08
   19.9950008       2.17303047E-08
   20.1049995       1.91736920E-08
   20.2150002       1.68493965E-08
   20.3250008       1.47184913E-08
   20.4349995       1.28031852E-08
   20.5450001       1.11374590E-08
   20.6550007       9.69656266E-09
   20.7649994       8.43919157E-09
   20.8750000       7.37850137E-09
   20.9850006       6.54942234E-09
   21.0949993       5.94362692E-09
   21.2049999       5.54012525E-09
   21.3150005       5.36897238E-09
   21.4249992       5.48555512E-09
   21.5349998       5.90991744E-09
   21.6450005       6.65079325E-09
   21.7549992       7.76921283E-09
   21.8649998       9.36570288E-09
   21.9750004       1.15244010E-08
   22.0849991       1.43229677E-08
   22.1949997       1.78864052E-08
   22.3050003       2.23857644E-08
   22.4150009       2.79951937E-08
   22.5249996       3.48967042E-08
   22.6350002       4.33260112E-08
   22.7450008       5.35770255E-08
   22.8549995       6.59626096E-08
   22.9650002       8.08063660E-08
   23.0750008       9.84785729E-08
   23.1849995       1.19412036E-07
   23.2950001       1.44072885E-07
   23.4050007       1.72937732E-07
   23.5149994       2.06506968E-07
   23.6250000       2.45317267E-07
   23.7350006       2.89917807E-07
   23.8449993       3.40837346E-07
   23.9549999       3.98580198E-07
   24.0650005       4.63632205E-07
   24.1749992       5.36431571E-07
   24.2849998       6.17317141E-07
   24.3950005       7.06506285E-07
   24.5049992       8.04098818E-07
   24.6149998       9.10050687E-07
   24.7250004       1.02410911E-06
   24.8349991       1.14577711E-06
   24.9449997       1.27432202E-06
   25.0550003       1.40876080E-06
   25.1650009       1.54779821E-06
   25.2749996       1.68979750E-06
   25.3850002       1.83281315E-06
   25.4950008       1.97460713E-06
   25.6049995       2.11261363E-06
   25.7150002       2.24393443E-06
   25.8250008       2.36541678E-06
   25.9349995       2.47372077E-06
   26.0450001       2.56532894E-06
   26.1550007       2.63658058E-06
   26.2649994       2.68380040E-06
   26.3750000       2.70342025E-06
   26.4850006       2.69203088E-06
   26.5949993       2.64644427E-06
   26.7049999       2.56385169E-06
   26.8150005       2.44197213E-06
   26.9249992       2.27910914E-06
   27.0349998       2.07420521E-06
   27.1450005       1.82697374E-06
   27.2549992       1.53801864E-06
   27.3649998       1.20884351E-06
   27.4750004       8.41837959E-07
   27.5849991       4.40327369E-07
   27.6949997       8.60449045E-09
   27.8050003      -4.48154367E-07
   27.9150009      -9.24012284E-07
   28.0249996      -1.41233454E-06
   28.1350002      -1.90586127E-06
   28.2450008      -2.39688393E-06
   28.3549995      -2.87746639E-06
   28.4650002      -3.33959952E-06
   28.5750008      -3.77533638E-06
   28.6849995      -4.17700812E-06
   28.7950001      -4.53745679E-06
   28.9050007      -4.85020519E-06
   29.0149994      -5.10958535E-06
   29.1250000      -5.31088699E-06
   29.2350006      -5.45051671E-06
   29.3449993      -5.52609254E-06
   29.4549999      -5.53646805E-06
   29.5650005      -5.48175785E-06
   29.6749992      -5.36335347E-06
   29.7849998      -5.18388742E-06
   29.8950005      -4.94713822E-06
   30.0049992      -4.65790754E-06
   30.1149998      -4.32190745E-06
   30.2250004      -3.94561221E-06
   30.3349991      -3.53608834E-06
   30.4449997      -3.10079645E-06
   30.5550003      -2.64740811E-06
   30.6650009      -2.18363266E-06
   30.7749996      -1.71703937E-06
   30.8850002      -1.25488441E-06
   30.9950008      -8.03953753E-07
   31.1049995      -3.70440915E-07
   31.2150002       4.01463041E-08
   31.3250008       4.23074255E-07
   31.4349995       7.74452587E-07
   31.5450001       1.09126267E-06
   31.6550007       1.37134668E-06
   31.7649994       1.61339347E-06
   31.8750000       1.81691451E-06
   31.9850006       1.98218800E-06
   32.0950012       2.11016618E-06
   32.2050018       2.20239508E-06
   32.3149986       2.26094448E-06
   32.4249992       2.28831072E-06
   32.5349998       2.28730028E-06
   32.6450005       2.26093607E-06
   32.7550011       2.21238497E-06
   32.8650017       2.14487727E-06
   32.9749985       2.06160598E-06
   33.0849991       1.96565634E-06
   33.1949997       1.85997635E-06
   33.3050003       1.74733793E-06
   33.4150009       1.63027710E-06
   33.5250015       1.51105553E-06
   33.6349983       1.39166741E-06
   33.7449989       1.27384999E-06
   33.8549995       1.15906869E-06
   33.9650002       1.04850756E-06
   34.0750008       9.43094904E-07
   34.1850014       8.43540533E-07
   34.2949982       7.50348534E-07
   34.4049988       6.63819776E-07
   34.5149994       5.84080624E-07
   34.6250000       5.11130224E-07
   34.7350006       4.44864298E-07
   34.8450012       3.85075055E-07
   34.9550018       3.31465316E-07
   35.0649986       2.83690497E-07
   35.1749992       2.41387227E-07
   35.2849998       2.04166341E-07
   35.3950005       1.71607240E-07
   35.5050011       1.43287778E-07
   35.6150017       1.18815564E-07
   35.7249985       9.78172210E-08
   35.8349991       7.99137965E-08
   35.9449997       6.47366321E-08
   36.0550003       5.19646477E-08
   36.1650009       4.13199750E-08
   36.2750015       3.25291190E-08
   36.3849983       2.53193857E-08
   36.4949989       1.94583247E-08
   36.6049995       1.47661963E-08
   36.7150002       1.10778453E-08
   36.8250008       8.21890822E-09
   36.9350014       6.03435479E-09
   37.0449982       4.41541426E-09
   37.1549988       3.27666849E-09
   37.2649994       2.52318344E-09
   37.3750000       2.06090900E-09
   37.4850006       1.82565674E-09
   37.5950012       1.77670545E-09
   37.7050018       1.86568117E-09
   37.8149986       2.03306194E-09
   37.9249992       2.23548691E-09
   38.0349998       2.45524490E-09
   38.1450005       2.67471378E-09
   38.2550011       2.85796076E-09
   38.3650017       2.97017744E-09
   38.4749985       3.00207947E-09
   38.5849991       2.95669755E-09
   38.6949997       2.82003887E-09
   38.8050003       2.56848876E-09
   38.9150009       2.20457874E-09
   39.0250015       1.75898907E-09
   39.1349983       1.25034227E-09
   39.2449989       6.70461520E-10
   39.3549995       2.31403872E-11
   39.4650002      -6.50137499E-10
   39.5750008      -1.30489475E-09
   39.6850014      -1.93053307E-09
   39.7949982      -2.52700594E-09
   39.9049988      -3.06570258E-09
   40.0149994      -3.50469453E-09
   40.1250000      -3.82948784E-09
   40.2350006      -4.04867828E-09
   40.3450012      -4.15896872E-09
   40.4550018      -4.14395762E-09
   40.5649986      -4.00275502E-09
   40.6749992      -3.75442744E-09
   40.7849998      -3.41621464E-09
   40.8950005      -2.99661496E-09
   41.0050011      -2.50660026E-09
   41.1150017      -1.96225636E-09
   41.2249985      -1.38015610E-09
   41.3349991      -7.79312892E-10
   41.4449997      -1.79218709E-10
   41.5550003       4.10352946E-10
   41.6650009       9.85544979E-10
   41.7750015       1.53179536E-09
   41.8849983       2.02859241E-09
   41.9949989       2.47190002E-09
   42.1049995       2.86870128E-09
   42.2150002       3.20783711E-09
   42.3250008       3.46372575E-09
   42.4350014       3.63092001E-09
   42.5449982       3.72310005E-09
   42.6549988       3.73405440E-09
   42.7649994       3.63482999E-09
   42.8750000       3.41619288E-09
   42.9850006       3.09762682E-09
   43.0950012       2.68600253E-09
   43.2050018       2.16336415E-09
   43.3149986       1.52770829E-09
   43.4249992       8.09688483E-10
   43.5349998       3.55489596E-11
   43.6450005      -7.91933630E-10
   43.7550011      -1.66102720E-09
   43.8650017      -2.53177834E-09
   43.9749985      -3.36513439E-09
   44.0849991      -4.14457757E-09
   44.1949997      -4.85529128E-09
   44.3050003      -5.46609469E-09
   44.4150009      -5.94566441E-09
   44.5250015      -6.27922336E-09
   44.6349983      -6.46123111E-09
   44.7449989      -6.48689769E-09
   44.8549995      -6.35604369E-09
   44.9650002      -6.07456485E-09
   45.0750008      -5.65251757E-09
   45.1850014      -5.10812859E-09
   45.2949982      -4.46624959E-09
   45.4049988      -3.74585118E-09
   45.5149994      -2.96086489E-09
   45.6250000      -2.13730189E-09
   45.7350006      -1.30934785E-09
   45.8450012      -4.92611119E-10
   45.9550018       3.14490323E-10
   46.0649986       1.09768994E-09
   46.1749992       1.82596571E-09
   46.2849998       2.49051291E-09
   46.3950005       3.10922377E-09
   46.5050011       3.68315933E-09
   46.6150017       4.18730650E-09
   46.7249985       4.61515537E-09
   46.8349991       4.98925568E-09
   46.9449997       5.31278044E-09
   47.0550003       5.55465673E-09
   47.1650009       5.69925795E-09
   47.2750015       5.76541215E-09
   47.3849983       5.75734349E-09
   47.4949989       5.64290747E-09
   47.6049995       5.40222711E-09
   47.7150002       5.05360731E-09
   47.8250008       4.60928185E-09
   47.9350014       4.04964862E-09
   48.0449982       3.36562889E-09
   48.1549988       2.58591260E-09
   48.2649994       1.73911974E-09
   48.3750000       8.27723112E-10
   48.4850006      -1.38349318E-10
   48.5950012      -1.11876342E-09
   48.7050018      -2.07420703E-09
   48.8149986      -2.98794101E-09
   48.9249992      -3.84003584E-09
   49.0349998      -4.59348293E-09
   49.1450005      -5.22104715E-09
   49.2550011      -5.71595571E-09
   49.3650017      -6.06640471E-09
   49.4749985      -6.25084695E-09
   49.5849991      -6.26607433E-09
   49.6949997      -6.12925621E-09
   49.8050003      -5.84839732E-09
   49.9150009      -5.42236966E-09
   50.0250015      -4.87046181E-09
   50.1349983      -4.22770752E-09
   50.2449989      -3.51143448E-09
   50.3549995      -2.72690737E-09
   50.4650002      -1.90257654E-09
   50.5750008      -1.08187959E-09
   50.6850014      -2.83098073E-10
   50.7949982       4.94121077E-10
   50.9049988       1.22695709E-09
   51.0149994       1.87602045E-09
   51.1250000       2.43060816E-09
   51.2350006       2.90367108E-09
   51.3450012       3.28249428E-09
   51.4550018       3.52923069E-09
   51.5649986       3.63277763E-09
   51.6749992       3.61526586E-09
   51.7849998       3.48161500E-09
   51.8950005       3.20735838E-09
   52.0050011       2.78681878E-09
   52.1150017       2.25184515E-09
   52.2249985       1.62931735E-09
   52.3349991       9.17968812E-10
   52.4449997       1.23829599E-10
   52.5550003      -7.13917980E-10
   52.6650009      -1.55009638E-09
   52.7750015      -2.36021869E-09
   52.8849983      -3.12407655E-09
   52.9949989      -3.80466325E-09
   53.1049995      -4.35886571E-09
   53.2150002      -4.75462469E-09
   53.3250008      -4.96940133E-09
   53.4350014      -4.98607067E-09
   53.5449982      -4.79624829E-09
   53.6549988      -4.39758718E-09
   53.7649994      -3.79059495E-09
   53.8750000      -2.99126102E-09
   53.9850006      -2.03902450E-09
   54.0950012      -9.75116654E-10
   54.2050018       1.76138257E-10
   54.3149986       1.38414979E-09
   54.4249992       2.58631183E-09
   54.5349998       3.71513087E-09
   54.6450005       4.73802508E-09
   54.7550011       5.63736702E-09
   54.8650017       6.36642872E-09
   54.9749985       6.86936907E-09
   55.0849991       7.13848980E-09
   55.1949997       7.20598914E-09
   55.3050003       7.08183068E-09
   55.4150009       6.74975764E-09
   55.5250015       6.22848573E-09
   55.6349983       5.58367708E-09
   55.7449989       4.86568652E-09
   55.8549995       4.08463441E-09
   55.9650002       3.26455041E-09
   56.0750008       2.47253062E-09
   56.1850014       1.76661652E-09
   56.2949982       1.15458898E-09
   56.4049988       6.31626029E-10
   56.5149994       2.22015073E-10
   56.6250000      -4.75972491E-11
   56.7350006      -1.88050797E-10
   56.8450012      -2.31710082E-10
   56.9550018      -1.98344660E-10
   57.0649986      -1.00755231E-10
   57.1749992       3.46157408E-11
   57.2849998       1.73884560E-10
   57.3950005       2.89936158E-10
   57.5050011       3.60380753E-10
   57.6150017       3.67908704E-10
   57.7249985       3.08843923E-10
   57.8349991       1.83937268E-10
   57.9449997      -1.84013828E-11
   58.0550003      -3.06413200E-10
   58.1650009      -6.57124688E-10
   58.2750015      -1.03434739E-09
   58.3849983      -1.42965528E-09
   58.4949989      -1.84972027E-09
   58.6049995      -2.26797736E-09
   58.7150002      -2.63338396E-09
   58.8250008      -2.92947089E-09
   58.9350014      -3.17912519E-09
   59.0449982      -3.38498496E-09
   59.1549988      -3.51361895E-09
   59.2649994      -3.55161545E-09
   59.3750000      -3.53011731E-09
   59.4850006      -3.47454132E-09
   59.5950012      -3.37236084E-09
   59.7050018      -3.21287907E-09
   59.8149986      -3.02074876E-09
   59.9249992      -2.82440404E-09
   60.0349998      -2.62146194E-09
   60.1450005      -2.39939801E-09
   60.2550011      -2.16589546E-09
   60.3650017      -1.93699723E-09
   60.4749985      -1.71412951E-09
   60.5849991      -1.49007329E-09
   60.6949997      -1.26300859E-09
   60.8050003      -1.03370201E-09
   60.9150009      -8.02074906E-10
   61.0250015      -5.72209113E-10
   61.1349983      -3.49102552E-10
   61.2449989      -1.32913472E-10
   61.3549995       6.87169072E-11
   61.4650002       2.30619732E-10
   61.5750008       3.32087996E-10
   61.6850014       3.78314990E-10
   61.7949982       3.76591314E-10
   61.9049988       3.05785813E-10
   62.0149994       1.40935152E-10
   62.1250000      -1.04641414E-10
   62.2350006      -3.98269279E-10
   62.3450012      -7.37759243E-10
   62.4550018      -1.13961862E-09
   62.5649986      -1.58283586E-09
   62.6749992      -2.01038630E-09
   62.7849998      -2.38877118E-09
   62.8950005      -2.72084333E-09
   63.0050011      -2.99253178E-09
   63.1150017      -3.15270610E-09
   63.2249985      -3.16208726E-09
   63.3349991      -3.02388292E-09
   63.4449997      -2.74873457E-09
   63.5550003      -2.32497066E-09
   63.6650009      -1.74541237E-09
   63.7750015      -1.03572573E-09
   63.8849983      -2.34951780E-10
   63.9949989       6.30751784E-10
   64.1050034       1.53811797E-09
   64.2149963       2.45017762E-09
   64.3249969       3.32527250E-09
   64.4349976       4.12817514E-09
   64.5449982       4.82396034E-09
   64.6549988       5.37823341E-09
   64.7649994       5.77138026E-09
   64.8750000       5.99769612E-09
   64.9850006       6.04932238E-09
   65.0950012       5.92136429E-09
   65.2050018       5.63338398E-09
   65.3150024       5.22180965E-09
   65.4250031       4.70951456E-09
   65.5350037       4.10817247E-09
   65.6449966       3.45048923E-09
   65.7549973       2.78863888E-09
   65.8649979       2.15551998E-09
   65.9749985       1.55764224E-09
   66.0849991       1.01084019E-09
   66.1949997       5.48465218E-10
   66.3050003       1.84076310E-10
   66.4150009      -1.00993713E-10
   66.5250015      -3.20874077E-10
   66.6350021      -4.68184602E-10
   66.7450027      -5.47311529E-10
   66.8550034      -5.92516869E-10
   66.9649963      -6.35792141E-10
   67.0749969      -6.84480916E-10
   67.1849976      -7.45558448E-10
   67.2949982      -8.42229342E-10
   67.4049988      -9.87743887E-10
   67.5149994      -1.16824017E-09
   67.6250000      -1.36809108E-09
   67.7350006      -1.58708813E-09
   67.8450012      -1.81701076E-09
   67.9550018      -2.02736405E-09
   68.0650024      -2.19119589E-09
   68.1750031      -2.30059571E-09
   68.2850037      -2.34195063E-09
   68.3949966      -2.28359087E-09
   68.5049973      -2.10666262E-09
   68.6149979      -1.82338622E-09
   68.7249985      -1.44719281E-09
   68.8349991      -9.71434821E-10
   68.9449997      -3.98635708E-10
   69.0550003       2.34259917E-10
   69.1650009       8.83504492E-10
   69.2750015       1.52976309E-09
   69.3850021       2.15782503E-09
   69.4950027       2.72578782E-09
   69.6050034       3.18332116E-09
   69.7149963       3.50906060E-09
   69.8249969       3.70553987E-09
   69.9349976       3.76722520E-09
   70.0449982       3.67874842E-09
   70.1549988       3.44067708E-09
   70.2649994       3.07550985E-09
   70.3750000       2.60820965E-09
   70.4850006       2.05683115E-09
   70.5950012       1.44290158E-09
   70.7050018       7.98156929E-10
   70.8150024       1.58336969E-10
   70.9250031      -4.43852538E-10
   71.0350037      -9.82184667E-10
   71.1449966      -1.44032775E-09
   71.2549973      -1.81047244E-09
   71.3649979      -2.08584727E-09
   71.4749985      -2.26079799E-09
   71.5849991      -2.34236897E-09
   71.6949997      -2.35271513E-09
   71.8050003      -2.31250374E-09
   71.9150009      -2.23065255E-09
   72.0250015      -2.11892726E-09
   72.1350021      -2.00450478E-09
   72.2450027      -1.91188132E-09
   72.3550034      -1.84013582E-09
   72.4649963      -1.77672488E-09
   72.5749969      -1.72782011E-09
   72.6849976      -1.71143144E-09
   72.7949982      -1.72152181E-09
   72.9049988      -1.72581971E-09
   73.0149994      -1.70407699E-09
   73.1250000      -1.65960246E-09
   73.2350006      -1.58206481E-09
   73.3450012      -1.43075318E-09
   73.4550018      -1.17692434E-09
   73.5650024      -8.36994196E-10
   73.6750031      -4.38556053E-10
   73.7850037       2.16333583E-11
   73.8949966       5.54005952E-10
   74.0049973       1.13126031E-09
   74.1149979       1.70453296E-09
   74.2249985       2.25183072E-09
   74.3349991       2.77297318E-09
   74.4449997       3.24439298E-09
   74.5550003       3.61775321E-09
   74.6650009       3.86337762E-09
   74.7750015       3.98197875E-09
   74.8850021       3.97268085E-09
   74.9950027       3.82117360E-09
   75.1050034       3.52417362E-09
   75.2149963       3.10033865E-09
   75.3249969       2.57378741E-09
   75.4349976       1.96742889E-09
   75.5449982       1.31188760E-09
   75.6549988       6.41673603E-10
   75.7649994      -1.57615778E-11
   75.8750000      -6.34028330E-10
   75.9850006      -1.18267129E-09
   76.0950012      -1.64517133E-09
   76.2050018      -2.02724748E-09
   76.3150024      -2.32890707E-09
   76.4250031      -2.52795584E-09
   76.5350037      -2.61351429E-09
   76.6449966      -2.61290745E-09
   76.7549973      -2.55806931E-09
   76.8649979      -2.44971043E-09
   76.9749985      -2.28701103E-09
   77.0849991      -2.10716866E-09
   77.1949997      -1.95460514E-09
   77.3050003      -1.82961368E-09
   77.4150009      -1.70859116E-09
   77.5250015      -1.59813229E-09
   77.6350021      -1.52430035E-09
   77.7450027      -1.47982582E-09
   77.8550034      -1.42770307E-09
   77.9649963      -1.35221434E-09
   78.0749969      -1.26375199E-09
   78.1849976      -1.15486154E-09
   78.2949982      -9.93087168E-10
   78.4049988      -7.62025054E-10
   78.5149994      -4.74829898E-10
   78.6250000      -1.41910192E-10
   78.7350006       2.43699755E-10
   78.8450012       6.81809997E-10
   78.9550018       1.15160625E-09
   79.0650024       1.62948144E-09
   79.1750031       2.09963780E-09
   79.2850037       2.54166110E-09
   79.3949966       2.92513946E-09
   79.5049973       3.22233284E-09
   79.6149979       3.41558848E-09
   79.7249985       3.49317086E-09
   79.8349991       3.44975892E-09
   79.9449997       3.29008487E-09
   80.0550003       3.02257530E-09
   80.1650009       2.65282440E-09
   80.2750015       2.19172924E-09
   80.3850021       1.66379088E-09
   80.4950027       1.09770315E-09
   80.6050034       5.15033016E-10
   80.7149963      -6.30307612E-11
   80.8249969      -6.06682871E-10
   80.9349976      -1.08778997E-09
   81.0449982      -1.49389967E-09
   81.1549988      -1.82153181E-09
   81.2649994      -2.06127959E-09
   81.3750000      -2.20133645E-09
   81.4850006      -2.24274221E-09
   81.5950012      -2.20049956E-09
   81.7050018      -2.09088546E-09
   81.8150024      -1.92678296E-09
   81.9250031      -1.72485926E-09
   82.0350037      -1.50728552E-09
   82.1449966      -1.29169786E-09
   82.2549973      -1.08379228E-09
   82.3649979      -8.83153661E-10
   82.4749985      -6.92988500E-10
   82.5849991      -5.19582932E-10
   82.6949997      -3.63809205E-10
   82.8050003      -2.19226567E-10
   82.9150009      -7.95905564E-11
   83.0250015       5.87658394E-11
   83.1350021       2.05799724E-10
   83.2450027       3.80940252E-10
   83.3550034       5.99090499E-10
   83.4649963       8.58863203E-10
   83.5749969       1.15306154E-09
   83.6849976       1.48337842E-09
   83.7949982       1.85182958E-09
   83.9049988       2.24358110E-09
   84.0149994       2.63433719E-09
   84.1250000       3.01108583E-09
   84.2350006       3.36767170E-09
   84.3450012       3.68247965E-09
   84.4550018       3.92260580E-09
   84.5650024       4.07321066E-09
   84.6750031       4.14203072E-09
   84.7850037       4.13042978E-09