  -10.0000000         1.00000002E-24
  -9.86999989         1.00000022E-24
  -9.73999977         1.00000012E-24
  -9.60999966         1.00000012E-24
  -9.47999954         1.00000012E-24
  -9.35000038         9.99999921E-25
  -9.22000027         1.00000041E-24
  -9.09000015         1.00000051E-24
  -8.96000004        -3.86094456E-14
  -8.82999992         1.89767852E-13
  -8.69999981         2.16584628E-12
  -8.56999969        -1.82751019E-11
  -8.43999958         2.88148776E-11
  -8.31000042         1.17943683E-10
  -8.18000031        -3.34845957E-10
  -8.05000019        -5.73532111E-10
  -7.92000008         2.02607220E-09
  -7.78999996         3.04035419E-09
  -7.65999985        -1.01152544E-08
  -7.53000021        -1.42217056E-08
  -7.40000010         4.35587388E-08
  -7.26999998         5.10204607E-08
  -7.13999987        -1.55381613E-07
  -7.01000023        -1.40203682E-07
  -6.88000011         4.49285551E-07
  -6.75000000         3.10004708E-07
  -6.61999989        -1.04404444E-06
  -6.48999977        -6.12055658E-07
  -6.36000013         1.90488845E-06
  -6.23000002         1.28094587E-06
  -6.09999990        -2.48304605E-06
  -5.96999979        -3.12569364E-06
  -5.84000015         1.24439316E-06
  -5.71000004         7.99843747E-06
  -5.57999992         4.58115528E-06
  -5.44999981        -1.87372752E-05
  -5.32000017        -1.85568988E-05
  -5.19000006         3.76557618E-05
  -5.05999994         4.36463961E-05
  -4.92999983        -6.29174756E-05
  -4.80000019        -7.97826142E-05
  -4.67000008         8.39007771E-05
  -4.53999996         1.20071949E-04
  -4.40999985        -8.08065524E-05
  -4.28000021        -1.47216997E-04
  -4.15000010         3.61261409E-05
  -4.01999998         1.38116811E-04
  -3.89000010         4.52030254E-05
  -3.75999999        -8.39648492E-05
  -3.63000011        -1.31379275E-04
  -3.50000000         8.27159874E-06
  -3.36999989         1.92494830E-04
  -3.24000001         5.58938700E-05
  -3.10999990        -2.26367207E-04
  -2.98000002        -1.19453391E-04
  -2.84999990         2.31241793E-04
  -2.72000003         2.35389627E-04
  -2.58999991        -1.70761879E-04
  -2.46000004        -4.17412288E-04
  -2.32999992         1.94566110E-05
  -2.20000005         6.08574657E-04
  -2.06999993         1.84590215E-04
  -1.94000006        -7.51484360E-04
  -1.80999994        -4.15028189E-04
  -1.67999995         7.83257128E-04
  -1.54999995         7.05998857E-04
  -1.41999996        -5.48694807E-04
  -1.28999996        -9.63341387E-04
  -1.15999997        -3.18993953E-05
  -1.02999997         8.78981547E-04
 -0.899999976         6.25056156E-04
 -0.769999981        -3.49694135E-04
 -0.639999986        -7.05617829E-04
 -0.509999990        -2.24021685E-04
 -0.379999995         2.56023748E-04
 -0.250000000         4.85085970E-04
 -0.119999997         3.12775373E-04
   9.99999978E-03    -4.56360518E-04
  0.140000001        -6.40837010E-04
  0.270000011         3.88846762E-04
  0.400000006         7.52355205E-04
  0.529999971        -2.91791570E-04
  0.660000026        -6.51923765E-04
  0.790000021         3.02058936E-04
  0.920000017         5.87163842E-04
   1.04999995        -6.27661590E-04
   1.17999995        -1.70288805E-03
   1.30999994        -1.06691988E-03
   1.44000006         2.52174767E-04
   1.57000005         2.70296077E-05
   1.70000005        -1.34464935E-03
   1.83000004        -1.98170240E-03
   1.96000004        -2.23642681E-03
   2.08999991        -2.70547811E-03
   2.22000003        -2.64267740E-03
   2.34999990        -3.21654347E-03
   2.48000002        -5.80105884E-03
   2.60999990        -8.11907928E-03
   2.74000001        -8.59333575E-03
   2.86999989        -9.63649340E-03
   3.00000000        -1.29770152E-02
   3.13000011        -1.76741630E-02
   3.25999999        -2.25677099E-02
   3.39000010        -2.72042919E-02
   3.51999998        -3.26802097E-02
   3.65000010        -4.08322737E-02
   3.77999997        -5.12781367E-02
   3.91000009        -6.29773736E-02
   4.03999996        -7.69441426E-02
   4.17000008        -9.40564126E-02
   4.30000019       -0.114292175    
   4.42999983       -0.138308778    
   4.55999994       -0.166558206    
   4.69000006       -0.199962080    
   4.82000017       -0.240664437    
   4.94999981       -0.288633734    
   5.07999992       -0.342786491    
   5.21000004       -0.405469477    
   5.34000015       -0.479168266    
   5.46999979       -0.564147830    
   5.59999990       -0.662698150    
   5.73000002       -0.776844084    
   5.86000013       -0.905015409    
   5.98999977        -1.04870772    
   6.11999989        -1.21347630    
   6.25000000        -1.40114248    
   6.38000011        -1.61133361    
   6.51000023        -1.84630978    
   6.63999987        -2.10790586    
   6.76999998        -2.39746404    
   6.90000010        -2.71842360    
   7.03000021        -3.07317090    
   7.15999985        -3.46250272    
   7.28999996        -3.88824224    
   7.42000008        -4.35149002    
   7.55000019        -4.85325193    
   7.67999983        -5.39636421    
   7.80999994        -5.98150730    
   7.94000006        -6.60763359    
   8.06999969        -7.27641869    
   8.19999981        -7.98844385    
   8.32999992        -8.74177647    
   8.46000004        -9.53708172    
   8.59000015        -10.3740673    
   8.72000027        -11.2487917    
   8.85000038        -12.1605930    
   8.97999954        -13.1094007    
   9.10999966        -14.0897560    
   9.23999977        -15.0985174    
   9.36999989        -16.1360149    
   9.50000000        -17.1972618    
   9.63000011        -18.2766094    
   9.76000023        -19.3725414    
   9.89000034        -20.4801388    
   10.0200005        -21.5930099    
   10.1499996        -22.7098217    
   10.2799997        -23.8283329    
   10.4099998        -24.9428520    
   10.5400000        -26.0492725    
   10.6700001        -27.1433907    
   10.8000002        -28.2203369    
   10.9300003        -29.2781677    
   11.0600004        -30.3160381    
   11.1899996        -31.3329182    
   11.3199997        -32.3274384    
   11.4499998        -33.2947960    
   11.5799999        -34.2316132    
   11.7100000        -35.1414413    
   11.8400002        -36.0259552    
   11.9700003        -36.8823547    
   12.1000004        -37.7131920    
   12.2299995        -38.5223579    
   12.3599997        -39.3075218    
   12.4899998        -40.0688820    
   12.6199999        -40.8130226    
   12.7500000        -41.5427856    
   12.8800001        -42.2572212    
   13.0100002        -42.9602623    
   13.1400003        -43.6582298    
   13.2700005        -44.3523636    
   13.3999996        -45.0421982    
   13.5299997        -45.7327995    
   13.6599998        -46.4297256    
   13.7900000        -47.1321983    
   13.9200001        -47.8407669    
   14.0500002        -48.5621910    
   14.1800003        -49.2987785    
   14.3100004        -50.0475235    
   14.4399996        -50.8107834    
   14.5699997        -51.5932846    
   14.6999998        -52.3945541    
   14.8299999        -53.2127838    
   14.9600000        -54.0485268    
   15.0900002        -54.9033852    
   15.2200003        -55.7774773    
   15.3500004        -56.6681709    
   15.4799995        -57.5747223    
   15.6099997        -58.4984932    
   15.7399998        -59.4348679    
   15.8699999        -60.3789406    
   16.0000000        -61.3342552    
   16.1299992        -62.3001137    
   16.2600002        -63.2679558    
   16.3899994        -64.2366180    
   16.5200005        -65.2071152    
   16.6499996        -66.1712341    
   16.7800007        -67.1245651    
   16.9099998        -68.0690460    
   17.0400009        -68.9986343    
   17.1700001        -69.9052353    
   17.2999992        -70.7885132    
   17.4300003        -71.6464539    
   17.5599995        -72.4716721    
   17.6900005        -73.2583237    
   17.8199997        -74.0032425    
   17.9500008        -74.7038574    
   18.0799999        -75.3553238    
   18.2099991        -75.9505615    
   18.3400002        -76.4866333    
   18.4699993        -76.9627533    
   18.6000004        -77.3725204    
   18.7299995        -77.7106171    
   18.8600006        -77.9779816    
   18.9899998        -78.1718216    
   19.1200008        -78.2852325    
   19.2500000        -78.3175888    
   19.3799992        -78.2714233    
   19.5100002        -78.1437531    
   19.6399994        -77.9316406    
   19.7700005        -77.6390457    
   19.8999996        -77.2686234    
   20.0300007        -76.8161392    
   20.1599998        -76.2820816    
   20.2900009        -75.6757812    
   20.4200001        -75.0009308    
   20.5499992        -74.2558365    
   20.6800003        -73.4465027    
   20.8099995        -72.5799179    
   20.9400005        -71.6570663    
   21.0699997        -70.6841354    
   21.2000008        -69.6714478    
   21.3299999        -68.6230164    
   21.4599991        -67.5415878    
   21.5900002        -66.4333649    
   21.7199993        -65.3060074    
   21.8500004        -64.1691971    
   21.9799995        -63.0284348    
   22.1100006        -61.8838387    
   22.2399998        -60.7429390    
   22.3700008        -59.6151466    
   22.5000000        -58.5005302    
   22.6299992        -57.4044151    
   22.7600002        -56.3377800    
   22.8899994        -55.2984543    
   23.0200005        -54.2842903    
   23.1499996        -53.3071938    
   23.2800007        -52.3708420    
   23.4099998        -51.4687004    
   23.5400009        -50.6050987    
   23.6700001        -49.7863655    
   23.7999992        -49.0078506    
   23.9300003        -48.2679710    
   24.0599995        -47.5718155    
   24.1900005        -46.9193268    
   24.3199997        -46.3058472    
   24.4500008        -45.7294922    
   24.5799999        -45.1919632    
   24.7099991        -44.6933365    
   24.8400002        -44.2282639    
   24.9699993        -43.7942924    
   25.1000004        -43.3955803    
   25.2299995        -43.0290985    
   25.3600006        -42.6855125    
   25.4899998        -42.3662109    
   25.6200008        -42.0761337    
   25.7500000        -41.8088875    
   25.8799992        -41.5586510    
   26.0100002        -41.3289490    
   26.1399994        -41.1190720    
   26.2700005        -40.9218826    
   26.3999996        -40.7371445    
   26.5300007        -40.5694199    
   26.6599998        -40.4156113    
   26.7900009        -40.2687187    
   26.9200001        -40.1294708    
   27.0499992        -40.0019035    
   27.1800003        -39.8834686    
   27.3099995        -39.7697525    
   27.4400005        -39.6616402    
   27.5699997        -39.5608025    
   27.7000008        -39.4652061    
   27.8299999        -39.3723030    
   27.9599991        -39.2829475    
   28.0900002        -39.1999092    
   28.2199993        -39.1214256    
   28.3500004        -39.0427246    
   28.4799995        -38.9658661    
   28.6100006        -38.8945084    
   28.7399998        -38.8236771    
   28.8700008        -38.7523003    
   29.0000000        -38.6881256    
   29.1299992        -38.6278267    
   29.2600002        -38.5618248    
   29.3899994        -38.4969292    
   29.5200005        -38.4408035    
   29.6499996        -38.3838654    
   29.7800007        -38.3224220    
   29.9099998        -38.2666321    
   30.0400009        -38.2156982    
   30.1700001        -38.1605911    
   30.2999992        -38.1049576    
   30.4300003        -38.0553894    
   30.5599995        -38.0074043    
   30.6900005        -37.9565468    
   30.8199997        -37.9062424    
   30.9500008        -37.8593788    
   31.0799999        -37.8137207    
   31.2099991        -37.7668571    
   31.3400002        -37.7209511    
   31.4699993        -37.6792145    
   31.6000004        -37.6384239    
   31.7299995        -37.5938301    
   31.8600006        -37.5497017    
   31.9899998        -37.5109253    
   32.1199989        -37.4720154    
   32.2500000        -37.4298897    
   32.3800011        -37.3914413    
   32.5099983        -37.3570518    
   32.6399994        -37.3189507    
   32.7700005        -37.2790642    
   32.9000015        -37.2443657    
   33.0299988        -37.2113152    
   33.1599998        -37.1747742    
   33.2900009        -37.1389389    
   33.4199982        -37.1072159    
   33.5499992        -37.0754967    
   33.6800003        -37.0406990    
   33.8100014        -37.0064964    
   33.9399986        -36.9770889    
   34.0699997        -36.9488564    
   34.2000008        -36.9161377    
   34.3300018        -36.8833275    
   34.4599991        -36.8559227    
   34.5900002        -36.8274193    
   34.7200012        -36.7948418    
   34.8499985        -36.7677307    
   34.9799995        -36.7450371    
   35.1100006        -36.7154465    
   35.2400017        -36.6842918    
   35.3699989        -36.6614723    
   35.5000000        -36.6375923    
   35.6300011        -36.6068916    
   35.7599983        -36.5814171    
   35.8899994        -36.5619392    
   36.0200005        -36.5367661    
   36.1500015        -36.5093918    
   36.2799988        -36.4882889    
   36.4099998        -36.4674110    
   36.5400009        -36.4423065    
   36.6699982        -36.4187279    
   36.7999992        -36.3981590    
   36.9300003        -36.3775711    
   37.0600014        -36.3562622    
   37.1899986        -36.3345184    
   37.3199997        -36.3147926    
   37.4500008        -36.2974510    
   37.5800018        -36.2767029    
   37.7099991        -36.2542229    
   37.8400002        -36.2378464    
   37.9700012        -36.2214699    
   38.0999985        -36.1982918    
   38.2299995        -36.1795883    
   38.3600006        -36.1687775    
   38.4900017        -36.1519737    
   38.6199989        -36.1299515    
   38.7500000        -36.1143723    
   38.8800011        -36.1003685    
   39.0099983        -36.0816116    
   39.1399994        -36.0652962    
   39.2700005        -36.0529518    
   39.4000015        -36.0385323    
   39.5299988        -36.0229149    
   39.6599998        -36.0084419    
   39.7900009        -35.9941406    
   39.9199982        -35.9807549    
   40.0499992        -35.9675446    
   40.1800003        -35.9534569    
   40.3100014        -35.9412727    
   40.4399986        -35.9296188    
   40.5699997        -35.9151497    
   40.7000008        -35.9034500    
   40.8300018        -35.8962479    
   40.9599991        -35.8838387    
   41.0900002        -35.8670807    
   41.2200012        -35.8570786    
   41.3499985        -35.8500710    
   41.4799995        -35.8375969    
   41.6100006        -35.8263969    
   41.7400017        -35.8199921    
   41.8699989        -35.8097343    
   42.0000000        -35.7965851    
   42.1300011        -35.7881508    
   42.2599983        -35.7805214    
   42.3899994        -35.7700500    
   42.5200005        -35.7617531    
   42.6500015        -35.7547607    
   42.7799988        -35.7449646    
   42.9099998        -35.7359161    
   43.0400009        -35.7289543    
   43.1699982        -35.7206230    
   43.2999992        -35.7123184    
   43.4300003        -35.7050552    
   43.5600014        -35.6965446    
   43.6899986        -35.6890831    
   43.8199997        -35.6836548    
   43.9500008        -35.6756783    
   44.0800018        -35.6666718    
   44.2099991        -35.6611328    
   44.3400002        -35.6553688    
   44.4700012        -35.6469841    
   44.5999985        -35.6400719    
   44.7299995        -35.6340828    
   44.8600006        -35.6266174    
   44.9900017        -35.6205826    
   45.1199989        -35.6157494    
   45.2500000        -35.6085129    
   45.3800011        -35.6011467    
   45.5099983        -35.5958328    
   45.6399994        -35.5893745    
   45.7700005        -35.5825119    
   45.9000015        -35.5783348    
   46.0299988        -35.5731888    
   46.1599998        -35.5654144    
   46.2900009        -35.5599213    
   46.4199982        -35.5552979    
   46.5499992        -35.5472450    
   46.6800003        -35.5412369    
   46.8100014        -35.5394402    
   46.9399986        -35.5336342    
   47.0699997        -35.5250359    
   47.2000008        -35.5213585    
   47.3300018        -35.5174446    
   47.4599991        -35.5090752    
   47.5900002        -35.5036545    
   47.7200012        -35.5006866    
   47.8499985        -35.4942284    
   47.9799995        -35.4886513    
   48.1100006        -35.4856339    
   48.2400017        -35.4800682    
   48.3699989        -35.4742470    
   48.5000000        -35.4696960    
   48.6300011        -35.4627914    
   48.7599983        -35.4578438    
   48.8899994        -35.4565544    
   49.0200005        -35.4509125    
   49.1500015        -35.4433670    
   49.2799988        -35.4409943    
   49.4099998        -35.4371414    
   49.5400009        -35.4293442    
   49.6699982        -35.4258347    
   49.7999992        -35.4241066    
   49.9300003        -35.4180183    
   50.0600014        -35.4126053    
   50.1899986        -35.4096794    
   50.3199997        -35.4046631    
   50.4500008        -35.3997192    
   50.5800018        -35.3976822    
   50.7099991        -35.3951035    
   50.8400002        -35.3902702    
   50.9700012        -35.3851357    
   51.0999985        -35.3809433    
   51.2299995        -35.3779030    
   51.3600006        -35.3751793    
   51.4900017        -35.3717499    
   51.6199989        -35.3683739    
   51.7500000        -35.3658485    
   51.8800011        -35.3627205    
   52.0099983        -35.3579025    
   52.1399994        -35.3544846    
   52.2700005        -35.3541183    
   52.4000015        -35.3515053    
   52.5299988        -35.3458824    
   52.6599998        -35.3445435    
   52.7900009        -35.3447113    
   52.9199982        -35.3390236    
   53.0499992        -35.3352089    
   53.1800003        -35.3371429    
   53.3100014        -35.3334503    
   53.4399986        -35.3264961    
   53.5699997        -35.3272705    
   53.7000008        -35.3278961    
   53.8300018        -35.3228798    
   53.9599991        -35.3218231    
   54.0900002        -35.3222961    
   54.2200012        -35.3172493    
   54.3499985        -35.3142090    
   54.4799995        -35.3147087    
   54.6100006        -35.3120384    
   54.7400017        -35.3101120    
   54.8699989        -35.3106842    
   55.0000000        -35.3079414    
   55.1300011        -35.3052826    
   55.2599983        -35.3058662    
   55.3899994        -35.3044052    
   55.5200005        -35.3025055    
   55.6500015        -35.3029289    
   55.7799988        -35.3000565    
   55.9099998        -35.2958565    
   56.0400009        -35.2972221    
   56.1699982        -35.2988510    
   56.2999992        -35.2960892    
   56.4300003        -35.2948837    
   56.5600014        -35.2952423    
   56.6899986        -35.2918510    
   56.8199997        -35.2889175    
   56.9500008        -35.2908440    
   57.0800018        -35.2916641    
   57.2099991        -35.2888718    
   57.3400002        -35.2881737    
   57.4700012        -35.2885056    
   57.5999985        -35.2850609    
   57.7299995        -35.2827721    
   57.8600006        -35.2848930    
   57.9900017        -35.2841377    
   58.1199989        -35.2797508    
   58.2500000        -35.2787170    
   58.3800011        -35.2796249    
   58.5099983        -35.2785912    
   58.6399994        -35.2770996    
   58.7700005        -35.2744637    
   58.9000015        -35.2714043    
   59.0299988        -35.2714767    
   59.1599998        -35.2706947    
   59.2900009        -35.2666130    
   59.4199982        -35.2654991    
   59.5499992        -35.2656708    
   59.6800003        -35.2617531    
   59.8100014        -35.2595482    
   59.9399986        -35.2599220    
   60.0699997        -35.2555809    
   60.2000008        -35.2511215    
   60.3300018        -35.2515450    
   60.4599991        -35.2492371    
   60.5900002        -35.2442513    
   60.7200012        -35.2437897    
   60.8499985        -35.2431870    
   60.9799995        -35.2384300    
   61.1100006        -35.2355156    
   61.2400017        -35.2339249    
   61.3699989        -35.2293320    
   61.5000000        -35.2257538    
   61.6300011        -35.2245483    
   61.7599983        -35.2212715    
   61.8899994        -35.2183418    
   62.0200005        -35.2181892    
   62.1500015        -35.2148781    
   62.2799988        -35.2083473    
   62.4099998        -35.2051773    
   62.5400009        -35.2030792    
   62.6699982        -35.1993294    
   62.7999992        -35.1991119    
   62.9300003        -35.1987762    
   63.0600014        -35.1914978    
   63.1899986        -35.1867065    
   63.3199997        -35.1886406    
   63.4500008        -35.1849327    
   63.5800018        -35.1781425    
   63.7099991        -35.1791039    
   63.8400002        -35.1777344    
   63.9700012        -35.1697426    
   64.0999985        -35.1690941    
   64.2300034        -35.1716232    
   64.3600006        -35.1660843    
   64.4899979        -35.1621208    
   64.6200027        -35.1624680    
   64.7500000        -35.1576309    
   64.8799973        -35.1539154    
   65.0100021        -35.1556892    
   65.1399994        -35.1534462    
   65.2699966        -35.1501007    
   65.4000015        -35.1507721    
   65.5299988        -35.1476021    
   65.6600037        -35.1437721    
   65.7900009        -35.1459084    
   65.9199982        -35.1441345    
   66.0500031        -35.1383858    
   66.1800003        -35.1398354    
   66.3099976        -35.1414261    
   66.4400024        -35.1368523    
   66.5699997        -35.1367760    
   66.6999969        -35.1393547    
   66.8300018        -35.1346855    
   66.9599991        -35.1304970    
   67.0899963        -35.1327362    
   67.2200012        -35.1332054    
   67.3499985        -35.1312866    
   67.4800034        -35.1316872    
   67.6100006        -35.1311264    
   67.7399979        -35.1292000    
   67.8700027        -35.1296234    
   68.0000000        -35.1295624    
   68.1299973        -35.1276894    
   68.2600021        -35.1277924    
   68.3899994        -35.1277428    
   68.5199966        -35.1256523    
   68.6500015        -35.1268921    
   68.7799988        -35.1289673    
   68.9100037        -35.1249237    
   69.0400009        -35.1226006    
   69.1699982        -35.1276283    
   69.3000031        -35.1276817    
   69.4300003        -35.1217842    
   69.5599976        -35.1235313    
   69.6900024        -35.1275444    
   69.8199997        -35.1236649    
   69.9499969        -35.1223068    
   70.0800018        -35.1262550    
   70.2099991        -35.1245422    
   70.3399963        -35.1223450    
   70.4700012        -35.1255112    
   70.5999985        -35.1240196    
   70.7300034        -35.1201401    
   70.8600006        -35.1234474    
   70.9899979        -35.1256714    
   71.1200027        -35.1228485    
   71.2500000        -35.1232567    
   71.3799973        -35.1235924    
   71.5100021        -35.1212158    
   71.6399994        -35.1234436    
   71.7699966        -35.1251984    
   71.9000015        -35.1213799    
   72.0299988        -35.1224022    
   72.1600037        -35.1260185    
   72.2900009        -35.1215248    
   72.4199982        -35.1192245    
   72.5500031        -35.1253090    
   72.6800003        -35.1256828    
   72.8099976        -35.1209602    
   72.9400024        -35.1224213    
   73.0699997        -35.1232948    
   73.1999969        -35.1204147    
   73.3300018        -35.1235962    
   73.4599991        -35.1267281    
   73.5899963        -35.1212730    
   73.7200012        -35.1196022    
   73.8499985        -35.1250496    
   73.9800034        -35.1242943    
   74.1100006        -35.1208725    
   74.2399979        -35.1240463    
   74.3700027        -35.1251602    
   74.5000000        -35.1218758    
   74.6299973        -35.1231079    
   74.7600021        -35.1244774    
   74.8899994        -35.1223068    
   75.0199966        -35.1245537    
   75.1500015        -35.1267815    
   75.2799988        -35.1227264    
   75.4100037        -35.1230164    
   75.5400009        -35.1274529    
   75.6699982        -35.1251488    
   75.8000031        -35.1241035    
   75.9300003        -35.1284332    
   76.0599976        -35.1260338    
   76.1900024        -35.1238136    
   76.3199997        -35.1311760    
   76.4499969        -35.1315994    
   76.5800018        -35.1241531    
   76.7099991        -35.1279297    
   76.8399963        -35.1336288    
   76.9700012        -35.1282654    
   77.0999985        -35.1282272    
   77.2300034        -35.1356888    
   77.3600006        -35.1340218    
   77.4899979        -35.1301308    
   77.6200027        -35.1338844    
   77.7500000        -35.1353493    
   77.8799973        -35.1343193    
   78.0100021        -35.1371880    
   78.1399994        -35.1372871    
   78.2699966        -35.1351967    
   78.4000015        -35.1381531    
   78.5299988        -35.1395264    
   78.6600037        -35.1374054    
   78.7900009        -35.1403961    
   78.9199982        -35.1431427    
   79.0500031        -35.1400223    
   79.1800003        -35.1408691    
   79.3099976        -35.1444092    
   79.4400024        -35.1413307    
   79.5699997        -35.1407509    
   79.6999969        -35.1474915    
   79.8300018        -35.1477432    
   79.9599991        -35.1430779    
   80.0899963        -35.1462555    
   80.2200012        -35.1495247    
   80.3499985        -35.1457863    
   80.4800034        -35.1461945    
   80.6100006        -35.1506233    
   80.7399979        -35.1495590    
   80.8700027        -35.1492386    
   81.0000000        -35.1532478    
   81.1299973        -35.1524467    
   81.2600021        -35.1499138    
   81.3899994        -35.1528473    
   81.5199966        -35.1543541    
   81.6500015        -35.1533699    
   81.7799988        -35.1562386    
   81.9100037        -35.1574287    
   82.0400009        -35.1551552    
   82.1699982        -35.1578140    
   82.3000031        -35.1607590    
   82.4300003        -35.1580086    
   82.5599976        -35.1588707    
   82.6900024        -35.1632538    
   82.8199997        -35.1620064    
   82.9499969        -35.1618919    
   83.0800018        -35.1667938    
   83.2099991        -35.1660690    
   83.3399963        -35.1630058    
   83.4700012        -35.1670761    
   83.5999985        -35.1697960    
   83.7300034        -35.1672707    
   83.8600006        -35.1688957    
   83.9899979        -35.1716614    
   84.1200027        -35.1695557    
   84.2500000        -35.1698990    
   84.3799973        -35.1727180    
   84.5100021        -35.1713295    
   84.6399994        -35.1715469    
   84.7699966        -35.1754875    
   84.9000015        -35.1743622    
   85.0299988        -35.1716385    
   85.1600037        -35.1742859    
   85.2900009        -35.1747627    
   85.4199982        -35.1718254    
   85.5500031        -35.1743126    
   85.6800003        -35.1776428    
   85.8099976        -35.1752930    
   85.9400024        -35.1744576    
   86.0699997        -35.1761398    
   86.1999969        -35.1744766    
   86.3300018        -35.1741524    
   86.4599991        -35.1769142    
   86.5899963        -35.1761055    
   86.7200012        -35.1752930    
   86.8499985        -35.1783447    
   86.9800034        -35.1777992    
   87.1100006        -35.1752357    
   87.2399979        -35.1778030    
   87.3700027        -35.1788025    
   87.5000000        -35.1760979    
   87.6299973        -35.1786423    
   87.7600021        -35.1819229    
   87.8899994        -35.1789818    
   88.0199966        -35.1789474    
   88.1500015        -35.1830521    
   88.2799988        -35.1816406    
   88.4100037        -35.1795578    
   88.5400009        -35.1831360    
   88.6699982        -35.1846237    
   88.8000031        -35.1831360    
   88.9300003        -35.1849785    
   89.0599976        -35.1864510    
   89.1900024        -35.1856880    
   89.3199997        -35.1875076    
   89.4499969        -35.1889687    
   89.5800018        -35.1877022    
   89.7099991        -35.1893692    
   89.8399963        -35.1922951    
   89.9700012        -35.1914024    
   90.0999985        -35.1913109    
   90.2300034        -35.1939163    
   90.3600006        -35.1943054    
   90.4899979        -35.1941452    
   90.6200027        -35.1959839    
   90.7500000        -35.1964531    
   90.8799973        -35.1965103    
   91.0100021        -35.1989098    
   91.1399994        -35.2001724    
   91.2699966        -35.1998177    
   91.4000015        -35.2011147    
   91.5299988        -35.2019958    
   91.6600037        -35.2014809    
   91.7900009        -35.2028389    
   91.9199982        -35.2046471    
   92.0500031        -35.2051163    
   92.1800003        -35.2066078    
   92.3099976        -35.2074051    
   92.4400024        -35.2060738    
   92.5699997        -35.2075539    
   92.6999969        -35.2106781    
   92.8300018        -35.2096977    
   92.9599991        -35.2090149    
   93.0899963        -35.2123070    
   93.2200012        -35.2131538    
   93.3499985        -35.2117958    
   93.4800034        -35.2139282    
   93.6100006        -35.2155190    
   93.7399979        -35.2141724    
   93.8700027        -35.2156944    
   94.0000000        -35.2180710    
   94.1299973        -35.2167969    
   94.2600021        -35.2173386    
   94.3899994        -35.2204628    
   94.5199966        -35.2198219    
   94.6500015        -35.2187958    
   94.7799988        -35.2216682    
   94.9100037        -35.2228432    
   95.0400009        -35.2218819    
   95.1699982        -35.2234039    