  -10.0000000         1.00000002E-24
  -9.86999989         1.00000022E-24
  -9.73999977         1.00000012E-24
  -9.60999966         1.00000012E-24
  -9.47999954         1.00000022E-24
  -9.35000038         1.00000012E-24
  -9.22000027         1.00000022E-24
  -9.09000015         1.00000032E-24
  -8.96000004         9.99999921E-25
  -8.82999992         1.00000002E-24
  -8.69999981         2.73503806E-22
  -8.56999969         4.04473710E-21
  -8.43999958         1.57866140E-19
  -8.31000042        -3.00031891E-18
  -8.18000031         2.70854749E-17
  -8.05000019        -1.54625150E-16
  -7.92000008         5.46296917E-16
  -7.78999996        -8.78910609E-16
  -7.65999985        -1.29091103E-15
  -7.53000021         8.73429459E-15
  -7.40000010        -9.68236416E-15
  -7.26999998        -2.55239792E-14
  -7.13999987         5.96884060E-14
  -7.01000023         6.64949459E-14
  -6.88000011        -2.23454569E-13
  -6.75000000        -3.18400634E-13
  -6.61999989         1.02431269E-12
  -6.48999977         1.27975245E-12
  -6.36000013        -4.68779963E-12
  -6.23000002        -3.16028649E-12
  -6.09999990         1.68372365E-11
  -5.96999979         5.01869336E-12
  -5.84000015        -4.82826695E-11
  -5.71000004        -7.80683938E-12
  -5.57999992         1.23120888E-10
  -5.44999981         2.24185826E-11
  -5.32000017        -3.06911219E-10
  -5.19000006        -6.21277058E-11
  -5.05999994         7.43251072E-10
  -4.92999983         8.64380650E-11
  -4.80000019        -1.60443692E-09
  -4.67000008         5.32298580E-11
  -4.53999996         2.81860890E-09
  -4.40999985        -4.26704977E-10
  -4.28000021        -3.65975983E-09
  -4.15000010         3.74224651E-10
  -4.01999998         2.78691270E-09
  -3.89000010         2.09356910E-09
  -3.75999999         6.32710884E-10
  -3.63000011        -9.08666209E-09
  -3.50000000        -5.62438007E-09
  -3.36999989         1.82755571E-08
  -3.24000001         1.15527108E-08
  -3.10999990        -1.76103914E-08
  -2.98000002        -2.72254432E-08
  -2.84999990        -1.15358034E-08
  -2.72000003         8.22779995E-08
  -2.58999991         7.42555031E-08
  -2.46000004        -2.22234192E-07
  -2.32999992        -1.35134101E-07
  -2.20000005         4.66727585E-07
  -2.06999993         1.24778481E-07
  -1.94000006        -7.43826661E-07
  -1.80999994        -2.46467735E-08
  -1.67999995         8.76592480E-07
  -1.54999995         8.76035955E-09
  -1.41999996        -7.24472898E-07
  -1.28999996        -4.97349276E-07
  -1.15999997         4.74889589E-07
  -1.02999997         1.91830577E-06
 -0.899999976        -8.31949421E-07
 -0.769999981        -4.14535498E-06
 -0.639999986         2.66765915E-06
 -0.509999990         6.00498561E-06
 -0.379999995        -5.94432004E-06
 -0.250000000        -5.60385934E-06
 -0.119999997         8.52606718E-06
   9.99999978E-03     1.97559393E-06
  0.140000001        -6.35426750E-06
  0.270000011         2.60894853E-06
  0.400000006        -3.75275226E-06
  0.529999971        -1.80570851E-06
  0.660000026         1.94722688E-05
  0.790000021        -1.17100954E-05
  0.920000017        -3.02964199E-05
   1.04999995         3.90250789E-05
   1.17999995         2.15783330E-05
   1.30999994        -6.79105215E-05
   1.44000006         1.36882391E-05
   1.57000005         7.36974907E-05
   1.70000005        -6.20491628E-05
   1.83000004        -3.38244645E-05
   1.96000004         8.80316875E-05
   2.08999991        -4.84018674E-05
   2.22000003        -5.25280120E-05
   2.34999990         1.28763480E-04
   2.48000002        -5.39542052E-05
   2.60999990        -1.37314200E-04
   2.74000001         1.84240547E-04
   2.86999989         2.72217658E-05
   3.00000000        -2.41351707E-04
   3.13000011         1.71475273E-04
   3.25999999         1.34018293E-04
   3.39000010        -3.39149934E-04
   3.51999998         1.41335477E-04
   3.65000010         3.22364154E-04
   3.77999997        -4.55643894E-04
   3.91000009        -4.28063431E-05
   4.03999996         5.97781618E-04
   4.17000008        -4.03591228E-04
   4.30000019        -4.08432243E-04
   4.42999983         7.51896820E-04
   4.55999994        -8.14053565E-05
   4.69000006        -7.20296870E-04
   4.82000017         6.01681531E-04
   4.94999981         2.09801641E-04
   5.07999992        -7.79963739E-04
   5.21000004         5.77321625E-04
   5.34000015         4.21083067E-04
   5.46999979        -1.15437340E-03
   5.59999990         3.80658021E-04
   5.73000002         1.10620807E-03
   5.86000013        -1.23379461E-03
   5.98999977        -4.82549804E-04
   6.11999989         1.43853552E-03
   6.25000000        -6.25061279E-04
   6.38000011        -1.16937514E-03
   6.51000023         1.08291989E-03
   6.63999987        -3.27138005E-05
   6.76999998        -1.40268053E-03
   6.90000010         3.76134703E-04
   7.03000021         3.31213014E-05
   7.15999985        -1.52511836E-03
   7.28999996        -3.24786175E-04
   7.42000008        -2.64685601E-04
   7.55000019        -1.90668507E-03
   7.67999983        -1.49079738E-03
   7.80999994        -1.24618632E-03
   7.94000006        -2.48587457E-03
   8.06999969        -2.98990170E-03
   8.19999981        -3.78627377E-03
   8.32999992        -4.89127031E-03
   8.46000004        -5.38503146E-03
   8.59000015        -7.24429311E-03
   8.72000027        -9.28790215E-03
   8.85000038        -1.04515906E-02
   8.97999954        -1.37481764E-02
   9.10999966        -1.70977823E-02
   9.23999977        -1.92969181E-02
   9.36999989        -2.54079439E-02
   9.50000000        -3.17870118E-02
   9.63000011        -3.48486230E-02
   9.76000023        -4.35461402E-02
   9.89000034        -5.57291284E-02
   10.0200005        -6.24411367E-02
   10.1499996        -7.38391951E-02
   10.2799997        -9.34313685E-02
   10.4099998       -0.108394712    
   10.5400000       -0.125159204    
   10.6700001       -0.152471036    
   10.8000002       -0.178041130    
   10.9300003       -0.204473257    
   11.0600004       -0.243606627    
   11.1899996       -0.284287214    
   11.3199997       -0.325013638    
   11.4499998       -0.380086601    
   11.5799999       -0.441052735    
   11.7100000       -0.501784325    
   11.8400002       -0.577004969    
   11.9700003       -0.662945211    
   12.1000004       -0.750965714    
   12.2299995       -0.853992701    
   12.3599997       -0.971553683    
   12.4899998        -1.09367228    
   12.6199999        -1.23128927    
   12.7500000        -1.38669908    
   12.8800001        -1.54905021    
   13.0100002        -1.72714579    
   13.1400003        -1.92683780    
   13.2700005        -2.13763833    
   13.3999996        -2.36379862    
   13.5299997        -2.61220598    
   13.6599998        -2.87518525    
   13.7900000        -3.15431213    
   13.9200001        -3.45520902    
   14.0500002        -3.77273917    
   14.1800003        -4.10800314    
   14.3100004        -4.46412706    
   14.4399996        -4.83640909    
   14.5699997        -5.22718239    
   14.6999998        -5.63824654    
   14.8299999        -6.06321573    
   14.9600000        -6.50517082    
   15.0900002        -6.96672106    
   15.2200003        -7.44037199    
   15.3500004        -7.92907524    
   15.4799995        -8.43558502    
   15.6099997        -8.95001507    
   15.7399998        -9.47527695    
   15.8699999        -10.0174274    
   16.0000000        -10.5654297    
   16.1299992        -11.1194096    
   16.2600002        -11.6876793    
   16.3899994        -12.2593918    
   16.5200005        -12.8314247    
   16.6499996        -13.4145823    
   16.7800007        -14.0008774    
   16.9099998        -14.5833158    
   17.0400009        -15.1718445    
   17.1700001        -15.7623272    
   17.2999992        -16.3472576    
   17.4300003        -16.9354267    
   17.5599995        -17.5246410    
   17.6900005        -18.1060638    
   17.8199997        -18.6867657    
   17.9500008        -19.2678261    
   18.0799999        -19.8420658    
   18.2099991        -20.4143658    
   18.3400002        -20.9854450    
   18.4699993        -21.5490627    
   18.6000004        -22.1105499    
   18.7299995        -22.6716232    
   18.8600006        -23.2260227    
   18.9899998        -23.7782936    
   19.1200008        -24.3299961    
   19.2500000        -24.8742619    
   19.3799992        -25.4169064    
   19.5100002        -25.9628944    
   19.6399994        -26.5036621    
   19.7700005        -27.0407181    
   19.8999996        -27.5808735    
   20.0300007        -28.1182690    
   20.1599998        -28.6523743    
   20.2900009        -29.1898518    
   20.4200001        -29.7259712    
   20.5499992        -30.2576103    
   20.6800003        -30.7915401    
   20.8099995        -31.3266277    
   20.9400005        -31.8578682    
   21.0699997        -32.3883781    
   21.2000008        -32.9188042    
   21.3299999        -33.4447861    
   21.4599991        -33.9668999    
   21.5900002        -34.4867287    
   21.7199993        -35.0010681    
   21.8500004        -35.5067596    
   21.9799995        -36.0030403    
   22.1100006        -36.4884148    
   22.2399998        -36.9597511    
   22.3700008        -37.4138222    
   22.5000000        -37.8472748    
   22.6299992        -38.2556114    
   22.7600002        -38.6347504    
   22.8899994        -38.9803352    
   23.0200005        -39.2850990    
   23.1499996        -39.5425873    
   23.2800007        -39.7477493    
   23.4099998        -39.8908310    
   23.5400009        -39.9623871    
   23.6700001        -39.9570580    
   23.7999992        -39.8633194    
   23.9300003        -39.6674690    
   24.0599995        -39.3635330    
   24.1900005        -38.9402275    
   24.3199997        -38.3797989    
   24.4500008        -37.6744728    
   24.5799999        -36.8153381    
   24.7099991        -35.7829628    
   24.8400002        -34.5673218    
   24.9699993        -33.1629562    
   25.1000004        -31.5521030    
   25.2299995        -29.7233429    
   25.3600006        -27.6750164    
   25.4899998        -25.3947010    
   25.6200008        -22.8736172    
   25.7500000        -20.1163273    
   25.8799992        -17.1172810    
   26.0100002        -13.8704338    
   26.1399994        -10.3881035    
   26.2700005        -6.67696953    
   26.3999996        -2.73673153    
   26.5300007         1.41385257    
   26.6599998         5.75426483    
   26.7900009         10.2756920    
   26.9200001         14.9541740    
   27.0499992         19.7562981    
   27.1800003         24.6615334    
   27.3099995         29.6419468    
   27.4400005         34.6549034    
   27.5699997         39.6677094    
   27.7000008         44.6503487    
   27.8299999         49.5585976    
   27.9599991         54.3507156    
   28.0900002         58.9944725    
   28.2199993         63.4508858    
   28.3500004         67.6762085    
   28.4799995         71.6361313    
   28.6100006         75.3018875    
   28.7399998         78.6394424    
   28.8700008         81.6155014    
   29.0000000         84.2094574    
   29.1299992         86.4047699    
   29.2600002         88.1787643    
   29.3899994         89.5180435    
   29.5200005         90.4234848    
   29.6499996         90.8907013    
   29.7800007         90.9153748    
   29.9099998         90.5110016    
   30.0400009         89.6930008    
   30.1700001         88.4695511    
   30.2999992         86.8616791    
   30.4300003         84.9001999    
   30.5599995         82.6084518    
   30.6900005         80.0121384    
   30.8199997         77.1475754    
   30.9500008         74.0502777    
   31.0799999         70.7512512    
   31.2099991         67.2838058    
   31.3400002         63.6864319    
   31.4699993         59.9963379    
   31.6000004         56.2422600    
   31.7299995         52.4553299    
   31.8600006         48.6737633    
   31.9899998         44.9235191    
   32.1199989         41.2233505    
   32.2500000         37.6053543    
   32.3800011         34.0939445    
   32.5099983         30.6955433    
   32.6399994         27.4297810    
   32.7700005         24.3195438    
   32.9000015         21.3645687    
   33.0299988         18.5692825    
   33.1599998         15.9500666    
   33.2900009         13.5046453    
   33.4199982         11.2278051    
   33.5499992         9.12726498    
   33.6800003         7.19764471    
   33.8100014         5.42848110    
   33.9399986         3.82176185    
   34.0699997         2.36919570    
   34.2000008         1.05722094    
   34.3300018       -0.114266977    
   34.4599991        -1.15499318    
   34.5900002        -2.08180666    
   34.7200012        -2.89495778    
   34.8499985        -3.60191727    
   34.9799995        -4.22132683    
   35.1100006        -4.75357103    
   35.2400017        -5.20269728    
   35.3699989        -5.58960772    
   35.5000000        -5.91595268    
   35.6300011        -6.17828894    
   35.7599983        -6.39576340    
   35.8899994        -6.57540894    
   36.0200005        -6.70978498    
   36.1500015        -6.81187344    
   36.2799988        -6.89198017    
   36.4099998        -6.94215155    
   36.5400009        -6.96889973    
   36.6699982        -6.98376083    
   36.7999992        -6.98100567    
   36.9300003        -6.96180630    
   37.0600014        -6.93588352    
   37.1899986        -6.90064096    
   37.3199997        -6.85549831    
   37.4500008        -6.80736065    
   37.5800018        -6.75468826    
   37.7099991        -6.69614124    
   37.8400002        -6.63587570    
   37.9700012        -6.57272005    
   38.0999985        -6.50730610    
   38.2299995        -6.44322109    
   38.3600006        -6.37657642    
   38.4900017        -6.30730247    
   38.6199989        -6.24107313    
   38.7500000        -6.17394495    
   38.8800011        -6.10400915    
   39.0099983        -6.03829098    
   39.1399994        -5.97322178    
   39.2700005        -5.90351105    
   39.4000015        -5.83720207    
   39.5299988        -5.77451086    
   39.6599998        -5.70746613    
   39.7900009        -5.64164257    
   39.9199982        -5.58071804    
   40.0499992        -5.51650190    
   40.1800003        -5.45152140    
   40.3100014        -5.39229536    
   40.4399986        -5.33197165    
   40.5699997        -5.26859665    
   40.7000008        -5.20921755    
   40.8300018        -5.15156126    
   40.9599991        -5.09216166    
   41.0900002        -5.03474092    
   41.2200012        -4.97817087    
   41.3499985        -4.92036200    
   41.4799995        -4.86451006    
   41.6100006        -4.80938625    
   41.7400017        -4.75377083    
   41.8699989        -4.70157337    
   42.0000000        -4.64960289    
   42.1300011        -4.59410000    
   42.2599983        -4.54193115    
   42.3899994        -4.49302292    
   42.5200005        -4.43963814    
   42.6500015        -4.38744831    
   42.7799988        -4.34159088    
   42.9099998        -4.29212999    
   43.0400009        -4.23898315    
   43.1699982        -4.19260168    
   43.2999992        -4.14755154    
   43.4300003        -4.09668303    
   43.5600014        -4.04913568    
   43.6899986        -4.00692368    
   43.8199997        -3.96079350    
   43.9500008        -3.91327691    
   44.0800018        -3.87027812    
   44.2099991        -3.82703686    
   44.3400002        -3.78221512    
   44.4700012        -3.73970628    
   44.5999985        -3.69785833    
   44.7299995        -3.65616703    
   44.8600006        -3.61631417    
   44.9900017        -3.57548404    
   45.1199989        -3.53512454    
   45.2500000        -3.49902368    
   45.3800011        -3.46161318    
   45.5099983        -3.42187667    
   45.6399994        -3.38794446    
   45.7700005        -3.35575080    
   45.9000015        -3.31859541    
   46.0299988        -3.28517199    
   46.1599998        -3.25686979    
   46.2900009        -3.22375441    
   46.4199982        -3.19088793    
   46.5499992        -3.16483188    
   46.6800003        -3.13670969    
   46.8100014        -3.10662365    
   46.9399986        -3.08276725    
   47.0699997        -3.05919337    
   47.2000008        -3.03252721    
   47.3300018        -3.01031017    
   47.4599991        -2.98993111    
   47.5900002        -2.96686530    
   47.7200012        -2.94669938    
   47.8499985        -2.92831087    
   47.9799995        -2.90771651    
   48.1100006        -2.89036536    
   48.2400017        -2.87530541    
   48.3699989        -2.85677242    
   48.5000000        -2.84046841    
   48.6300011        -2.82790351    
   48.7599983        -2.81105423    
   48.8899994        -2.79405427    
   49.0200005        -2.78331923    
   49.1500015        -2.77035427    
   49.2799988        -2.75297022    
   49.4099998        -2.74091649    
   49.5400009        -2.73115754    
   49.6699982        -2.71499538    
   49.7999992        -2.69928145    
   49.9300003        -2.68942046    
   50.0600014        -2.67623639    
   50.1899986        -2.65892982    
   50.3199997        -2.64730024    
   50.4500008        -2.63694549    
   50.5800018        -2.61953712    
   50.7099991        -2.60348368    
   50.8400002        -2.59209156    
   50.9700012        -2.57496166    
   51.0999985        -2.55556941    
   51.2299995        -2.54220796    
   51.3600006        -2.52590466    
   51.4900017        -2.50498724    
   51.6199989        -2.48958445    
   51.7500000        -2.47288442    
   51.8800011        -2.44870496    
   52.0099983        -2.42880082    
   52.1399994        -2.41158795    
   52.2700005        -2.38717031    
   52.4000015        -2.36485863    
   52.5299988        -2.34726834    
   52.6599998        -2.32213187    
   52.7900009        -2.29515648    
   52.9199982        -2.27505040    
   53.0499992        -2.25106287    
   53.1800003        -2.22169089    
   53.3100014        -2.19778776    
   53.4399986        -2.17532325    
   53.5699997        -2.14733291    
   53.7000008        -2.11961985    
   53.8300018        -2.09550214    
   53.9599991        -2.07040000    
   54.0900002        -2.04177737    
   54.2200012        -2.01315689    
   54.3499985        -1.98848140    
   54.4799995        -1.96308684    
   54.6100006        -1.93326616    
   54.7400017        -1.90722620    
   54.8699989        -1.88539135    
   55.0000000        -1.85758698    
   55.1300011        -1.82889712    
   55.2599983        -1.80643654    
   55.3899994        -1.78053844    
   55.5200005        -1.75168407    
   55.6500015        -1.73007429    
   55.7799988        -1.70814621    
   55.9099998        -1.68095696    
   56.0400009        -1.65838778    
   56.1699982        -1.63709784    
   56.2999992        -1.61069751    
   56.4300003        -1.58833313    
   56.5600014        -1.56955302    
   56.6899986        -1.54596555    
   56.8199997        -1.52460194    
   56.9500008        -1.50805044    
   57.0800018        -1.48713148    
   57.2099991        -1.46605265    
   57.3400002        -1.45065844    
   57.4700012        -1.43264890    
   57.5999985        -1.41219938    
   57.7299995        -1.39755380    
   57.8600006        -1.38429129    
   57.9900017        -1.36810088    
   58.1199989        -1.35441446    
   58.2500000        -1.34267402    
   58.3800011        -1.32864511    
   58.5099983        -1.31515491    
   58.6399994        -1.30407608    
   58.7700005        -1.29344261    
   58.9000015        -1.28376913    
   59.0299988        -1.27500188    
   59.1599998        -1.26556051    
   59.2900009        -1.25696790    
   59.4199982        -1.24989128    
   59.5499992        -1.24149919    
   59.6800003        -1.23242176    
   59.8100014        -1.22624588    
   59.9399986        -1.22128606    
   60.0699997        -1.21397865    
   60.2000008        -1.20716226    
   60.3300018        -1.20352876    
   60.4599991        -1.19836795    
   60.5900002        -1.19018900    
   60.7200012        -1.18503380    
   60.8499985        -1.18170977    
   60.9799995        -1.17385817    
   61.1100006        -1.16701925    
   61.2400017        -1.16655767    
   61.3699989        -1.16254950    
   61.5000000        -1.15274346    
   61.6300011        -1.14930534    
   61.7599983        -1.14858532    
   61.8899994        -1.13904321    
   62.0200005        -1.13114560    
   62.1500015        -1.13267231    
   62.2799988        -1.12864709    
   62.4099998        -1.11794698    
   62.5400009        -1.11587000    
   62.6699982        -1.11615419    
   62.7999992        -1.10739028    
   62.9300003        -1.10059381    
   63.0600014        -1.10031629    
   63.1899986        -1.09503746    
   63.3199997        -1.08709276    
   63.4500008        -1.08493340    
   63.5800018        -1.08257413    
   63.7099991        -1.07647991    
   63.8400002        -1.07222176    
   63.9700012        -1.06865191    
   64.0999985        -1.06220734    
   64.2300034        -1.05568957    
   64.3600006        -1.05076861    
   64.4899979        -1.04603493    
   64.6200027        -1.04095232    
   64.7500000        -1.03497028    
   64.8799973        -1.02845621    
   65.0100021        -1.02225256    
   65.1399994        -1.01506865    
   65.2699966        -1.00697112    
   65.4000015        -1.00039530    
   65.5299988       -0.994675934    
   65.6600037       -0.987125456    
   65.7900009       -0.978731215    
   65.9199982       -0.972160995    
   66.0500031       -0.965942740    
   66.1800003       -0.957054675    
   66.3099976       -0.947885215    
   66.4400024       -0.941414058    
   66.5699997       -0.934027135    
   66.6999969       -0.924686968    
   66.8300018       -0.918390453    
   66.9599991       -0.913226724    
   67.0899963       -0.904876888    
   67.2200012       -0.897828817    
   67.3499985       -0.892662942    
   67.4800034       -0.884274065    
   67.6100006       -0.877008200    
   67.7399979       -0.873528242    
   67.8700027       -0.866978586    
   68.0000000       -0.860071361    
   68.1299973       -0.858154953    
   68.2600021       -0.853461325    
   68.3899994       -0.845520973    
   68.5199966       -0.842910588    
   68.6500015       -0.840068042    
   68.7799988       -0.832310557    
   68.9100037       -0.828328609    
   69.0400009       -0.826362729    
   69.1699982       -0.819837570    
   69.3000031       -0.815916836    
   69.4300003       -0.815216899    
   69.5599976       -0.809243441    
   69.6900024       -0.802877903    
   69.8199997       -0.800404131    
   69.9499969       -0.794500172    
   70.0800018       -0.787869632    
   70.2099991       -0.786870658    
   70.3399963       -0.784312785    
   70.4700012       -0.777728498    
   70.5999985       -0.773847401    
   70.7300034       -0.770239592    
   70.8600006       -0.763587236    
   70.9899979       -0.758805513    
   71.1200027       -0.755911589    
   71.2500000       -0.751727283    
   71.3799973       -0.748068333    
   71.5100021       -0.744783580    
   71.6399994       -0.740828693    
   71.7699966       -0.738011777    
   71.9000015       -0.734277129    
   72.0299988       -0.728765786    
   72.1600037       -0.726190865    
   72.2900009       -0.724684417    
   72.4199982       -0.720441222    
   72.5500031       -0.718986571    
   72.6800003       -0.720423043    
   72.8099976       -0.717236757    
   72.9400024       -0.712932289    
   73.0699997       -0.712311625    
   73.1999969       -0.709408700    
   73.3300018       -0.705444336    
   73.4599991       -0.707069576    
   73.5899963       -0.708340347    
   73.7200012       -0.704882681    
   73.8499985       -0.703194618    
   73.9800034       -0.702634037    
   74.1100006       -0.698865473    
   74.2399979       -0.696391463    
   74.3700027       -0.696576953    
   74.5000000       -0.695272088    
   74.6299973       -0.693645120    
   74.7600021       -0.692497194    
   74.8899994       -0.690234303    
   75.0199966       -0.689212084    
   75.1500015       -0.688487232    
   75.2799988       -0.684611797    
   75.4100037       -0.681780159    
   75.5400009       -0.681634665    
   75.6699982       -0.679097056    
   75.8000031       -0.676985800    
   75.9300003       -0.678629875    
   76.0599976       -0.677436113    
   76.1900024       -0.673912764    
   76.3199997       -0.674777508    
   76.4499969       -0.674739122    
   76.5800018       -0.670770466    
   76.7099991       -0.672045290    
   76.8399963       -0.676651478    
   76.9700012       -0.675357997    
   77.0999985       -0.674639761    
   77.2300034       -0.679384708    
   77.3600006       -0.679925323    
   77.4899979       -0.677722454    
   77.6200027       -0.682563543    
   77.7500000       -0.687409997    
   77.8799973       -0.686428845    
   78.0100021       -0.689530432    
   78.1399994       -0.695898652    
   78.2699966       -0.697041392    
   78.4000015       -0.700033784    
   78.5299988       -0.707063735    
   78.6600037       -0.707637310    
   78.7900009       -0.707264900    
   78.9199982       -0.713800311    
   79.0500031       -0.716694593    
   79.1800003       -0.717103839    
   79.3099976       -0.725264430    
   79.4400024       -0.729396760    
   79.5699997       -0.725555122    
   79.6999969       -0.730202734    
   79.8300018       -0.736129999    
   79.9599991       -0.731342614    
   80.0899963       -0.733481109    
   80.2200012       -0.742963076    
   80.3499985       -0.739460766    
   80.4800034       -0.735657811    
   80.6100006       -0.744277239    
   80.7399979       -0.744798243    
   80.8700027       -0.738213837    
   81.0000000       -0.742849410    
   81.1299973       -0.745324492    
   81.2600021       -0.738239050    
   81.3899994       -0.739653707    
   81.5199966       -0.744549453    
   81.6500015       -0.740566373    
   81.7799988       -0.739743888    
   81.9100037       -0.742385030    
   82.0400009       -0.737454116    
   82.1699982       -0.734220624    
   82.3000031       -0.735912442    
   82.4300003       -0.732288182    
   82.5599976       -0.729946494    
   82.6900024       -0.732271552    
   82.8199997       -0.727315784    
   82.9499969       -0.721011937    
   83.0800018       -0.722213030    
   83.2099991       -0.718203723    
   83.3399963       -0.709179163    
   83.4700012       -0.708657265    
   83.5999985       -0.707020998    
   83.7300034       -0.695930958    
   83.8600006       -0.690364897    
   83.9899979       -0.690870106    
   84.1200027       -0.682382524    
   84.2500000       -0.670255363    
   84.3799973       -0.665058851    
   84.5100021       -0.658436656    
   84.6399994       -0.645529926    
   84.7699966       -0.636039376    
   84.9000015       -0.631562591    
   85.0299988       -0.622341990    
   85.1600037       -0.607831240    
   85.2900009       -0.597066760    
   85.4199982       -0.589031339    
   85.5500031       -0.575312853    
   85.6800003       -0.560434639    
   85.8099976       -0.552362919    
   85.9400024       -0.542694211    
   86.0699997       -0.525720775    
   86.1999969       -0.512866974    
   86.3300018       -0.505707860    
   86.4599991       -0.492212534    
   86.5899963       -0.475429326    
   86.7200012       -0.464923412    
   86.8499985       -0.454247177    
   86.9800034       -0.438482612    
   87.1100006       -0.426050186    
   87.2399979       -0.418735117    
   87.3700027       -0.408994198    
   87.5000000       -0.395863742    
   87.6299973       -0.383985013    
   87.7600021       -0.374376386    
   87.8899994       -0.364518404    
   88.0199966       -0.353773952    
   88.1500015       -0.345390737    
   88.2799988       -0.339711785    
   88.4100037       -0.331863970    
   88.5400009       -0.322024196    
   88.6699982       -0.315123767    
   88.8000031       -0.309661329    
   88.9300003       -0.302155495    
   89.0599976       -0.295168430    
   89.1900024       -0.290362298    
   89.3199997       -0.285434008    
   89.4499969       -0.280213028    
   89.5800018       -0.276510209    
   89.7099991       -0.274080813    
   89.8399963       -0.270440161    
   89.9700012       -0.265155524    
   90.0999985       -0.261804163    
   90.2300034       -0.260362208    
   90.3600006       -0.257093549    
   90.4899979       -0.255533904    
   90.6200027       -0.258381277    
   90.7500000       -0.257741272    
   90.8799973       -0.253771216    
   91.0100021       -0.255637228    
   91.1399994       -0.258409917    
   91.2699966       -0.256187409    
   91.4000015       -0.258020848    
   91.5299988       -0.263519853    
   91.6600037       -0.263614833    
   91.7900009       -0.264786720    
   91.9199982       -0.271393239    
   92.0500031       -0.274771899    
   92.1800003       -0.277299315    
   92.3099976       -0.283986092    
   92.4400024       -0.287018538    
   92.5699997       -0.287949800    
   92.6999969       -0.295356899    
   92.8300018       -0.302536637    
   92.9599991       -0.305087358    
   93.0899963       -0.310662121    
   93.2200012       -0.317544788    
   93.3499985       -0.320259750    
   93.4800034       -0.323349983    
   93.6100006       -0.328711033    
   93.7399979       -0.333439499    
   93.8700027       -0.337878823    
   94.0000000       -0.341622382    
   94.1299973       -0.345257759    
   94.2600021       -0.350557685    
   94.3899994       -0.353825301    
   94.5199966       -0.355132669    
   94.6500015       -0.359510839    
   94.7799988       -0.362375706    
   94.9100037       -0.361178249    
   95.0400009       -0.364513844    
   95.1699982       -0.369953334    