  -9.37500000         1.00000002E-24
  -9.26500034         1.00000002E-24
  -9.15499973         1.00000012E-24
  -9.04500008         1.00000022E-24
  -8.93500042         1.00000012E-24
  -8.82499981         1.00000012E-24
  -8.71500015         1.00000012E-24
  -8.60499954         1.00000012E-24
  -8.49499989         1.00000012E-24
  -8.38500023         1.00000002E-24
  -8.27499962         1.00000150E-24
  -8.16499996         9.99950420E-25
  -8.05500031         1.00066710E-24
  -7.94500017         9.96252536E-25
  -7.83500004         1.00311296E-24
  -7.72499990         1.05194829E-24
  -7.61499977         8.62367655E-25
  -7.50500011         6.21743434E-25
  -7.39499998         2.49920601E-24
  -7.28499985         3.10714029E-24
  -7.17500019        -9.29860405E-24
  -7.06500006        -9.12272908E-24
  -6.95499992         5.41250846E-23
  -6.84499979         4.03495253E-23
  -6.73500013        -2.30946212E-22
  -6.62500000        -1.02911645E-22
  -6.51499987         9.95557407E-22
  -6.40500021         1.77340740E-22
  -6.29500008        -4.53705496E-21
  -6.18499994        -1.10846261E-21
  -6.07499981         1.99412372E-20
  -5.96500015         1.36698026E-20
  -5.85500002        -7.17934094E-20
  -5.74499989        -9.91116630E-20
  -5.63500023         1.80032035E-19
  -5.52500010         4.66801284E-19
  -5.41499996        -1.85608641E-19
  -5.30499983        -1.52642027E-18
  -5.19500017        -7.58412642E-19
  -5.08500004         3.39855426E-18
  -4.97499990         4.77667728E-18
  -4.86499977        -4.11184865E-18
  -4.75500011        -1.43352336E-17
  -4.64499998        -2.92124686E-18
  -4.53499985         2.73452676E-17
  -4.42500019         2.76098628E-17
  -4.31500006        -3.00285058E-17
  -4.20499992        -7.20698182E-17
  -4.09499979        -7.16959985E-19
  -3.98499990         1.15989410E-16
  -3.87500000         7.38727013E-17
  -3.76500010        -1.26995319E-16
  -3.65499997        -1.62460708E-16
  -3.54500008         1.12188548E-16
  -3.43499994         2.48554592E-16
  -3.32500005        -1.40529873E-16
  -3.21499991        -4.45321643E-16
  -3.10500002         1.97754373E-16
  -2.99499989         1.01399002E-15
  -2.88499999         1.02674124E-16
  -2.77500010        -2.00959054E-15
  -2.66499996        -1.56077160E-15
  -2.55500007         2.65277696E-15
  -2.44499993         4.72443892E-15
  -2.33500004        -1.12125584E-15
  -2.22499990        -8.69434597E-15
  -2.11500001        -4.52339988E-15
  -2.00500011         1.03818279E-14
  -1.89499998         1.43824077E-14
  -1.78499997        -5.28169681E-15
  -1.67499995        -2.47810331E-14
  -1.56500006        -9.80266148E-15
  -1.45500004         2.79909830E-14
  -1.34500003         3.27609677E-14
  -1.23500001        -1.54733099E-14
  -1.12500000        -5.37220211E-14
  -1.01499999        -1.54108632E-14
 -0.904999971         5.83687287E-14
 -0.795000017         5.61702513E-14
 -0.685000002        -3.71307226E-14
 -0.574999988        -9.01902454E-14
 -0.465000004        -7.63578010E-15
 -0.354999989         1.02874442E-13
 -0.245000005         6.44141790E-14
 -0.135000005        -8.83662921E-14
  -2.50000004E-02    -1.21556180E-13
   8.50000009E-02     4.59375613E-14
  0.194999993         1.70783336E-13
  0.305000007         2.76841284E-14
  0.414999992        -1.99896808E-13
  0.524999976        -1.37460139E-13
  0.634999990         1.82756777E-13
  0.745000005         2.74987227E-13
  0.855000019        -8.24367430E-14
  0.964999974        -4.00121342E-13
   1.07500005        -1.25763210E-13
   1.18499994         4.38538989E-13
   1.29499996         4.24531775E-13
   1.40499997        -2.98477253E-13
   1.51499999        -7.24871823E-13
   1.62500000        -8.66154547E-14
   1.73500001         8.44677843E-13
   1.84500003         6.57642343E-13
   1.95500004        -5.83164539E-13
   2.06500006        -1.15050179E-12
   2.17499995        -6.38029600E-14
   2.28500009         1.25460157E-12
   2.39499998         8.21113631E-13
   2.50500011        -9.06280964E-13
   2.61500001        -1.40926311E-12
   2.72499990         2.34792979E-13
   2.83500004         1.71313387E-12
   2.94499993         6.94866690E-13
   3.05500007        -1.53259458E-12
   3.16499996        -1.66216552E-12
   3.27500010         7.02218828E-13
   3.38499999         2.14144609E-12
   3.49499989         3.85885280E-13
   3.60500002        -2.03234369E-12
   3.71499991        -1.30995648E-12
   3.82500005         1.72587595E-12
   3.93499994         2.39767494E-12
   4.04500008        -8.37523952E-13
   4.15500021        -3.48536434E-12
   4.26499987        -1.26045398E-12
   4.37500000         3.17315510E-12
   4.48500013         3.42179909E-12
   4.59499979        -1.24976581E-12
   4.70499992        -4.17634764E-12
   4.81500006        -7.82340664E-13
   4.92500019         4.12043750E-12
   5.03499985         2.83160951E-12
   5.14499998        -3.46912776E-12
   5.25500011        -5.47886606E-12
   5.36499977         6.36233633E-13
   5.47499990         6.59906504E-12
   5.58500004         3.49731268E-12
   5.69500017        -4.59727872E-12
   5.80499983        -5.80924284E-12
   5.91499996         1.94956573E-12
   6.02500010         7.15685584E-12
   6.13500023         1.45131606E-12
   6.24499989        -7.42616212E-12
   6.35500002        -6.46490543E-12
   6.46500015         3.23450121E-12
   6.57499981         7.27317425E-12
   6.68499994        -1.46161783E-12
   6.79500008        -1.20834254E-11
   6.90500021        -1.07492314E-11
   7.01499987        -3.71729150E-13
   7.12500000         3.15623005E-12
   7.23500013        -6.69156223E-12
   7.34499979        -1.78286812E-11
   7.45499992        -1.72722271E-11
   7.56500006        -1.08730629E-11
   7.67500019        -1.54760909E-11
   7.78499985        -3.33881742E-11
   7.89499998        -4.73945154E-11
   8.00500011        -4.64681557E-11
   8.11499977        -4.47580653E-11
   8.22500038        -6.29129665E-11
   8.33500004        -9.76084699E-11
   8.44499969        -1.26137059E-10
   8.55500031        -1.40819620E-10
   8.66499996        -1.61173949E-10
   8.77499962        -2.05198775E-10
   8.88500023        -2.63867067E-10
   8.99499989        -3.16910387E-10
   9.10499954        -3.64600933E-10
   9.21500015        -4.28543478E-10
   9.32499981        -5.22567989E-10
   9.43500042        -6.35542896E-10
   9.54500008        -7.46990192E-10
   9.65499973        -8.52758419E-10
   9.76500034        -9.69110125E-10
   9.87500000        -1.11158782E-09
   9.98499966        -1.27475674E-09
   10.0950003        -1.43903955E-09
   10.2049999        -1.59662916E-09
   10.3149996        -1.75879200E-09
   10.4250002        -1.93052752E-09
   10.5349998        -2.09075779E-09
   10.6450005        -2.21218266E-09
   10.7550001        -2.29022890E-09
   10.8649998        -2.33177788E-09
   10.9750004        -2.32150787E-09
   11.0850000        -2.22350471E-09
   11.1949997        -2.01456474E-09
   11.3050003        -1.68964087E-09
   11.4150000        -1.23010435E-09
   11.5249996        -5.91184768E-10
   11.6350002         2.71029033E-10
   11.7449999         1.38029255E-09
   11.8549995         2.75523782E-09
   11.9650002         4.42596981E-09
   12.0749998         6.42952713E-09
   12.1850004         8.80307116E-09
   12.2950001         1.15823369E-08
   12.4049997         1.47915058E-08
   12.5150003         1.84371984E-08
   12.6250000         2.25274537E-08
   12.7349997         2.70862408E-08
   12.8450003         3.21276517E-08
   12.9549999         3.76278919E-08
   13.0649996         4.35482050E-08
   13.1750002         4.98700032E-08
   13.2849998         5.65746063E-08
   13.3950005         6.36021724E-08
   13.5050001         7.08657524E-08
   13.6149998         7.82914640E-08
   13.7250004         8.58068105E-08
   13.8350000         9.33048554E-08
   13.9449997         1.00661204E-07
   14.0550003         1.07771257E-07
   14.1650000         1.14531048E-07
   14.2749996         1.20801772E-07
   14.3850002         1.26439360E-07
   14.4949999         1.31340116E-07
   14.6049995         1.35413245E-07
   14.7150002         1.38535015E-07
   14.8249998         1.40581946E-07
   14.9350004         1.41485643E-07
   15.0450001         1.41205817E-07
   15.1549997         1.39680779E-07
   15.2650003         1.36860251E-07
   15.3750000         1.32756639E-07
   15.4849997         1.27410360E-07
   15.5950003         1.20840440E-07
   15.7049999         1.13084710E-07
   15.8149996         1.04248798E-07
   15.9250002         9.44572989E-08
   16.0349998         8.38015595E-08
   16.1450005         7.23922540E-08
   16.2549992         6.04096613E-08
   16.3649998         4.80387747E-08
   16.4750004         3.54095597E-08
   16.5849991         2.26609647E-08
   16.6949997         9.99619854E-09
   16.8050003        -2.39515296E-09
   16.9150009        -1.44026675E-08
   17.0249996        -2.59168793E-08
   17.1350002        -3.67646926E-08
   17.2450008        -4.67978332E-08
   17.3549995        -5.59673978E-08
   17.4650002        -6.42362608E-08
   17.5750008        -7.15019013E-08
   17.6849995        -7.76839855E-08
   17.7950001        -8.28023232E-08
   17.9050007        -8.68917525E-08
   18.0149994        -8.99301682E-08
   18.1250000        -9.19251306E-08
   18.2350006        -9.29731812E-08
   18.3449993        -9.31569843E-08
   18.4549999        -9.24844983E-08
   18.5650005        -9.10014961E-08
   18.6749992        -8.88541010E-08
   18.7849998        -8.61664304E-08
   18.8950005        -8.29692581E-08
   19.0049992        -7.93175161E-08
   19.1149998        -7.53534124E-08
   19.2250004        -7.11821784E-08
   19.3349991        -6.68138611E-08
   19.4449997        -6.22976088E-08
   19.5550003        -5.77788342E-08
   19.6650009        -5.33532649E-08
   19.7749996        -4.90014997E-08
   19.8850002        -4.47336745E-08
   19.9950008        -4.06556744E-08
   20.1049995        -3.68297783E-08
   20.2150002        -3.32210099E-08
   20.3250008        -2.98450367E-08
   20.4349995        -2.68159130E-08
   20.5450001        -2.41864004E-08
   20.6550007        -2.18979217E-08
   20.7649994        -1.99483079E-08
   20.8750000        -1.84531395E-08
   20.9850006        -1.74897181E-08
   21.0949993        -1.70437495E-08
   21.2049999        -1.71614634E-08
   21.3150005        -1.79915265E-08
   21.4249992        -1.96321626E-08
   21.5349998        -2.21049401E-08
   21.6450005        -2.55238213E-08
   21.7549992        -3.01255376E-08
   21.8649998        -3.60988857E-08
   21.9750004        -4.35541843E-08
   22.0849991        -5.26922470E-08
   22.1949997        -6.38326796E-08
   22.3050003        -7.72500073E-08
   22.4150009        -9.31561317E-08
   22.5249996        -1.11866257E-07
   22.6350002        -1.33805415E-07
   22.7450008        -1.59327911E-07
   22.8549995        -1.88699602E-07
   22.9650002        -2.22269108E-07
   23.0750008        -2.60476838E-07
   23.1849995        -3.03672095E-07
   23.2950001        -3.52080292E-07
   23.4050007        -4.05947020E-07
   23.5149994        -4.65532025E-07
   23.6250000        -5.30939360E-07
   23.7350006        -6.02097430E-07
   23.8449993        -6.78890274E-07
   23.9549999        -7.61132526E-07
   24.0650005        -8.48396951E-07
   24.1749992        -9.39999268E-07
   24.2849998        -1.03512582E-06
   24.3950005        -1.13281112E-06
   24.5049992        -1.23179302E-06
   24.6149998        -1.33052606E-06
   24.7250004        -1.42731767E-06
   24.8349991        -1.52031373E-06
   24.9449997        -1.60738045E-06
   25.0550003        -1.68615406E-06
   25.1650009        -1.75420962E-06
   25.2749996        -1.80908535E-06
   25.3850002        -1.84820726E-06
   25.4950008        -1.86897455E-06
   25.6049995        -1.86894795E-06
   25.7150002        -1.84589669E-06
   25.8250008        -1.79775827E-06
   25.9349995        -1.72274440E-06
   26.0450001        -1.61952778E-06
   26.1550007        -1.48728691E-06
   26.2649994        -1.32566549E-06
   26.3750000        -1.13485817E-06
   26.4850006        -9.15754640E-07
   26.5949993        -6.69935389E-07
   26.7049999        -3.99583286E-07
   26.8150005        -1.07501897E-07
   26.9249992         2.02822392E-07
   27.0349998         5.27291604E-07
   27.1450005         8.61343665E-07
   27.2549992         1.20001084E-06
   27.3649998         1.53795133E-06
   27.4750004         1.86959755E-06
   27.5849991         2.18935452E-06
   27.6949997         2.49170262E-06
   27.8050003         2.77126514E-06
   27.9150009         3.02296644E-06
   28.0249996         3.24222106E-06
   28.1350002         3.42503427E-06
   28.2450008         3.56805776E-06
   28.3549995         3.66869745E-06
   28.4650002         3.72522027E-06
   28.5750008         3.73677358E-06
   28.6849995         3.70336579E-06
   28.7950001         3.62588389E-06
   28.9050007         3.50610253E-06
   29.0149994         3.34661559E-06
   29.1250000         3.15072589E-06
   29.2350006         2.92236405E-06
   29.3449993         2.66601160E-06
   29.4549999         2.38656776E-06
   29.5650005         2.08920301E-06
   29.6749992         1.77924130E-06
   29.7849998         1.46205252E-06
   29.8950005         1.14291856E-06
   30.0049992         8.26892915E-07
   30.1149998         5.18697618E-07
   30.2250004         2.22651508E-07
   30.3349991        -5.73994789E-08
   30.4449997        -3.18151791E-07
   30.5550003        -5.56890654E-07
   30.6650009        -7.71503551E-07
   30.7749996        -9.60484272E-07
   30.8850002        -1.12292912E-06
   30.9950008        -1.25851454E-06
   31.1049995        -1.36744870E-06
   31.2150002        -1.45041224E-06
   31.3250008        -1.50850815E-06
   31.4349995        -1.54320799E-06
   31.5450001        -1.55628629E-06
   31.6550007        -1.54974191E-06
   31.7649994        -1.52573125E-06
   31.8750000        -1.48650918E-06
   31.9850006        -1.43436353E-06
   32.0950012        -1.37155371E-06
   32.2050018        -1.30027388E-06
   32.3149986        -1.22262907E-06
   32.4249992        -1.14059253E-06
   32.5349998        -1.05595734E-06
   32.6450005        -9.70320002E-07
   32.7550011        -8.85091652E-07
   32.8650017        -8.01495389E-07
   32.9749985        -7.20544790E-07
   33.0849991        -6.43048622E-07
   33.1949997        -5.69649330E-07
   33.3050003        -5.00838667E-07
   33.4150009        -4.36940127E-07
   33.5250015        -3.78112702E-07
   33.6349983        -3.24399565E-07
   33.7449989        -2.75766752E-07
   33.8549995        -2.32095772E-07
   33.9650002        -1.93178721E-07
   34.0750008        -1.58754219E-07
   34.1850014        -1.28545594E-07
   34.2949982        -1.02255747E-07
   34.4049988        -7.95523931E-08
   34.5149994        -6.00909402E-08
   34.6250000        -4.35479883E-08
   34.7350006        -2.96210843E-08
   34.8450012        -1.80121731E-08
   34.9550018        -8.43489811E-09
   35.0649986        -6.31455332E-10
   35.1749992         5.63225822E-09
   35.2849998         1.05769828E-08
   35.3950005         1.44001575E-08
   35.5050011         1.72660677E-08
   35.6150017         1.93198737E-08
   35.7249985         2.07012043E-08
   35.8349991         2.15336584E-08
   35.9449997         2.19167227E-08
   36.0550003         2.19403322E-08
   36.1650009         2.16896190E-08
   36.2750015         2.12236131E-08
   36.3849983         2.05729300E-08
   36.4949989         1.97764436E-08
   36.6049995         1.88984508E-08
   36.7150002         1.79928801E-08
   36.8250008         1.70764807E-08
   36.9350014         1.61570775E-08
   37.0449982         1.52593760E-08
   37.1549988         1.43983696E-08
   37.2649994         1.35570382E-08
   37.3750000         1.27213537E-08
   37.4850006         1.19132819E-08
   37.5950012         1.11603429E-08
   37.7050018         1.04571996E-08
   37.8149986         9.78613013E-09
   37.9249992         9.14919696E-09
   38.0349998         8.54850768E-09
   38.1450005         7.95995980E-09
   38.2550011         7.36122274E-09
   38.3650017         6.76622136E-09
   38.4749985         6.20202911E-09
   38.5849991         5.67155212E-09
   38.6949997         5.16593435E-09
   38.8050003         4.69088324E-09
   38.9150009         4.25203295E-09
   39.0250015         3.83527077E-09
   39.1349983         3.42883966E-09
   39.2449989         3.04600301E-09
   39.3549995         2.70323897E-09
   39.4650002         2.39665621E-09
   39.5750008         2.11950635E-09
   39.6850014         1.87866256E-09
   39.7949982         1.67258074E-09
   39.9049988         1.47624335E-09
   40.0149994         1.26818145E-09
   40.1250000         1.05118747E-09
   40.2350006         8.30743085E-10
   40.3450012         5.97336847E-10
   40.4550018         3.46127571E-10
   40.5649986         8.98065788E-11
   40.6749992        -1.64513236E-10
   40.7849998        -4.29870362E-10
   40.8950005        -7.17616633E-10
   41.0050011        -1.02073250E-09
   41.1150017        -1.32787203E-09
   41.2249985        -1.63252611E-09
   41.3349991        -1.91988403E-09
   41.4449997        -2.16576601E-09
   41.5550003        -2.35731212E-09
   41.6650009        -2.49844079E-09
   41.7750015        -2.59244293E-09
   41.8849983        -2.63694488E-09
   41.9949989        -2.63546829E-09
   42.1049995        -2.59397437E-09
   42.2150002        -2.50594545E-09
   42.3250008        -2.35926745E-09
   42.4350014        -2.15651763E-09
   42.5449982        -1.91217508E-09
   42.6549988        -1.63503155E-09
   42.7649994        -1.33099898E-09
   42.8750000        -1.01636677E-09
   42.9850006        -7.08138270E-10
   43.0950012        -4.05390915E-10
   43.2050018        -9.71169950E-11
   43.3149986         2.17201548E-10
   43.4249992         5.30378685E-10
   43.5349998         8.42538317E-10
   43.6450005         1.15569387E-09
   43.7550011         1.45937984E-09
   43.8650017         1.73782377E-09
   43.9749985         1.98703076E-09
   44.0849991         2.21210361E-09
   44.1949997         2.41306508E-09
   44.3050003         2.58394972E-09
   44.4150009         2.71904477E-09
   44.5250015         2.80998846E-09
   44.6349983         2.84314416E-09
   44.7449989         2.80762347E-09
   44.8549995         2.69913225E-09
   44.9650002         2.51202681E-09
   45.0750008         2.23891572E-09
   45.1850014         1.88328197E-09
   45.2949982         1.46043255E-09
   45.4049988         9.81553172E-10
   45.5149994         4.50620846E-10
   45.6250000        -1.19262517E-10
   45.7350006        -7.04039216E-10
   45.8450012        -1.28947841E-09
   45.9550018        -1.87519045E-09
   46.0649986        -2.44908915E-09
   46.1749992        -2.97624214E-09
   46.2849998        -3.42412476E-09
   46.3950005        -3.78245124E-09
   46.5050011        -4.04853706E-09
   46.6150017        -4.21304014E-09
   46.7249985        -4.27450253E-09
   46.8349991        -4.25007585E-09
   46.9449997        -4.15517976E-09
   47.0550003        -3.98642053E-09
   47.1650009        -3.73885989E-09
   47.2750015        -3.42560669E-09
   47.3849983        -3.06630632E-09
   47.4949989        -2.67176326E-09
   47.6049995        -2.25523933E-09
   47.7150002        -1.84339755E-09
   47.8250008        -1.45826540E-09
   47.9350014        -1.09964504E-09
   48.0449982        -7.59027841E-10
   48.1549988        -4.37782754E-10
   48.2649994        -1.39050965E-10
   48.3750000         1.42526851E-10
   48.4850006         4.08285156E-10
   48.5950012         6.47047804E-10
   48.7050018         8.52183157E-10
   48.8149986         1.03237263E-09
   48.9249992         1.19446308E-09
   49.0349998         1.33296152E-09
   49.1450005         1.44691237E-09
   49.2550011         1.54632895E-09
   49.3650017         1.62906388E-09
   49.4749985         1.67229497E-09
   49.5849991         1.65997693E-09
   49.6949997         1.59712499E-09
   49.8050003         1.48518997E-09
   49.9150009         1.30965783E-09
   50.0250015         1.06869391E-09
   50.1349983         7.88959842E-10
   50.2449989         4.94415620E-10
   50.3549995         1.82650298E-10
   50.4650002        -1.49810733E-10
   50.5750008        -4.82909823E-10
   50.6850014        -7.93730748E-10
   50.7949982        -1.07814480E-09
   50.9049988        -1.32920919E-09
   51.0149994        -1.51481472E-09
   51.1250000        -1.60170233E-09
   51.2350006        -1.58731006E-09
   51.3450012        -1.48783641E-09
   51.4550018        -1.31094224E-09
   51.5649986        -1.06244824E-09
   51.6749992        -7.66351760E-10
   51.7849998        -4.53712373E-10
   51.8950005        -1.38305409E-10
   52.0050011         1.76662227E-10
   52.1150017         4.72603734E-10
   52.2249985         7.14385329E-10
   52.3349991         8.72158290E-10
   52.4449997         9.28653376E-10
   52.5550003         8.67734828E-10
   52.6650009         6.74167666E-10
   52.7750015         3.49327373E-10
   52.8849983        -8.55356341E-11
   52.9949989        -6.07003892E-10
   53.1049995        -1.20097632E-09
   53.2150002        -1.85255000E-09
   53.3250008        -2.53580512E-09
   53.4350014        -3.22173621E-09
   53.5449982        -3.88774524E-09
   53.6549988        -4.51095827E-09
   53.7649994        -5.06141795E-09
   53.8750000        -5.51360868E-09
   53.9850006        -5.85840443E-09
   54.0950012        -6.09357897E-09
   54.2050018        -6.21152108E-09
   54.3149986        -6.20894713E-09
   54.4249992        -6.09903950E-09
   54.5349998        -5.89946536E-09
   54.6450005        -5.61899416E-09
   54.7550011        -5.27103738E-09
   54.8650017        -4.88513363E-09
   54.9749985        -4.48368054E-09
   55.0849991        -4.06146894E-09
   55.1949997        -3.61100350E-09
   55.3050003        -3.15144488E-09
   55.4150009        -2.70619549E-09
   55.5250015        -2.27101649E-09
   55.6349983        -1.83605053E-09
   55.7449989        -1.41944934E-09
   55.8549995        -1.04131970E-09
   55.9650002        -6.82094103E-10
   56.0750008        -3.08607695E-10
   56.1850014         7.24821661E-11
   56.2949982         4.28188346E-10
   56.4049988         7.50019991E-10
   56.5149994         1.04647824E-09
   56.6250000         1.29911160E-09
   56.7350006         1.47414714E-09
   56.8450012         1.56881752E-09
   56.9550018         1.60094060E-09
   57.0649986         1.56152036E-09
   57.1749992         1.42224643E-09
   57.2849998         1.18168364E-09
   57.3950005         8.61207050E-10
   57.5050011         4.64501493E-10
   57.6150017        -1.59249142E-11
   57.7249985        -5.60137770E-10
   57.8349991        -1.12901155E-09
   57.9449997        -1.70196679E-09
   58.0550003        -2.26894192E-09
   58.1650009        -2.79704193E-09
   58.2750015        -3.24424465E-09
   58.3849983        -3.59583141E-09
   58.4949989        -3.85228738E-09
   58.6049995        -3.99602618E-09
   58.7150002        -4.00733979E-09
   58.8250008        -3.89859922E-09
   58.9350014        -3.69495368E-09
   59.0449982        -3.39546458E-09
   59.1549988        -2.99132275E-09
   59.2649994        -2.50887355E-09
   59.3750000        -1.99573091E-09
   59.4850006        -1.47563872E-09
   59.5950012        -9.55177826E-10
   59.7050018        -4.64281030E-10
   59.8149986        -4.83572279E-11
   59.9249992         2.77135315E-10
   60.0349998         5.27512034E-10
   60.1450005         7.04888647E-10
   60.2550011         7.87951482E-10
   60.3650017         7.68442809E-10
   60.4749985         6.65530742E-10
   60.5849991         4.96481911E-10
   60.6949997         2.61311833E-10
   60.8050003        -3.29539798E-11
   60.9150009        -3.57851193E-10
   61.0250015        -6.88120450E-10
   61.1349983        -1.02185083E-09
   61.2449989        -1.36097889E-09
   61.3549995        -1.68849235E-09
   61.4650002        -1.98338679E-09
   61.5750008        -2.24589347E-09
   61.6850014        -2.48828846E-09
   61.7949982        -2.71031442E-09
   61.9049988        -2.90495450E-09
   62.0149994        -3.08077230E-09
   62.1250000        -3.25380167E-09
   62.2350006        -3.42060114E-09
   62.3450012        -3.56401086E-09
   62.4550018        -3.68327879E-09
   62.5649986        -3.79210707E-09
   62.6749992        -3.88873556E-09
   62.7849998        -3.95765465E-09
   62.8950005        -4.00028544E-09
   63.0050011        -4.03013711E-09
   63.1150017        -4.03512956E-09
   63.2249985        -3.98087252E-09
   63.3349991        -3.85641119E-09
   63.4449997        -3.67982533E-09
   63.5550003        -3.45418161E-09
   63.6650009        -3.16026072E-09
   63.7750015        -2.80089441E-09
   63.8849983        -2.40724929E-09
   63.9949989        -1.98892569E-09
   64.1050034        -1.52356316E-09
   64.2149963        -1.01063591E-09
   64.3249969        -4.89373875E-10
   64.4349976         1.32823110E-11
   64.5449982         5.06043984E-10
   64.6549988         9.87323778E-10
   64.7649994         1.42394196E-09
   64.8750000         1.79614701E-09
   64.9850006         2.11758433E-09
   65.0950012         2.38981723E-09
   65.2050018         2.58325183E-09
   65.3150024         2.68459144E-09
   65.4250031         2.71753064E-09
   65.5350037         2.69564526E-09
   65.6449966         2.60172817E-09
   65.7549973         2.43501908E-09
   65.8649979         2.22962582E-09
   65.9749985         2.00122319E-09
   66.0849991         1.72370029E-09
   66.1949997         1.38571454E-09
   66.3050003         1.02337738E-09
   66.4150009         6.68095412E-10
   66.5250015         3.08451209E-10
   66.6350021        -6.46837237E-11
   66.7450027        -4.21255864E-10
   66.8550034        -7.37352179E-10
   66.9649963        -1.03649200E-09
   67.0749969        -1.34545453E-09
   67.1849976        -1.64341851E-09
   67.2949982        -1.89565252E-09
   67.4049988        -2.10736673E-09
   67.5149994        -2.30138197E-09
   67.6250000        -2.46702170E-09
   67.7350006        -2.57550425E-09
   67.8450012        -2.62899391E-09
   67.9550018        -2.65155053E-09
   68.0650024        -2.64248223E-09
   68.1750031        -2.57912292E-09
   68.2850037        -2.45910048E-09
   68.3949966        -2.30102248E-09
   68.5049973        -2.10572959E-09
   68.6149979        -1.85366411E-09
   68.7249985        -1.54214286E-09
   68.8349991        -1.19204369E-09
   68.9449997        -8.15822188E-10
   69.0550003        -4.11991136E-10
   69.1650009         5.81445135E-12
   69.2750015         4.08430623E-10
   69.3850021         7.85120635E-10
   69.4950027         1.14457166E-09
   69.6050034         1.47713530E-09
   69.7149963         1.75220483E-09
   69.8249969         1.95890792E-09
   69.9349976         2.10878648E-09
   70.0449982         2.18974439E-09
   70.1549988         2.16388973E-09
   70.2649994         2.02618855E-09
   70.3750000         1.81685245E-09
   70.4850006         1.55622981E-09
   70.5950012         1.21979227E-09
   70.7050018         8.03435596E-10
   70.8150024         3.57458174E-10
   70.9250031        -7.97327759E-11
   71.0350037        -5.26657939E-10
   71.1449966        -9.95608596E-10
   71.2549973        -1.43917500E-09
   71.3649979        -1.81030169E-09
   71.4749985        -2.12527795E-09
   71.5849991        -2.41073095E-09
   71.6949997        -2.63400923E-09
   71.8050003        -2.74779999E-09
   71.9150009        -2.76494183E-09
   72.0250015        -2.72700018E-09
   72.1350021        -2.63371591E-09
   72.2450027        -2.46629428E-09
   72.3550034        -2.24874008E-09
   72.4649963        -2.02160622E-09
   72.5749969        -1.78019277E-09
   72.6849976        -1.49880119E-09
   72.7949982        -1.19178734E-09
   72.9049988        -8.93129015E-10
   73.0149994        -6.00981043E-10
   73.1250000        -2.99542224E-10
   73.2350006        -9.23827681E-12
   73.3450012         2.43333798E-10
   73.4550018         4.79264350E-10
   73.5650024         7.32517380E-10
   73.6750031         9.88213844E-10
   73.7850037         1.21537636E-09
   73.8949966         1.43180667E-09
   74.0049973         1.67009451E-09
   74.1149979         1.90541338E-09
   74.2249985         2.08795603E-09
   74.3349991         2.22486896E-09
   74.4449997         2.35513431E-09
   74.5550003         2.46036147E-09
   74.6650009         2.47961740E-09
   74.7750015         2.40349118E-09
   74.8850021         2.27364816E-09
   74.9950027         2.09223106E-09
   75.1050034         1.81337056E-09
   75.2149963         1.43019074E-09
   75.3249969         9.90054372E-10
   75.4349976         5.10396059E-10
   75.5449982        -4.29395096E-11
   75.6549988        -6.73724576E-10
   75.7649994        -1.32482847E-09
   75.8750000        -1.95340233E-09
   75.9850006        -2.56801314E-09
   76.0950012        -3.16585314E-09
   76.2050018        -3.70145714E-09
   76.3150024        -4.14872536E-09
   76.4250031        -4.53104132E-09
   76.5350037        -4.85901142E-09
   76.6449966        -5.09965270E-09
   76.7549973        -5.23788257E-09
   76.8649979        -5.30671684E-09
   76.9749985        -5.32545652E-09
   77.0849991        -5.27177191E-09
   77.1949997        -5.14757126E-09
   77.3050003        -5.00509412E-09
   77.4150009        -4.87017138E-09
   77.5250015        -4.70727235E-09
   77.6350021        -4.50035431E-09
   77.7450027        -4.29699032E-09
   77.8550034        -4.12602130E-09
   77.9649963        -3.94287181E-09
   78.0749969        -3.70801989E-09
   78.1849976        -3.44781714E-09
   78.2949982        -3.17954441E-09
   78.4049988        -2.84745250E-09
   78.5149994        -2.40037790E-09
   78.6250000        -1.86961646E-09
   78.7350006        -1.30153543E-09
   78.8450012        -6.72957301E-10
   78.9550018         5.51349175E-11
   79.0650024         8.54752213E-10
   79.1750031         1.67408998E-09
   79.2850037         2.51309884E-09
   79.3949966         3.38264661E-09
   79.5049973         4.23190860E-09
   79.6149979         4.98742292E-09