  -9.37500000         1.00000002E-24
  -9.26500034         1.00000002E-24
  -9.15499973         1.00000012E-24
  -9.04500008         1.00000032E-24
  -8.93500042         1.00000022E-24
  -8.82499981         1.00000002E-24
  -8.71500015         1.00000002E-24
  -8.60499954         1.00000012E-24
  -8.49499989         1.00000032E-24
  -8.38500023         1.00000012E-24
  -8.27499962         9.99999921E-25
  -8.16499996         9.99999921E-25
  -8.05500031         1.00000012E-24
  -7.94500017         1.00000022E-24
  -7.83500004         1.00000022E-24
  -7.72499990         1.00000061E-24
  -7.61499977         1.00000091E-24
  -7.50500011         9.99996568E-25
  -7.39499998         1.00000367E-24
  -7.28499985         1.00004991E-24
  -7.17500019         9.99893030E-25
  -7.06500006         9.99522660E-25
  -6.95499992         1.00124277E-24
  -6.84499979         1.00360571E-24
  -6.73500013         9.90173869E-25
  -6.62500000         9.77341962E-25
  -6.51499987         1.06118170E-24
  -6.40500021         1.12025693E-24
  -6.29500008         6.66823482E-25
  -6.18499994         4.39965082E-25
  -6.07499981         2.72885052E-24
  -5.96500015         3.57273290E-24
  -5.85500002        -7.66134138E-24
  -5.74499989        -1.23767582E-23
  -5.63500023         3.98710496E-23
  -5.52500010         7.65216661E-23
  -5.41499996        -1.37718378E-22
  -5.30499983        -3.92117210E-22
  -5.19500017         3.18349703E-22
  -5.08500004         1.69375217E-21
  -4.97499990         2.90832348E-23
  -4.86499977        -5.71413176E-21
  -4.75500011        -4.25348590E-21
  -4.64499998         1.42887066E-20
  -4.53499985         2.29336778E-20
  -4.42500019        -2.23878194E-20
  -4.31500006        -7.66212232E-20
  -4.20499992         4.21694849E-22
  -4.09499979         1.82723564E-19
  -3.98499990         1.24936080E-19
  -3.87500000        -3.12752544E-19
  -3.76500010        -4.55078532E-19
  -3.65499997         3.50949961E-19
  -3.54500008         1.05357509E-18
  -3.43499994        -1.44251833E-19
  -3.32500005        -1.96774232E-18
  -3.21499991        -4.02804802E-19
  -3.10500002         3.59780967E-18
  -2.99499989         1.75962968E-18
  -2.88499999        -7.10132571E-18
  -2.77500010        -6.56701873E-18
  -2.66499996         1.28934007E-17
  -2.55500007         2.18222571E-17
  -2.44499993        -1.46424071E-17
  -2.33500004        -5.60910048E-17
  -2.22499990        -9.19394294E-18
  -2.11500001         1.04669516E-16
  -2.00500011         9.41432122E-17
  -1.89499998        -1.25273473E-16
  -1.78499997        -2.62230521E-16
  -1.67499995         2.67080473E-17
  -1.56500006         4.67462025E-16
  -1.45500004         2.95760241E-16
  -1.34500003        -5.47112345E-16
  -1.23500001        -8.62525233E-16
  -1.12500000         2.40251816E-16
  -1.01499999         1.48435642E-15
 -0.904999971         6.70722616E-16
 -0.795000017        -1.71517321E-15
 -0.685000002        -2.11836969E-15
 -0.574999988         1.01616764E-15
 -0.465000004         3.58819547E-15
 -0.354999989         8.81615132E-16
 -0.245000005        -4.27267390E-15
 -0.135000005        -3.72059603E-15
  -2.50000004E-02     3.46607364E-15
   8.50000009E-02     6.84544203E-15
  0.194999993        -7.37212690E-16
  0.305000007        -9.39601790E-15
  0.414999992        -4.18789140E-15
  0.524999976         1.00592371E-14
  0.634999990         1.10728797E-14
  0.745000005        -6.97863457E-15
  0.855000019        -1.82638396E-14
  0.964999974        -1.17447259E-15
   1.07500005         2.27281064E-14
   1.18499994         1.40202630E-14
   1.29499996        -2.11877482E-14
   1.40499997        -2.95270095E-14
   1.51499999         1.03175101E-14
   1.62500000         4.30093244E-14
   1.73500001         1.18971097E-14
   1.84500003        -4.54872719E-14
   1.95500004        -3.98368133E-14
   2.06500006         3.06363076E-14
   2.17499995         5.99111689E-14
   2.28500009        -6.78432310E-15
   2.39499998        -6.90306441E-14
   2.50500011        -1.46597635E-14
   2.61500001         8.30251463E-14
   2.72499990         4.97196244E-14
   2.83500004        -9.94151999E-14
   2.94499993        -1.25912274E-13
   3.05500007         7.08413566E-14
   3.16499996         2.21627485E-13
   3.27500010         4.04210153E-14
   3.38499999        -2.73756007E-13
   3.49499989        -2.20078553E-13
   3.60500002         2.35549319E-13
   3.71499991         4.47376565E-13
   3.82500005        -3.31270622E-14
   3.93499994        -6.42033789E-13
   4.04500008        -4.24466235E-13
   4.15500021         5.31110908E-13
   4.26499987         9.54568889E-13
   4.37500000         8.58944670E-14
   4.48500013        -1.05336497E-12
   4.59499979        -8.65475389E-13
   4.70499992         5.36549646E-13
   4.81500006         1.25714337E-12
   4.92500019         1.98214207E-13
   5.03499985        -1.22776962E-12
   5.14499998        -9.23936492E-13
   5.25500011         8.50290975E-13
   5.36499977         1.62891510E-12
   5.47499990         1.67618008E-13
   5.58500004        -1.64603379E-12
   5.69500017        -1.34243159E-12
   5.80499983         6.03935684E-13
   5.91499996         1.44333601E-12
   6.02500010         1.86375817E-13
   6.13500023        -9.63478971E-13
   6.24499989        -6.72116984E-14
   6.35500002         1.39413394E-12
   6.46500015         7.19093947E-13
   6.57499981        -1.58801108E-12
   6.68499994        -2.17687283E-12
   6.79500008         7.34334468E-14
   6.90500021         2.02546248E-12
   7.01499987         9.19065388E-13
   7.12500000        -1.20192831E-12
   7.23500013        -5.36039800E-13
   7.34499979         2.16394741E-12
   7.45499992         2.12334230E-12
   7.56500006        -1.94957071E-12
   7.67500019        -4.76281167E-12
   7.78499985        -1.64321269E-12
   7.89499998         3.86063534E-12
   8.00500011         4.06969423E-12
   8.11499977        -1.60522767E-12
   8.22500038        -4.72935363E-12
   8.33500004         3.77773523E-13
   8.44499969         7.23325479E-12
   8.55500031         5.02078761E-12
   8.66499996        -5.55002702E-12
   8.77499962        -1.11771538E-11
   8.88500023        -3.54202735E-12
   8.99499989         8.09801184E-12
   9.10499954         8.50663637E-12
   9.21500015        -2.38045022E-12
   9.32499981        -8.97474716E-12
   9.43500042        -2.11086552E-12
   9.54500008         7.88808949E-12
   9.65499973         6.75925114E-12
   9.76500034        -2.18069616E-12
   9.87500000        -2.80418787E-12
   9.98499966         9.63248405E-12
   10.0950003         2.12608819E-11
   10.2049999         2.04424117E-11
   10.3149996         1.56131809E-11
   10.4250002         2.35880603E-11
   10.5349998         4.56005719E-11
   10.6450005         6.60188709E-11
   10.7550001         7.55020629E-11
   10.8649998         8.57356200E-11
   10.9750004         1.15277968E-10
   11.0850000         1.66257258E-10
   11.1949997         2.24067168E-10
   11.3050003         2.80691054E-10
   11.4150000         3.49492491E-10
   11.5249996         4.50465665E-10
   11.6350002         5.86921511E-10
   11.7449999         7.48520412E-10
   11.8549995         9.37314226E-10
   11.9650002         1.17670973E-09
   12.0749998         1.48728019E-09
   12.1850004         1.86656868E-09
   12.2950001         2.30774999E-09
   12.4049997         2.83137891E-09
   12.5150003         3.48016638E-09
   12.6250000         4.28224300E-09
   12.7349997         5.23830668E-09
   12.8450003         6.35210506E-09
   12.9549999         7.65800845E-09
   13.0649996         9.20627841E-09
   13.1750002         1.10309282E-08
   13.2849998         1.31463009E-08
   13.3950005         1.55721001E-08
   13.5050001         1.83490947E-08
   13.6149998         2.15271463E-08
   13.7250004         2.51448018E-08
   13.8350000         2.92253901E-08
   13.9449997         3.37910642E-08
   14.0550003         3.88743757E-08
   14.1650000         4.45089157E-08
   14.2749996         5.07074347E-08
   14.3850002         5.74572141E-08
   14.4949999         6.47420961E-08
   14.6049995         7.25588691E-08
   14.7150002         8.08986016E-08
   14.8249998         8.97160817E-08
   14.9350004         9.89322544E-08
   15.0450001         1.08463446E-07
   15.1549997         1.18229167E-07
   15.2650003         1.28126587E-07
   15.3750000         1.38014471E-07
   15.4849997         1.47731541E-07
   15.5950003         1.57117469E-07
   15.7049999         1.66004682E-07
   15.8149996         1.74198760E-07
   15.9250002         1.81482619E-07
   16.0349998         1.87641433E-07
   16.1450005         1.92477501E-07
   16.2549992         1.95803679E-07
   16.3649998         1.97431618E-07
   16.4750004         1.97173577E-07
   16.5849991         1.94859780E-07
   16.6949997         1.90357412E-07
   16.8050003         1.83576773E-07
   16.9150009         1.74464802E-07
   17.0249996         1.63000337E-07
   17.1350002         1.49199295E-07
   17.2450008         1.33123550E-07
   17.3549995         1.14886802E-07
   17.4650002         9.46578922E-08
   17.5750008         7.26587217E-08
   17.6849995         4.91538792E-08
   17.7950001         2.44402916E-08
   17.9050007        -1.15297050E-09
   18.0149994        -2.72627876E-08
   18.1250000        -5.35015552E-08
   18.2350006        -7.94707304E-08
   18.3449993        -1.04764787E-07
   18.4549999        -1.28976708E-07
   18.5650005        -1.51718766E-07
   18.6749992        -1.72640355E-07
   18.7849998        -1.91422956E-07
   18.8950005        -2.07772899E-07
   19.0049992        -2.21438739E-07
   19.1149998        -2.32232679E-07
   19.2250004        -2.40026139E-07
   19.3349991        -2.44740562E-07
   19.4449997        -2.46361168E-07
   19.5550003        -2.44947557E-07
   19.6650009        -2.40609467E-07
   19.7749996        -2.33486148E-07
   19.8850002        -2.23768367E-07
   19.9950008        -2.11718529E-07
   20.1049995        -1.97636865E-07
   20.2150002        -1.81819914E-07
   20.3250008        -1.64576505E-07
   20.4349995        -1.46259126E-07
   20.5450001        -1.27234870E-07
   20.6550007        -1.07832641E-07
   20.7649994        -8.83500135E-08
   20.8750000        -6.90926427E-08
   20.9850006        -5.03618978E-08
   21.0949993        -3.24087672E-08
   21.2049999        -1.54344377E-08
   21.3150005         3.77180176E-10
   21.4249992         1.48691006E-08
   21.5349998         2.79455019E-08
   21.6450005         3.95578148E-08
   21.7549992         4.96634485E-08
   21.8649998         5.82337698E-08
   21.9750004         6.52929515E-08
   22.0849991         7.09104242E-08
   22.1949997         7.51608411E-08
   22.3050003         7.81240885E-08
   22.4150009         7.99120059E-08
   22.5249996         8.06541962E-08
   22.6350002         8.04603530E-08
   22.7450008         7.94289150E-08
   22.8549995         7.76845326E-08
   22.9650002         7.53710339E-08
   23.0750008         7.26090761E-08
   23.1849995         6.94903335E-08
   23.2950001         6.61081003E-08
   23.4050007         6.25627052E-08
   23.5149994         5.89363012E-08
   23.6250000         5.52877530E-08
   23.7350006         5.16731085E-08
   23.8449993         4.81500244E-08
   23.9549999         4.47607640E-08
   24.0650005         4.15285477E-08
   24.1749992         3.84730718E-08
   24.2849998         3.56172691E-08
   24.3950005         3.29767325E-08
   24.5049992         3.05522185E-08
   24.6149998         2.83367445E-08
   24.7250004         2.63272710E-08
   24.8349991         2.45267504E-08
   24.9449997         2.29353585E-08
   25.0550003         2.15447802E-08
   25.1650009         2.03466950E-08
   25.2749996         1.93423180E-08
   25.3850002         1.85345606E-08
   25.4950008         1.79169373E-08
   25.6049995         1.74854158E-08
   25.7150002         1.72566139E-08
   25.8250008         1.72565979E-08
   25.9349995         1.74977988E-08
   26.0450001         1.79880058E-08
   26.1550007         1.87546103E-08
   26.2649994         1.98359782E-08
   26.3750000         2.12590923E-08
   26.4850006         2.30544721E-08
   26.5949993         2.52815546E-08
   26.7049999         2.80072978E-08
   26.8150005         3.12724850E-08
   26.9249992         3.51118743E-08
   27.0349998         3.95889401E-08
   27.1450005         4.47722606E-08
   27.2549992         5.06976718E-08
   27.3649998         5.73935530E-08
   27.4750004         6.49162004E-08
   27.5849991         7.33116607E-08
   27.6949997         8.25657196E-08
   27.8050003         9.26347710E-08
   27.9150009         1.03489938E-07
   28.0249996         1.15075423E-07
   28.1350002         1.27254665E-07
   28.2450008         1.39845881E-07
   28.3549995         1.52665280E-07
   28.4650002         1.65471420E-07
   28.5750008         1.77903331E-07
   28.6849995         1.89526077E-07
   28.7950001         1.99886301E-07
   28.9050007         2.08459610E-07
   29.0149994         2.14591864E-07
   29.1250000         2.17555069E-07
   29.2350006         2.16606949E-07
   29.3449993         2.10932171E-07
   29.4549999         1.99587774E-07
   29.5650005         1.81579964E-07
   29.6749992         1.55945244E-07
   29.7849998         1.21705042E-07
   29.8950005         7.78226692E-08
   30.0049992         2.32930315E-08
   30.1149998        -4.27715356E-08
   30.2250004        -1.21186275E-07
   30.3349991        -2.12725212E-07
   30.4449997        -3.18009540E-07
   30.5550003        -4.37406186E-07
   30.6650009        -5.71068369E-07
   30.7749996        -7.18966646E-07
   30.8850002        -8.80778430E-07
   30.9950008        -1.05579750E-06
   31.1049995        -1.24299015E-06
   31.2150002        -1.44103433E-06
   31.3250008        -1.64821608E-06
   31.4349995        -1.86235070E-06
   31.5450001        -2.08086772E-06
   31.6550007        -2.30088995E-06
   31.7649994        -2.51916663E-06
   31.8750000        -2.73203409E-06
   31.9850006        -2.93554376E-06
   32.0950012        -3.12558245E-06
   32.2050018        -3.29785507E-06
   32.3149986        -3.44789032E-06
   32.4249992        -3.57120075E-06
   32.5349998        -3.66344784E-06
   32.6450005        -3.72048476E-06
   32.7550011        -3.73840862E-06
   32.8650017        -3.71372607E-06
   32.9749985        -3.64351263E-06
   33.0849991        -3.52546908E-06
   33.1949997        -3.35798131E-06
   33.3050003        -3.14025783E-06
   33.4150009        -2.87243415E-06
   33.5250015        -2.55558552E-06
   33.6349983        -2.19173785E-06
   33.7449989        -1.78393100E-06
   33.8549995        -1.33622007E-06
   33.9650002        -8.53583344E-07
   34.0750008        -3.41842480E-07
   34.1850014         1.92378138E-07
   34.2949982         7.41760630E-07
   34.4049988         1.29848240E-06
   34.5149994         1.85437898E-06
   34.6250000         2.40106283E-06
   34.7350006         2.93010589E-06
   34.8450012         3.43328111E-06
   34.9550018         3.90275000E-06
   35.0649986         4.33119203E-06
   35.1749992         4.71197200E-06
   35.2849998         5.03934052E-06
   35.3950005         5.30856005E-06
   35.5050011         5.51595576E-06
   35.6150017         5.65899745E-06
   35.7249985         5.73640136E-06
   35.8349991         5.74813748E-06
   35.9449997         5.69535177E-06
   36.0550003         5.58033025E-06
   36.1650009         5.40647670E-06
   36.2750015         5.17819899E-06
   36.3849983         4.90071307E-06
   36.4949989         4.57991700E-06
   36.6049995         4.22230596E-06
   36.7150002         3.83480756E-06
   36.8250008         3.42453814E-06
   36.9350014         2.99863927E-06
   37.0449982         2.56419139E-06
   37.1549988         2.12807140E-06
   37.2649994         1.69674502E-06
   37.3750000         1.27614260E-06
   37.4850006         8.71638633E-07
   37.5950012         4.87992452E-07
   37.7050018         1.29222244E-07
   37.8149986        -2.01447307E-07
   37.9249992        -5.01525619E-07
   38.0349998        -7.69225323E-07
   38.1450005        -1.00351110E-06
   38.2550011        -1.20408811E-06
   38.3650017        -1.37127506E-06
   38.4749985        -1.50590211E-06
   38.5849991        -1.60930404E-06
   38.6949997        -1.68328688E-06
   38.8050003        -1.72998364E-06
   38.9150009        -1.75173170E-06
   39.0250015        -1.75105890E-06
   39.1349983        -1.73065712E-06
   39.2449989        -1.69325483E-06
   39.3549995        -1.64150322E-06
   39.4650002        -1.57797786E-06
   39.5750008        -1.50518247E-06
   39.6850014        -1.42545957E-06
   39.7949982        -1.34091556E-06
   39.9049988        -1.25345457E-06
   40.0149994        -1.16481328E-06
   40.1250000        -1.07650339E-06
   40.2350006        -9.89762839E-07
   40.3450012        -9.05608204E-07
   40.4550018        -8.24892595E-07
   40.5649986        -7.48273067E-07
   40.6749992        -6.76186744E-07
   40.7849998        -6.08920402E-07
   40.8950005        -5.46669696E-07
   41.0050011        -4.89507499E-07
   41.1150017        -4.37363241E-07
   41.2249985        -3.90090946E-07
   41.3349991        -3.47523127E-07
   41.4449997        -3.09434341E-07
   41.5550003        -2.75522666E-07
   41.6650009        -2.45477906E-07
   41.7750015        -2.19025949E-07
   41.8849983        -1.95881057E-07
   41.9949989        -1.75717702E-07
   42.1049995        -1.58226570E-07
   42.2150002        -1.43144959E-07
   42.3250008        -1.30206644E-07
   42.4350014        -1.19124905E-07
   42.5449982        -1.09654657E-07
   42.6549988        -1.01612201E-07
   42.7649994        -9.48094723E-08
   42.8750000        -8.90314311E-08
   42.9850006        -8.41000301E-08
   43.0950012        -7.98956705E-08
   43.2050018        -7.62939436E-08
   43.3149986        -7.31459124E-08
   43.4249992        -7.03422955E-08
   43.5349998        -6.78339092E-08
   43.6450005        -6.55685852E-08
   43.7550011        -6.34682493E-08
   43.8650017        -6.14843572E-08
   43.9749985        -5.96142726E-08
   44.0849991        -5.78453658E-08
   44.1949997        -5.61393598E-08
   44.3050003        -5.44852661E-08
   44.4150009        -5.29121067E-08
   44.5250015        -5.14347533E-08
   44.6349983        -5.00363591E-08
   44.7449989        -4.87132965E-08
   44.8549995        -4.74884416E-08
   44.9650002        -4.63688217E-08
   45.0750008        -4.53315252E-08
   45.1850014        -4.43597550E-08
   45.2949982        -4.34578808E-08
   45.4049988        -4.26257074E-08
   45.5149994        -4.18471267E-08
   45.6250000        -4.11064285E-08
   45.7350006        -4.03938643E-08
   45.8450012        -3.96981115E-08
   45.9550018        -3.90107147E-08
   46.0649986        -3.83311303E-08
   46.1749992        -3.76566014E-08
   46.2849998        -3.69805342E-08
   46.3950005        -3.63094692E-08
   46.5050011        -3.56634722E-08
   46.6150017        -3.50522953E-08
   46.7249985        -3.44709790E-08
   46.8349991        -3.39232571E-08
   46.9449997        -3.34256569E-08
   47.0550003        -3.29828254E-08
   47.1650009        -3.25817915E-08
   47.2750015        -3.22147855E-08
   47.3849983        -3.18860849E-08
   47.4949989        -3.15924922E-08
   47.6049995        -3.13153841E-08
   47.7150002        -3.10339630E-08
   47.8250008        -3.07324157E-08
   47.9350014        -3.03961230E-08
   48.0449982        -3.00119360E-08
   48.1549988        -2.95698879E-08
   48.2649994        -2.90621820E-08
   48.3750000        -2.84906285E-08
   48.4850006        -2.78734351E-08
   48.5950012        -2.72284844E-08
   48.7050018        -2.65557460E-08
   48.8149986        -2.58587036E-08
   48.9249992        -2.51731613E-08
   49.0349998        -2.45444500E-08
   49.1450005        -2.39871252E-08
   49.2550011        -2.35024462E-08
   49.3650017        -2.31205171E-08
   49.4749985        -2.28794246E-08
   49.5849991        -2.27728378E-08
   49.6949997        -2.27651533E-08
   49.8050003        -2.28480364E-08
   49.9150009        -2.30321575E-08
   50.0250015        -2.32922730E-08
   50.1349983        -2.35716442E-08
   50.2449989        -2.38332998E-08
   50.3549995        -2.40580107E-08
   50.4650002        -2.42015599E-08
   50.5750008        -2.42049012E-08
   50.6850014        -2.40404461E-08
   50.7949982        -2.37046951E-08
   50.9049988        -2.31772894E-08
   51.0149994        -2.24318555E-08
   51.1250000        -2.14755698E-08
   51.2350006        -2.03383870E-08
   51.3450012        -1.90388363E-08
   51.4550018        -1.75972499E-08
   51.5649986        -1.60630975E-08
   51.6749992        -1.44940397E-08
   51.7849998        -1.29293296E-08
   51.8950005        -1.14125926E-08
   52.0050011        -1.00101198E-08
   52.1150017        -8.77445228E-09
   52.2249985        -7.72041897E-09
   52.3349991        -6.86427537E-09
   52.4449997        -6.24856300E-09
   52.5550003        -5.89876681E-09
   52.6650009        -5.79503778E-09
   52.7750015        -5.91525229E-09
   52.8849983        -6.26280050E-09
   52.9949989        -6.82181067E-09
   53.1049995        -7.52978124E-09
   53.2150002        -8.32718783E-09
   53.3250008        -9.19301435E-09
   53.4350014        -1.01038822E-08
   53.5449982        -1.10040359E-08
   53.6549988        -1.18464927E-08
   53.7649994        -1.26204132E-08
   53.8750000        -1.33087310E-08
   53.9850006        -1.38624978E-08
   54.0950012        -1.42474157E-08
   54.2050018        -1.44761367E-08
   54.3149986        -1.45682968E-08
   54.4249992        -1.45185215E-08
   54.5349998        -1.43284735E-08
   54.6450005        -1.40301539E-08
   54.7550011        -1.36511220E-08
   54.8650017        -1.31914888E-08
   54.9749985        -1.26563799E-08
   55.0849991        -1.20770105E-08
   55.1949997        -1.14819390E-08
   55.3050003        -1.08811138E-08
   55.4150009        -1.02918136E-08
   55.5250015        -9.74446213E-09
   55.6349983        -9.24958954E-09
   55.7449989        -8.79352680E-09
   55.8549995        -8.37650838E-09
   55.9650002        -8.01955924E-09
   56.0750008        -7.72728814E-09
   56.1850014        -7.48298046E-09
   56.2949982        -7.28718730E-09
   56.4049988        -7.16001125E-09
   56.5149994        -7.09802706E-09
   56.6250000        -7.07175429E-09
   56.7350006        -7.07374825E-09
   56.8450012        -7.12448056E-09
   56.9550018        -7.22103710E-09
   57.0649986        -7.32714334E-09
   57.1749992        -7.42759010E-09
   57.2849998        -7.54498952E-09
   57.3950005        -7.68474706E-09
   57.5050011        -7.81012055E-09
   57.6150017        -7.89445931E-09
   57.7249985        -7.95406496E-09
   57.8349991        -8.00260747E-09
   57.9449997        -8.01337396E-09
   58.0550003        -7.95723309E-09
   58.1650009        -7.84315901E-09
   58.2750015        -7.68916308E-09
   58.3849983        -7.48330997E-09
   58.4949989        -7.20720950E-09
   58.6049995        -6.87403423E-09
   58.7150002        -6.50978782E-09
   58.8250008        -6.11516571E-09
   58.9350014        -5.67754821E-09
   59.0449982        -5.20654275E-09
   59.1549988        -4.72717021E-09
   59.2649994        -4.24774571E-09
   59.3750000        -3.76353571E-09
   59.4850006        -3.28695915E-09
   59.5950012        -2.84690849E-09
   59.7050018        -2.45767207E-09
   59.8149986        -2.11068607E-09
   59.9249992        -1.79964166E-09
   60.0349998        -1.53481494E-09
   60.1450005        -1.32762346E-09
   60.2550011        -1.17668042E-09
   60.3650017        -1.07614462E-09
   60.4749985        -1.02623032E-09
   60.5849991        -1.02818243E-09
   60.6949997        -1.07743292E-09
   60.8050003        -1.16776600E-09
   60.9150009        -1.29424282E-09
   61.0250015        -1.44674184E-09
   61.1349983        -1.61046332E-09
   61.2449989        -1.78021564E-09
   61.3549995        -1.96362504E-09
   61.4650002        -2.16068496E-09
   61.5750008        -2.35234676E-09
   61.6850014        -2.52283838E-09
   61.7949982        -2.68003619E-09
   61.9049988        -2.83455703E-09
   62.0149994        -2.97076408E-09
   62.1250000        -3.06337178E-09
   62.2350006        -3.11404658E-09
   62.3450012        -3.14280491E-09
   62.4550018        -3.14841975E-09
   62.5649986        -3.10944070E-09
   62.6749992        -3.02353720E-09
   62.7849998        -2.91182922E-09
   62.8950005        -2.78029311E-09
   63.0050011        -2.61062949E-09
   63.1150017        -2.39725639E-09
   63.2249985        -2.16130869E-09
   63.3349991        -1.91790406E-09
   63.4449997        -1.66014313E-09
   63.5550003        -1.38798240E-09
   63.6650009        -1.12497200E-09
   63.7750015        -8.92041163E-10
   63.8849983        -6.87873314E-10
   63.9949989        -5.08249054E-10
   64.1050034        -3.64917402E-10
   64.2149963        -2.73433692E-10
   64.3249969        -2.37631081E-10
   64.4349976        -2.54577970E-10
   64.5449982        -3.23493399E-10
   64.6549988        -4.46143344E-10
   64.7649994        -6.26297736E-10
   64.8750000        -8.64872340E-10
   64.9850006        -1.14775023E-09
   65.0950012        -1.44904899E-09
   65.2050018        -1.75596038E-09
   65.3150024        -2.07425721E-09
   65.4250031        -2.39811127E-09
   65.5350037        -2.69762901E-09
   65.6449966        -2.95358182E-09
   65.7549973        -3.17891335E-09
   65.8649979        -3.38348727E-09
   65.9749985        -3.54394292E-09
   66.0849991        -3.63556829E-09
   66.1949997        -3.66870978E-09
   66.3050003        -3.66344266E-09
   66.4150009        -3.61268770E-09
   66.5250015        -3.50442697E-09
   66.6350021        -3.35892203E-09
   66.7450027        -3.20697446E-09
   66.8550034        -3.04745273E-09
   66.9649963        -2.86227197E-09
   67.0749969        -2.65999733E-09
   67.1849976        -2.46803822E-09
   67.2949982        -2.29051667E-09
   67.4049988        -2.10961582E-09
   67.5149994        -1.92511407E-09
   67.6250000        -1.75948933E-09
   67.7350006        -1.62225966E-09
   67.8450012        -1.49771728E-09
   67.9550018        -1.37328682E-09
   68.0650024        -1.25721811E-09
   68.1750031        -1.16119880E-09
   68.2850037        -1.08339615E-09
   68.3949966        -1.01717257E-09
   68.5049973        -9.64364144E-10
   68.6149979        -9.32187993E-10
   68.7249985        -9.24721855E-10
   68.8349991        -9.43204848E-10
   68.9449997        -9.89556326E-10
   69.0550003        -1.06533393E-09
   69.1650009        -1.17033616E-09
   69.2750015        -1.30383737E-09
   69.3850021        -1.46314316E-09
   69.4950027        -1.63955716E-09
   69.6050034        -1.82050375E-09
   69.7149963        -1.99772043E-09
   69.8249969        -2.16876850E-09
   69.9349976        -2.32847430E-09
   70.0449982        -2.46461407E-09
   70.1549988        -2.56511945E-09
   70.2649994        -2.62318411E-09
   70.3750000        -2.63139421E-09
   70.4850006        -2.57885691E-09
   70.5950012        -2.46089060E-09
   70.7050018        -2.28481922E-09
   70.8150024        -2.05983586E-09
   70.9250031        -1.78929849E-09
   71.0350037        -1.48002044E-09
   71.1449966        -1.14843579E-09
   71.2549973        -8.07219402E-10
   71.3649979        -4.56085114E-10
   71.4749985        -9.73674752E-11
   71.5849991         2.50154786E-10
   71.6949997         5.66072023E-10
   71.8050003         8.45993942E-10
   71.9150009         1.09051579E-09
   72.0250015         1.28884248E-09
   72.1350021         1.43036127E-09
   72.2450027         1.52207080E-09
   72.3550034         1.57711177E-09
   72.4649963         1.59531255E-09
   72.5749969         1.57165514E-09
   72.6849976         1.51354407E-09
   72.7949982         1.43140644E-09
   72.9049988         1.32144928E-09
   73.0149994         1.17633181E-09
   73.1250000         1.00489483E-09
   73.2350006         8.22993451E-10
   73.3450012         6.31623476E-10
   73.4550018         4.21717911E-10
   73.5650024         1.94708832E-10
   73.6750031        -3.86497466E-11
   73.7850037        -2.75375278E-10
   73.8949966        -5.20423871E-10
   74.0049973        -7.72684361E-10
   74.1149979        -1.02406317E-09
   74.2249985        -1.26998734E-09
   74.3349991        -1.50931301E-09
   74.4449997        -1.73551107E-09
   74.5550003        -1.93678895E-09
   74.6650009        -2.10320850E-09
   74.7750015        -2.22825425E-09
   74.8850021        -2.30803154E-09
   74.9950027        -2.34415976E-09
   75.1050034        -2.34138642E-09
   75.2149963        -2.29736963E-09
   75.3249969        -2.20264607E-09
   75.4349976        -2.05588058E-09
   75.5449982        -1.86877402E-09
   75.6549988        -1.64909986E-09
   75.7649994        -1.39267786E-09
   75.8750000        -1.10399367E-09
   75.9850006        -8.09814660E-10
   76.0950012        -5.33609490E-10
   76.2050018        -2.68777944E-10
   76.3150024        -7.10900143E-13
   76.4250031         2.55066634E-10
   76.5350037         4.66696959E-10
   76.6449966         6.31663666E-10
   76.7549973         7.72659381E-10
   76.8649979         8.87725227E-10
   76.9749985         9.45719614E-10
   77.0849991         9.40161726E-10
   77.1949997         9.03920994E-10
   77.3050003         8.53155546E-10
   77.4150009         7.60970620E-10
   77.5250015         6.12140894E-10
   77.6350021         4.40395498E-10
   77.7450027         2.77673579E-10
   77.8550034         1.06295799E-10
   77.9649963        -9.89409388E-11
   78.0749969        -3.16924681E-10
   78.1849976        -5.12521137E-10
   78.2949982        -6.92436219E-10
   78.4049988        -8.82355300E-10
   78.5149994        -1.07184361E-09
   78.6250000        -1.22799659E-09
   78.7350006        -1.34739386E-09
   78.8450012        -1.45315415E-09
   78.9550018        -1.55278124E-09
   79.0650024        -1.63393510E-09
   79.1750031        -1.69118497E-09
   79.2850037        -1.72879322E-09
   79.3949966        -1.74778114E-09
   79.5049973        -1.75020087E-09
   79.6149979        -1.74252435E-09