  -10.0000000         1.00000002E-24
  -9.86999989         1.00000022E-24
  -9.73999977         1.00000012E-24
  -9.60999966         1.00000002E-24
  -9.47999954         1.00000012E-24
  -9.35000038         1.00000032E-24
  -9.22000027         1.00000032E-24
  -9.09000015         1.00000002E-24
  -8.96000004         4.69529688E-19
  -8.82999992        -2.78305589E-19
  -8.69999981        -2.00310507E-16
  -8.56999969         4.09474446E-15
  -8.43999958        -3.03000660E-14
  -8.31000042         8.27733810E-14
  -8.18000031         8.76711965E-14
  -8.05000019        -8.25148435E-13
  -7.92000008        -1.40025036E-13
  -7.78999996         7.26925985E-12
  -7.65999985        -5.09369586E-12
  -7.53000021        -4.56365813E-11
  -7.40000010         7.50172771E-11
  -7.26999998         1.62483207E-10
  -7.13999987        -5.01288011E-10
  -7.01000023        -1.78899492E-10
  -6.88000011         2.09908890E-09
  -6.75000000        -1.41737511E-09
  -6.61999989        -6.08920381E-09
  -6.48999977         1.03201341E-08
  -6.36000013         1.22912187E-08
  -6.23000002        -4.12980192E-08
  -6.09999990        -1.44443391E-08
  -5.96999979         1.23542407E-07
  -5.84000015        -6.28334451E-09
  -5.71000004        -3.02473410E-07
  -5.57999992         8.52392574E-08
  -5.44999981         6.33992954E-07
  -5.32000017        -2.71563295E-07
  -5.19000006        -1.17328773E-06
  -5.05999994         6.20869571E-07
  -4.92999983         1.97070176E-06
  -4.80000019        -1.18983837E-06
  -4.67000008        -3.08548488E-06
  -4.53999996         2.03350214E-06
  -4.40999985         4.59407647E-06
  -4.28000021        -3.20855611E-06
  -4.15000010        -6.53148254E-06
  -4.01999998         4.82336600E-06
  -3.89000010         8.76547256E-06
  -3.75999999        -7.17641888E-06
  -3.63000011        -1.09805433E-05
  -3.50000000         1.08375625E-05
  -3.36999989         1.29334157E-05
  -3.24000001        -1.63120949E-05
  -3.10999990        -1.46279144E-05
  -2.98000002         2.33688170E-05
  -2.84999990         1.57401191E-05
  -2.72000003        -3.12061929E-05
  -2.58999991        -1.48534536E-05
  -2.46000004         4.02628866E-05
  -2.32999992         1.06746593E-05
  -2.20000005        -5.32474078E-05
  -2.06999993        -5.02195371E-06
  -1.94000006         7.18423180E-05
  -1.80999994         1.89574075E-06
  -1.67999995        -9.28490263E-05
  -1.54999995        -9.61240048E-08
  -1.41999996         1.13666109E-04
  -1.28999996        -8.61408171E-06
  -1.15999997        -1.42614270E-04
  -1.02999997         2.50943122E-05
 -0.899999976         1.90388906E-04
 -0.769999981        -3.40432198E-05
 -0.639999986        -2.43854476E-04
 -0.509999990         3.01199143E-05
 -0.379999995         2.71748897E-04
 -0.250000000        -4.25595354E-05
 -0.119999997        -2.74464808E-04
   9.99999978E-03     9.16078570E-05
  0.140000001         2.87377508E-04
  0.270000011        -1.32892048E-04
  0.400000006        -3.00311309E-04
  0.529999971         1.24012076E-04
  0.660000026         2.52630969E-04
  0.790000021        -1.29359265E-04
  0.920000017        -1.79650073E-04
   1.04999995         2.19774010E-04
   1.17999995         2.25887721E-04
   1.30999994        -3.02497268E-04
   1.44000006        -3.92563175E-04
   1.57000005         2.71554978E-04
   1.70000005         4.85314114E-04
   1.83000004        -2.37463348E-04
   1.96000004        -4.26164392E-04
   2.08999991         3.43865133E-04
   2.22000003         3.77644319E-04
   2.34999990        -3.81257123E-04
   2.48000002        -1.99120739E-04
   2.60999990         3.80524289E-04
   2.74000001        -2.02770621E-04
   2.86999989        -8.49882665E-04
   3.00000000        -2.44607334E-04
   3.13000011         3.69645131E-04
   3.25999999        -1.90747262E-04
   3.39000010        -1.10276323E-03
   3.51999998        -1.10118405E-03
   3.65000010        -3.04360728E-04
   3.77999997        -3.57918587E-04
   3.91000009        -1.80802238E-03
   4.03999996        -2.62225606E-03
   4.17000008        -2.01929896E-03
   4.30000019        -2.15884298E-03
   4.42999983        -3.71101173E-03
   4.55999994        -5.01831481E-03
   4.69000006        -5.85384853E-03
   4.82000017        -7.23568769E-03
   4.94999981        -9.32160672E-03
   5.07999992        -1.18082426E-02
   5.21000004        -1.45775713E-02
   5.34000015        -1.80246234E-02
   5.46999979        -2.24873964E-02
   5.59999990        -2.72825584E-02
   5.73000002        -3.28050517E-02
   5.86000013        -4.08106074E-02
   5.98999977        -5.05216010E-02
   6.11999989        -6.06096536E-02
   6.25000000        -7.31145889E-02
   6.38000011        -8.89205411E-02
   6.51000023       -0.106525995    
   6.63999987       -0.127147868    
   6.76999998       -0.151944742    
   6.90000010       -0.179849803    
   7.03000021       -0.212737754    
   7.15999985       -0.252157241    
   7.28999996       -0.295913666    
   7.42000008       -0.345804900    
   7.55000019       -0.405239433    
   7.67999983       -0.471606135    
   7.80999994       -0.545108438    
   7.94000006       -0.630728543    
   8.06999969       -0.726979434    
   8.19999981       -0.832201660    
   8.32999992       -0.951588392    
   8.46000004        -1.08534980    
   8.59000015        -1.23070312    
   8.72000027        -1.39237285    
   8.85000038        -1.57212353    
   8.97999954        -1.76590478    
   9.10999966        -1.97654665    
   9.23999977        -2.20737982    
   9.36999989        -2.45510006    
   9.50000000        -2.72090864    
   9.63000011        -3.00809288    
   9.76000023        -3.31335068    
   9.89000034        -3.63577819    
   10.0200005        -3.97788692    
   10.1499996        -4.33759260    
   10.2799997        -4.71428537    
   10.4099998        -5.10942268    
   10.5400000        -5.51915646    
   10.6700001        -5.94133997    
   10.8000002        -6.37728167    
   10.9300003        -6.82298803    
   11.0600004        -7.27596092    
   11.1899996        -7.73859692    
   11.3199997        -8.20682335    
   11.4499998        -8.67512703    
   11.5799999        -9.14438534    
   11.7100000        -9.61148071    
   11.8400002        -10.0712633    
   11.9700003        -10.5258665    
   12.1000004        -10.9740105    
   12.2299995        -11.4088058    
   12.3599997        -11.8299065    
   12.4899998        -12.2370148    
   12.6199999        -12.6244421    
   12.7500000        -12.9926701    
   12.8800001        -13.3446369    
   13.0100002        -13.6760378    
   13.1400003        -13.9845037    
   13.2700005        -14.2719975    
   13.3999996        -14.5365953    
   13.5299997        -14.7776871    
   13.6599998        -14.9987717    
   13.7900000        -15.1997871    
   13.9200001        -15.3799925    
   14.0500002        -15.5419388    
   14.1800003        -15.6859188    
   14.3100004        -15.8121767    
   14.4399996        -15.9247684    
   14.5699997        -16.0251980    
   14.6999998        -16.1131878    
   14.8299999        -16.1929665    
   14.9600000        -16.2674332    
   15.0900002        -16.3346386    
   15.2200003        -16.3962898    
   15.3500004        -16.4582634    
   15.4799995        -16.5222244    
   15.6099997        -16.5870075    
   15.7399998        -16.6546021    
   15.8699999        -16.7276554    
   16.0000000        -16.8061924    
   16.1299992        -16.8916721    
   16.2600002        -16.9880924    
   16.3899994        -17.0956306    
   16.5200005        -17.2112274    
   16.6499996        -17.3366852    
   16.7800007        -17.4761162    
   16.9099998        -17.6287708    
   17.0400009        -17.7939758    
   17.1700001        -17.9742393    
   17.2999992        -18.1685772    
   17.4300003        -18.3748970    
   17.5599995        -18.5967426    
   17.6900005        -18.8362942    
   17.8199997        -19.0905800    
   17.9500008        -19.3602295    
   18.0799999        -19.6485310    
   18.2099991        -19.9538860    
   18.3400002        -20.2751408    
   18.4699993        -20.6160011    
   18.6000004        -20.9776955    
   18.7299995        -21.3579998    
   18.8600006        -21.7581577    
   18.9899998        -22.1815777    
   19.1200008        -22.6286469    
   19.2500000        -23.0984058    
   19.3799992        -23.5922337    
   19.5100002        -24.1123180    
   19.6399994        -24.6581402    
   19.7700005        -25.2287540    
   19.8999996        -25.8273811    
   20.0300007        -26.4566231    
   20.1599998        -27.1131744    
   20.2900009        -27.7954235    
   20.4200001        -28.5065613    
   20.5499992        -29.2454910    
   20.6800003        -30.0088139    
   20.8099995        -30.7982883    
   20.9400005        -31.6129112    
   21.0699997        -32.4464378    
   21.2000008        -33.2980843    
   21.3299999        -34.1684189    
   21.4599991        -35.0503616    
   21.5900002        -35.9383011    
   21.7199993        -36.8320160    
   21.8500004        -37.7266693    
   21.9799995        -38.6148949    
   22.1100006        -39.4930000    
   22.2399998        -40.3555794    
   22.3700008        -41.1952591    
   22.5000000        -42.0073853    
   22.6299992        -42.7861977    
   22.7600002        -43.5241623    
   22.8899994        -44.2166519    
   23.0200005        -44.8587570    
   23.1499996        -45.4435005    
   23.2800007        -45.9667282    
   23.4099998        -46.4246979    
   23.5400009        -46.8106804    
   23.6700001        -47.1208801    
   23.7999992        -47.3554230    
   23.9300003        -47.5118370    
   24.0599995        -47.5868416    
   24.1900005        -47.5810394    
   24.3199997        -47.4948807    
   24.4500008        -47.3269730    
   24.5799999        -47.0795631    
   24.7099991        -46.7575684    
   24.8400002        -46.3621979    
   24.9699993        -45.8953133    
   25.1000004        -45.3650780    
   25.2299995        -44.7774010    
   25.3600006        -44.1324730    
   25.4899998        -43.4361382    
   25.6200008        -42.6991615    
   25.7500000        -41.9260368    
   25.8799992        -41.1204071    
   26.0100002        -40.2919083    
   26.1399994        -39.4471855    
   26.2700005        -38.5883408    
   26.3999996        -37.7223892    
   26.5300007        -36.8579941    
   26.6599998        -35.9990845    
   26.7900009        -35.1496811    
   26.9200001        -34.3155327    
   27.0499992        -33.5000000    
   27.1800003        -32.7050934    
   27.3099995        -31.9341812    
   27.4400005        -31.1914902    
   27.5699997        -30.4801044    
   27.7000008        -29.8004169    
   27.8299999        -29.1525478    
   27.9599991        -28.5383148    
   28.0900002        -27.9573803    
   28.2199993        -27.4079227    
   28.3500004        -26.8919582    
   28.4799995        -26.4108334    
   28.6100006        -25.9610901    
   28.7399998        -25.5415630    
   28.8700008        -25.1532707    
   29.0000000        -24.7923069    
   29.1299992        -24.4552193    
   29.2600002        -24.1441460    
   29.3899994        -23.8583412    
   29.5200005        -23.5930748    
   29.6499996        -23.3481884    
   29.7800007        -23.1246758    
   29.9099998        -22.9179516    
   30.0400009        -22.7242928    
   30.1700001        -22.5451050    
   30.2999992        -22.3802319    
   30.4300003        -22.2265778    
   30.5599995        -22.0835342    
   30.6900005        -21.9518204    
   30.8199997        -21.8293762    
   30.9500008        -21.7134380    
   31.0799999        -21.6033955    
   31.2099991        -21.4997444    
   31.3400002        -21.4021797    
   31.4699993        -21.3093567    
   31.6000004        -21.2209892    
   31.7299995        -21.1379585    
   31.8600006        -21.0583153    
   31.9899998        -20.9793968    
   32.1199989        -20.9038906    
   32.2500000        -20.8337555    
   32.3800011        -20.7643394    
   32.5099983        -20.6949043    
   32.6399994        -20.6305084    
   32.7700005        -20.5686760    
   32.9000015        -20.5043278    
   33.0299988        -20.4424000    
   33.1599998        -20.3862495    
   33.2900009        -20.3293514    
   33.4199982        -20.2702885    
   33.5499992        -20.2147865    
   33.6800003        -20.1620388    
   33.8100014        -20.1081829    
   33.9399986        -20.0552902    
   34.0699997        -20.0052910    
   34.2000008        -19.9557781    
   34.3300018        -19.9056683    
   34.4599991        -19.8569813    
   34.5900002        -19.8105755    
   34.7200012        -19.7641468    
   34.8499985        -19.7166595    
   34.9799995        -19.6715660    
   35.1100006        -19.6294422    
   35.2400017        -19.5852623    
   35.3699989        -19.5401020    
   35.5000000        -19.5001068    
   35.6300011        -19.4615803    
   35.7599983        -19.4184475    
   35.8899994        -19.3766918    
   36.0200005        -19.3401737    
   36.1500015        -19.3014259    
   36.2799988        -19.2600937    
   36.4099998        -19.2239647    
   36.5400009        -19.1904736    
   36.6699982        -19.1532841    
   36.7999992        -19.1162224    
   36.9300003        -19.0824699    
   37.0600014        -19.0482140    
   37.1899986        -19.0132542    
   37.3199997        -18.9804211    
   37.4500008        -18.9487705    
   37.5800018        -18.9170036    
   37.7099991        -18.8853550    
   37.8400002        -18.8539677    
   37.9700012        -18.8239651    
   38.0999985        -18.7947006    
   38.2299995        -18.7641220    
   38.3600006        -18.7347317    
   38.4900017        -18.7080975    
   38.6199989        -18.6798553    
   38.7500000        -18.6506786    
   38.8800011        -18.6256466    
   39.0099983        -18.6014156    
   39.1399994        -18.5739880    
   39.2700005        -18.5478325    
   39.4000015        -18.5237083    
   39.5299988        -18.4974689    
   39.6599998        -18.4717369    
   39.7900009        -18.4498844    
   39.9199982        -18.4288120    
   40.0499992        -18.4064846    
   40.1800003        -18.3837471    
   40.3100014        -18.3607635    
   40.4399986        -18.3382149    
   40.5699997        -18.3161335    
   40.7000008        -18.2948456    
   40.8300018        -18.2766151    
   40.9599991        -18.2588806    
   41.0900002        -18.2374458    
   41.2200012        -18.2171288    
   41.3499985        -18.2006512    
   41.4799995        -18.1809921    
   41.6100006        -18.1592541    
   41.7400017        -18.1431789    
   41.8699989        -18.1282749    
   42.0000000        -18.1095181    
   42.1300011        -18.0931530    
   42.2599983        -18.0791645    
   42.3899994        -18.0613022    
   42.5200005        -18.0432796    
   42.6500015        -18.0288677    
   42.7799988        -18.0137215    
   42.9099998        -17.9982529    
   43.0400009        -17.9852543    
   43.1699982        -17.9713783    
   43.2999992        -17.9563866    
   43.4300003        -17.9432545    
   43.5600014        -17.9293613    
   43.6899986        -17.9142437    
   43.8199997        -17.9021225    
   43.9500008        -17.8911419    
   44.0800018        -17.8780460    
   44.2099991        -17.8656082    
   44.3400002        -17.8543663    
   44.4700012        -17.8420467    
   44.5999985        -17.8302002    
   44.7299995        -17.8195801    
   44.8600006        -17.8085842    
   44.9900017        -17.7977047    
   45.1199989        -17.7865963    
   45.2500000        -17.7749653    
   45.3800011        -17.7655811    
   45.5099983        -17.7569790    
   45.6399994        -17.7457085    
   45.7700005        -17.7355862    
   45.9000015        -17.7278309    
   46.0299988        -17.7168884    
   46.1599998        -17.7055931    
   46.2900009        -17.6992188    
   46.4199982        -17.6913166    
   46.5499992        -17.6793022    
   46.6800003        -17.6709328    
   46.8100014        -17.6649246    
   46.9399986        -17.6544933    
   47.0699997        -17.6436329    
   47.2000008        -17.6368523    
   47.3300018        -17.6299591    
   47.4599991        -17.6205120    
   47.5900002        -17.6112766    
   47.7200012        -17.6042786    
   47.8499985        -17.5981712    
   47.9799995        -17.5895481    
   48.1100006        -17.5794315    
   48.2400017        -17.5725670    
   48.3699989        -17.5667362    
   48.5000000        -17.5574398    
   48.6300011        -17.5492516    
   48.7599983        -17.5447369    
   48.8899994        -17.5374031    
   49.0200005        -17.5273228    
   49.1500015        -17.5210133    
   49.2799988        -17.5158081    
   49.4099998        -17.5069408    
   49.5400009        -17.4994030    
   49.6699982        -17.4958115    
   49.7999992        -17.4895840    
   49.9300003        -17.4797382    
   50.0600014        -17.4732666    
   50.1899986        -17.4696217    
   50.3199997        -17.4624481    
   50.4500008        -17.4540730    
   50.5800018        -17.4497051    
   50.7099991        -17.4458122    
   50.8400002        -17.4387913    
   50.9700012        -17.4316082    
   51.0999985        -17.4257278    
   51.2299995        -17.4203072    
   51.3600006        -17.4155025    
   51.4900017        -17.4099102    
   51.6199989        -17.4038086    
   51.7500000        -17.3996086    
   51.8800011        -17.3944950    
   52.0099983        -17.3868752    
   52.1399994        -17.3821907    
   52.2700005        -17.3796692    
   52.4000015        -17.3737373    
   52.5299988        -17.3680058    
   52.6599998        -17.3649025    
   52.7900009        -17.3590202    
   52.9199982        -17.3527222    
   53.0499992        -17.3510990    
   53.1800003        -17.3481007    
   53.3100014        -17.3405743    
   53.4399986        -17.3350391    
   53.5699997        -17.3325710    
   53.7000008        -17.3293629    
   53.8300018        -17.3253193    
   53.9599991        -17.3211002    
   54.0900002        -17.3175602    
   54.2200012        -17.3148079    
   54.3499985        -17.3097687    
   54.4799995        -17.3041019    
   54.6100006        -17.3025150    
   54.7400017        -17.3007889    
   54.8699989        -17.2952595    
   55.0000000        -17.2918262    
   55.1300011        -17.2907982    
   55.2599983        -17.2866650    
   55.3899994        -17.2825966    
   55.5200005        -17.2814159    
   55.6500015        -17.2781467    
   55.7799988        -17.2733459    
   55.9099998        -17.2714653    
   56.0400009        -17.2698574    
   56.1699982        -17.2663860    
   56.2999992        -17.2639179    
   56.4300003        -17.2623634    
   56.5600014        -17.2599449    
   56.6899986        -17.2570076    
   56.8199997        -17.2537498    
   56.9500008        -17.2516994    
   57.0800018        -17.2517719    
   57.2099991        -17.2498207    
   57.3400002        -17.2450123    
   57.4700012        -17.2434940    
   57.5999985        -17.2449169    
   57.7299995        -17.2423763    
   57.8600006        -17.2374992    
   57.9900017        -17.2364006    
   58.1199989        -17.2367477    
   58.2500000        -17.2342815    
   58.3800011        -17.2317162    
   58.5099983        -17.2314148    
   58.6399994        -17.2303524    
   58.7700005        -17.2270889    
   58.9000015        -17.2246780    
   59.0299988        -17.2241001    
   59.1599998        -17.2225685    
   59.2900009        -17.2200184    
   59.4199982        -17.2189255    
   59.5499992        -17.2178173    
   59.6800003        -17.2146492    
   59.8100014        -17.2124615    
   59.9399986        -17.2121487    
   60.0699997        -17.2093887    
   60.2000008        -17.2046204    
   60.3300018        -17.2027912    
   60.4599991        -17.2030659    
   60.5900002        -17.2013474    
   60.7200012        -17.1980457    
   60.8499985        -17.1956329    
   60.9799995        -17.1938839    
   61.1100006        -17.1905727    
   61.2400017        -17.1858330    
   61.3699989        -17.1834641    
   61.5000000        -17.1835270    
   61.6300011        -17.1810055    
   61.7599983        -17.1766815    
   61.8899994        -17.1748543    
   62.0200005        -17.1726494    
   62.1500015        -17.1682205    
   62.2799988        -17.1660728    
   62.4099998        -17.1646805    
   62.5400009        -17.1600418    
   62.6699982        -17.1568203    
   62.7999992        -17.1567364    
   62.9300003        -17.1539574    
   63.0600014        -17.1494865    
   63.1899986        -17.1479378    
   63.3199997        -17.1466312    
   63.4500008        -17.1428375    
   63.5800018        -17.1388721    
   63.7099991        -17.1368351    
   63.8400002        -17.1363010    
   63.9700012        -17.1340828    
   64.0999985        -17.1294250    
   64.2300034        -17.1275539    
   64.3600006        -17.1280842    
   64.4899979        -17.1244678    
   64.6200027        -17.1198082    
   64.7500000        -17.1196365    
   64.8799973        -17.1187286    
   65.0100021        -17.1150455    
   65.1399994        -17.1136856    
   65.2699966        -17.1129570    
   65.4000015        -17.1104107    
   65.5299988        -17.1089821    
   65.6600037        -17.1070290    
   65.7900009        -17.1033688    
   65.9199982        -17.1025696    
   66.0500031        -17.1030235    
   66.1800003        -17.1008053    
   66.3099976        -17.0993385    
   66.4400024        -17.0987282    
   66.5699997        -17.0959148    
   66.6999969        -17.0946693    
   66.8300018        -17.0955524    
   66.9599991        -17.0934334    
   67.0899963        -17.0909176    
   67.2200012        -17.0916214    
   67.3499985        -17.0910339    
   67.4800034        -17.0880241    
   67.6100006        -17.0869064    
   67.7399979        -17.0879841    
   67.8700027        -17.0886745    
   68.0000000        -17.0870934    
   68.1299973        -17.0841293    
   68.2600021        -17.0839176    
   68.3899994        -17.0852261    
   68.5199966        -17.0829487    
   68.6500015        -17.0807972    
   68.7799988        -17.0829124    
   68.9100037        -17.0830059    
   69.0400009        -17.0792408    
   69.1699982        -17.0781078    
   69.3000031        -17.0791683    
   69.4300003        -17.0787048    
   69.5599976        -17.0784492    
   69.6900024        -17.0782814    
   69.8199997        -17.0763092    
   69.9499969        -17.0746555    
   70.0800018        -17.0744457    
   70.2099991        -17.0742226    
   70.3399963        -17.0735416    
   70.4700012        -17.0721455    
   70.5999985        -17.0714054    
   70.7300034        -17.0723343    
   70.8600006        -17.0708923    
   70.9899979        -17.0672169    
   71.1200027        -17.0682716    
   71.2500000        -17.0712070    
   71.3799973        -17.0677319    
   71.5100021        -17.0634251    
   71.6399994        -17.0654125    
   71.7699966        -17.0669746    
   71.9000015        -17.0642872    
   72.0299988        -17.0635204    
   72.1600037        -17.0647945    
   72.2900009        -17.0633030    
   72.4199982        -17.0609512    
   72.5500031        -17.0610847    
   72.6800003        -17.0618153    
   72.8099976        -17.0611572    
   72.9400024        -17.0604534    
   73.0699997        -17.0608444    
   73.1999969        -17.0604935    
   73.3300018        -17.0583267    
   73.4599991        -17.0576954    
   73.5899963        -17.0598640    
   73.7200012        -17.0599022    
   73.8499985        -17.0570831    
   73.9800034        -17.0574017    
   74.1100006        -17.0603371    
   74.2399979        -17.0596504    
   74.3700027        -17.0569916    
   74.5000000        -17.0578175    
   74.6299973        -17.0595684    
   74.7600021        -17.0577965    
   74.8899994        -17.0556335    
   75.0199966        -17.0572338    
   75.1500015        -17.0597363    
   75.2799988        -17.0591927    
   75.4100037        -17.0579815    
   75.5400009        -17.0590000    
   75.6699982        -17.0593758    
   75.8000031        -17.0577545    
   75.9300003        -17.0579376    
   76.0599976        -17.0597916    
   76.1900024        -17.0597649    
   76.3199997        -17.0597420    
   76.4499969        -17.0615883    
   76.5800018        -17.0616608    
   76.7099991        -17.0599995    
   76.8399963        -17.0608139    
   76.9700012        -17.0627060    
   77.0999985        -17.0622787    
   77.2300034        -17.0613766    
   77.3600006        -17.0625973    
   77.4899979        -17.0652561    
   77.6200027        -17.0666637    
   77.7500000        -17.0652561    
   77.8799973        -17.0644951    
   78.0100021        -17.0671711    
   78.1399994        -17.0684853    
   78.2699966        -17.0665092    
   78.4000015        -17.0675220    
   78.5299988        -17.0713730    
   78.6600037        -17.0715332    
   78.7900009        -17.0698376    
   78.9199982        -17.0711250    
   79.0500031        -17.0731716    
   79.1800003        -17.0735760    
   79.3099976        -17.0732250    
   79.4400024        -17.0728855    
   79.5699997        -17.0740452    
   79.6999969        -17.0763721    
   79.8300018        -17.0772839    
   79.9599991        -17.0777874    
   80.0899963        -17.0788269    
   80.2200012        -17.0778866    
   80.3499985        -17.0771542    
   80.4800034        -17.0797405    
   80.6100006        -17.0808716    
   80.7399979        -17.0792084    
   80.8700027        -17.0808983    
   81.0000000        -17.0842590    
   81.1299973        -17.0829468    
   81.2600021        -17.0805511    
   81.3899994        -17.0825405    
   81.5199966        -17.0855179    
   81.6500015        -17.0852356    
   81.7799988        -17.0836620    
   81.9100037        -17.0843658    
   82.0400009        -17.0865574    
   82.1699982        -17.0867825    
   82.3000031        -17.0861282    
   82.4300003        -17.0880222    
   82.5599976        -17.0897884    
   82.6900024        -17.0882282    
   82.8199997        -17.0873375    
   82.9499969        -17.0893707    
   83.0800018        -17.0907135    
   83.2099991        -17.0911102    
   83.3399963        -17.0927219    
   83.4700012        -17.0934277    
   83.5999985        -17.0920773    
   83.7300034        -17.0921040    
   83.8600006        -17.0941868    
   83.9899979        -17.0948029    
   84.1200027        -17.0940914    
   84.2500000        -17.0958061    
   84.3799973        -17.0984688    
   84.5100021        -17.0973549    
   84.6399994        -17.0951900    
   84.7699966        -17.0972481    
   84.9000015        -17.0997238    
   85.0299988        -17.0978794    
   85.1600037        -17.0963326    
   85.2900009        -17.0986004    
   85.4199982        -17.1004391    
   85.5500031        -17.0998039    
   85.6800003        -17.0994053    
   85.8099976        -17.0997772    
   85.9400024        -17.0994377    
   86.0699997        -17.0986099    
   86.1999969        -17.0985603    
   86.3300018        -17.0994015    
   86.4599991        -17.0998764    
   86.5899963        -17.0998268    
   86.7200012        -17.1001682    
   86.8499985        -17.1000175    
   86.9800034        -17.0990486    
   87.1100006        -17.0993671    
   87.2399979        -17.1004066    
   87.3700027        -17.0997486    
   87.5000000        -17.0991077    
   87.6299973        -17.1004066    
   87.7600021        -17.1017017    
   87.8899994        -17.1018257    
   88.0199966        -17.1012516    
   88.1500015        -17.1003551    
   88.2799988        -17.1006222    
   88.4100037        -17.1019802    
   88.5400009        -17.1025505    
   88.6699982        -17.1035938    
   88.8000031        -17.1056538    
   88.9300003        -17.1055241    
   89.0599976        -17.1042709    
   89.1900024        -17.1052132    
   89.3199997        -17.1060448    
   89.4499969        -17.1059799    
   89.5800018        -17.1078930    
   89.7099991        -17.1092911    
   89.8399963        -17.1083832    
   89.9700012        -17.1096287    
   90.0999985        -17.1121426    
   90.2300034        -17.1116676    
   90.3600006        -17.1116829    
   90.4899979        -17.1140881    
   90.6200027        -17.1146145    
   90.7500000        -17.1146584    
   90.8799973        -17.1170769    
   91.0100021        -17.1183300    
   91.1399994        -17.1180878    
   91.2699966        -17.1192150    
   91.4000015        -17.1198406    
   91.5299988        -17.1201820    
   91.6600037        -17.1227684    
   91.7900009        -17.1240501    
   91.9199982        -17.1230392    
   92.0500031        -17.1247559    
   92.1800003        -17.1274529    
   92.3099976        -17.1270905    
   92.4400024        -17.1272163    
   92.5699997        -17.1293373    
   92.6999969        -17.1303482    
   92.8300018        -17.1308346    
   92.9599991        -17.1315441    
   93.0899963        -17.1318932    
   93.2200012        -17.1336231    
   93.3499985        -17.1353798    
   93.4800034        -17.1348038    
   93.6100006        -17.1353531    
   93.7399979        -17.1376305    
   93.8700027        -17.1380272    
   94.0000000        -17.1384544    
   94.1299973        -17.1396160    
   94.2600021        -17.1384392    
   94.3899994        -17.1387424    
   94.5199966        -17.1424198    
   94.6500015        -17.1428585    
   94.7799988        -17.1412106    
   94.9100037        -17.1428852    
   95.0400009        -17.1437511    
   95.1699982        -17.1426105    