  -9.37500000         1.00000002E-24
  -9.26500034         1.00000002E-24
  -9.15499973         1.00000012E-24
  -9.04500008         1.00000022E-24
  -8.93500042         1.00000022E-24
  -8.82499981         1.00000022E-24
  -8.71500015         1.00000012E-24
  -8.60499954         1.00000002E-24
  -8.49499989         1.00000002E-24
  -8.38500023         1.00040175E-24
  -8.27499962         1.04666992E-24
  -8.16499996         2.86885464E-25
  -8.05500031         2.93706779E-24
  -7.94500017         1.18960477E-23
  -7.83500004        -3.99563350E-23
  -7.72499990        -1.07526083E-22
  -7.61499977         3.94133639E-22
  -7.50500011         8.80131784E-22
  -7.39499998        -2.40341548E-21
  -7.28499985        -5.67883199E-21
  -7.17500019         1.04869780E-20
  -7.06500006         2.86096765E-20
  -6.95499992        -3.64701993E-20
  -6.84499979        -1.17372263E-19
  -6.73500013         1.19659198E-19
  -6.62500000         4.43259620E-19
  -6.51499987        -3.90538592E-19
  -6.40500021        -1.73144391E-18
  -6.29500008         9.30371291E-19
  -6.18499994         6.67939907E-18
  -6.07499981         3.05970645E-19
  -5.96500015        -2.18738400E-17
  -5.85500002        -1.57176046E-17
  -5.74499989         5.29193098E-17
  -5.63500023         8.26495244E-17
  -5.52500010        -7.52687771E-17
  -5.41499996        -2.60274934E-16
  -5.30499983        -2.28422551E-17
  -5.19500017         5.55254926E-16
  -5.08500004         4.58512910E-16
  -4.97499990        -7.70510773E-16
  -4.86499977        -1.41053040E-15
  -4.75500011         4.34486636E-16
  -4.64499998         2.73865636E-15
  -4.53499985         9.96523251E-16
  -4.42500019        -3.86150970E-15
  -4.31500006        -3.83496708E-15
  -4.20499992         3.88646711E-15
  -4.09499979         8.10159316E-15
  -3.98499990        -1.47476165E-15
  -3.87500000        -1.31505431E-14
  -3.76500010        -5.34381228E-15
  -3.65499997         1.61954546E-14
  -3.54500008         1.73245749E-14
  -3.43499994        -1.21218241E-14
  -3.32500005        -3.05284430E-14
  -3.21499991        -1.93004737E-15
  -3.10500002         3.78029822E-14
  -2.99499989         2.29128765E-14
  -2.88499999        -3.54501720E-14
  -2.77500010        -4.79796527E-14
  -2.66499996         1.95213888E-14
  -2.55500007         7.47930702E-14
  -2.44499993         2.33993309E-14
  -2.33500004        -7.87175162E-14
  -2.22499990        -8.73985332E-14
  -2.11500001         2.12929209E-14
  -2.00500011         1.06669224E-13
  -1.89499998         6.32723650E-14
  -1.78499997        -3.35395164E-14
  -1.67499995        -5.94032473E-14
  -1.56500006        -3.02554511E-14
  -1.45500004        -3.34324819E-14
  -1.34500003        -3.52239837E-14
  -1.23500001         5.29641130E-14
  -1.12500000         1.31972978E-13
  -1.01499999         5.56974477E-15
 -0.904999971        -2.00403808E-13
 -0.795000017        -5.86123557E-14
 -0.685000002         4.29043682E-13
 -0.574999988         4.85076009E-13
 -0.465000004        -4.30496676E-13
 -0.354999989        -1.40226654E-12
 -0.245000005        -8.06593399E-13
 -0.135000005         1.30913878E-12
  -2.50000004E-02     2.53904384E-12
   8.50000009E-02     9.01928380E-13
  0.194999993        -2.13551984E-12
  0.305000007        -2.92762429E-12
  0.414999992        -3.04145462E-13
  0.524999976         2.50980790E-12
  0.634999990         1.84630631E-12
  0.745000005        -1.44338599E-12
  0.855000019        -2.81637647E-12
  0.964999974         5.29244922E-14
   1.07500005         3.98302355E-12
   1.18499994         4.03407299E-12
   1.29499996        -5.06053641E-13
   1.40499997        -5.35908123E-12
   1.51499999        -6.09956833E-12
   1.62500000        -2.29068435E-12
   1.73500001         3.15055555E-12
   1.84500003         6.86942473E-12
   1.95500004         6.61012347E-12
   2.06500006         1.87502986E-12
   2.17499995        -4.71644598E-12
   2.28500009        -7.74785704E-12
   2.39499998        -3.86720734E-12
   2.50500011         3.01006030E-12
   2.61500001         4.54911976E-12
   2.72499990        -1.67394711E-12
   2.83500004        -7.36658824E-12
   2.94499993        -3.10489763E-12
   3.05500007         8.39928734E-12
   3.16499996         1.39219174E-11
   3.27500010         6.00882408E-12
   3.38499999        -7.37297116E-12
   3.49499989        -1.27907303E-11
   3.60500002        -6.63257773E-12
   3.71499991         4.66493814E-12
   3.82500005         1.62524473E-11
   3.93499994         2.89970721E-11
   4.04500008         4.20911882E-11
   4.15500021         5.00957782E-11
   4.26499987         5.19976666E-11
   4.37500000         5.78579580E-11
   4.48500013         7.99102381E-11
   4.59499979         1.18397708E-10
   4.70499992         1.62061461E-10
   4.81500006         2.04495004E-10
   4.92500019         2.56455607E-10
   5.03499985         3.38118616E-10
   5.14499998         4.59382615E-10
   5.25500011         6.12232598E-10
   5.36499977         7.86127996E-10
   5.47499990         9.87815274E-10
   5.58500004         1.23949995E-09
   5.69500017         1.55957158E-09
   5.80499983         1.95684868E-09
   5.91499996         2.44759524E-09
   6.02500010         3.06443737E-09
   6.13500023         3.83668342E-09
   6.24499989         4.77227102E-09
   6.35500002         5.87671689E-09
   6.46500015         7.18652737E-09
   6.57499981         8.76665318E-09
   6.68499994         1.06741886E-08
   6.79500008         1.29407640E-08
   6.90500021         1.55945337E-08
   7.01499987         1.86850482E-08
   7.12500000         2.22803944E-08
   7.23500013         2.64520352E-08
   7.34499979         3.12705488E-08
   7.45499992         3.68079185E-08
   7.56500006         4.31347722E-08
   7.67500019         5.03151973E-08
   7.78499985         5.84043605E-08
   7.89499998         6.74498324E-08
   8.00500011         7.74997346E-08
   8.11499977         8.86116851E-08
   8.22500038         1.00841518E-07
   8.33500004         1.14211311E-07
   8.44499969         1.28696627E-07
   8.55500031         1.44255793E-07
   8.66499996         1.60857454E-07
   8.77499962         1.78459601E-07
   8.88500023         1.96969594E-07
   8.99499989         2.16244402E-07
   9.10499954         2.36119988E-07
   9.21500015         2.56413387E-07
   9.32499981         2.76897680E-07
   9.43500042         2.97299806E-07
   9.54500008         3.17326339E-07
   9.65499973         3.36672571E-07
   9.76500034         3.55008353E-07
   9.87500000         3.71976284E-07
   9.98499966         3.87208559E-07
   10.0950003         4.00334159E-07
   10.2049999         4.10976497E-07
   10.3149996         4.18767371E-07
   10.4250002         4.23371660E-07
   10.5349998         4.24495312E-07
   10.6450005         4.21882106E-07
   10.7550001         4.15320613E-07
   10.8649998         4.04655424E-07
   10.9750004         3.89788482E-07
   11.0850000         3.70686848E-07
   11.1949997         3.47405802E-07
   11.3050003         3.20095950E-07
   11.4150000         2.88980686E-07
   11.5249996         2.54343206E-07
   11.6350002         2.16547278E-07
   11.7449999         1.76048445E-07
   11.8549995         1.33364765E-07
   11.9650002         8.90492302E-08
   12.0749998         4.36983285E-08
   12.1850004        -2.04283168E-09
   12.2950001        -4.75123301E-08
   12.4049997        -9.20628196E-08
   12.5150003        -1.35060262E-07
   12.6250000        -1.75885802E-07
   12.7349997        -2.13966914E-07
   12.8450003        -2.48800319E-07
   12.9549999        -2.79943492E-07
   13.0649996        -3.07014517E-07
   13.1750002        -3.29718773E-07
   13.2849998        -3.47860180E-07
   13.3950005        -3.61323373E-07
   13.5050001        -3.70073309E-07
   13.6149998        -3.74180416E-07
   13.7250004        -3.73817244E-07
   13.8350000        -3.69219691E-07
   13.9449997        -3.60673567E-07
   14.0550003        -3.48534286E-07
   14.1650000        -3.33217997E-07
   14.2749996        -3.15160264E-07
   14.3850002        -2.94808473E-07
   14.4949999        -2.72647952E-07
   14.6049995        -2.49187423E-07
   14.7150002        -2.24901882E-07
   14.8249998        -2.00216263E-07
   14.9350004        -1.75540919E-07
   15.0450001        -1.51276936E-07
   15.1549997        -1.27774797E-07
   15.2650003        -1.05323011E-07
   15.3750000        -8.41819556E-08
   15.4849997        -6.45886402E-08
   15.5950003        -4.67181955E-08
   15.7049999        -3.06753627E-08
   15.8149996        -1.65326881E-08
   15.9250002        -4.34815917E-09
   16.0349998         5.85148863E-09
   16.1450005         1.40632457E-08
   16.2549992         2.02742818E-08
   16.3649998         2.44645033E-08
   16.4750004         2.66405955E-08
   16.5849991         2.68303726E-08
   16.6949997         2.50348062E-08
   16.8050003         2.12056808E-08
   16.9150009         1.52570561E-08
   17.0249996         7.05853820E-09
   17.1350002        -3.58348462E-09
   17.2450008        -1.69075633E-08
   17.3549995        -3.31673391E-08
   17.4650002        -5.26571569E-08
   17.5750008        -7.57683551E-08
   17.6849995        -1.02993290E-07
   17.7950001        -1.34884289E-07
   17.9050007        -1.72043102E-07
   18.0149994        -2.15140204E-07
   18.1250000        -2.64899739E-07
   18.2350006        -3.22059918E-07
   18.3449993        -3.87376872E-07
   18.4549999        -4.61657095E-07
   18.5650005        -5.45737294E-07
   18.6749992        -6.40411940E-07
   18.7849998        -7.46389219E-07
   18.8950005        -8.64289859E-07
   19.0049992        -9.94622724E-07
   19.1149998        -1.13772012E-06
   19.2250004        -1.29368959E-06
   19.3349991        -1.46239495E-06
   19.4449997        -1.64341759E-06
   19.5550003        -1.83598479E-06
   19.6650009        -2.03891545E-06
   19.7749996        -2.25059489E-06
   19.8850002        -2.46894570E-06
   19.9950008        -2.69138991E-06
   20.1049995        -2.91483752E-06
   20.2150002        -3.13569785E-06
   20.3250008        -3.34988840E-06
   20.4349995        -3.55284305E-06
   20.5450001        -3.73957187E-06
   20.6550007        -3.90475043E-06
   20.7649994        -4.04280763E-06
   20.8750000        -4.14801116E-06
   20.9850006        -4.21460572E-06
   21.0949993        -4.23697838E-06
   21.2049999        -4.20980814E-06
   21.3150005        -4.12821282E-06
   21.4249992        -3.98793873E-06
   21.5349998        -3.78556661E-06
   21.6450005        -3.51867061E-06
   21.7549992        -3.18593175E-06
   21.8649998        -2.78727885E-06
   21.9750004        -2.32404068E-06
   22.0849991        -1.79902088E-06
   22.1949997        -1.21649668E-06
   22.3050003        -5.82219400E-07
   22.4150009         9.65836762E-08
   22.5249996         8.11294285E-07
   22.6350002         1.55208556E-06
   22.7450008         2.30811088E-06
   22.8549995         3.06767811E-06
   22.9650002         3.81848895E-06
   23.0750008         4.54795372E-06
   23.1849995         5.24350344E-06
   23.2950001         5.89285901E-06
   23.4050007         6.48432524E-06
   23.5149994         7.00712644E-06
   23.6250000         7.45170291E-06
   23.7350006         7.80993105E-06
   23.8449993         8.07531978E-06
   23.9549999         8.24319795E-06
   24.0650005         8.31085163E-06
   24.1749992         8.27756867E-06
   24.2849998         8.14462874E-06
   24.3950005         7.91528328E-06
   24.5049992         7.59466002E-06
   24.6149998         7.18959473E-06
   24.7250004         6.70843201E-06
   24.8349991         6.16080524E-06
   24.9449997         5.55738097E-06
   25.0550003         4.90957382E-06
   25.1650009         4.22925768E-06
   25.2749996         3.52847110E-06
   25.3850002         2.81911866E-06
   25.4950008         2.11269708E-06
   25.6049995         1.42007798E-06
   25.7150002         7.51299012E-07
   25.8250008         1.15358219E-07
   25.9349995        -4.79942287E-07
   26.0450001        -1.02807473E-06
   26.1550007        -1.52383814E-06
   26.2649994        -1.96340966E-06
   26.3750000        -2.34434151E-06
   26.4850006        -2.66548727E-06
   26.5949993        -2.92691129E-06
   26.7049999        -3.12980796E-06
   26.8150005        -3.27638463E-06
   26.9249992        -3.36969697E-06
   27.0349998        -3.41349573E-06
   27.1450005        -3.41210125E-06
   27.2549992        -3.37026472E-06
   27.3649998        -3.29299587E-06
   27.4750004        -3.18541652E-06
   27.5849991        -3.05264962E-06
   27.6949997        -2.89970512E-06
   27.8050003        -2.73136288E-06
   27.9150009        -2.55209761E-06
   28.0249996        -2.36604046E-06
   28.1350002        -2.17693173E-06
   28.2450008        -1.98806651E-06
   28.3549995        -1.80228892E-06
   28.4650002        -1.62200638E-06
   28.5750008        -1.44918647E-06
   28.6849995        -1.28535373E-06
   28.7950001        -1.13162707E-06
   28.9050007        -9.88773991E-07
   29.0149994        -8.57239115E-07
   29.1250000        -7.37178311E-07
   29.2350006        -6.28522344E-07
   29.3449993        -5.31025478E-07
   29.4549999        -4.44270199E-07
   29.5650005        -3.67685999E-07
   29.6749992        -3.00613095E-07
   29.7849998        -2.42352684E-07
   29.8950005        -1.92168073E-07
   30.0049992        -1.49295815E-07
   30.1149998        -1.12997036E-07
   30.2250004        -8.25849753E-08
   30.3349991        -5.73993937E-08
   30.4449997        -3.67930610E-08
   30.5550003        -2.01625738E-08
   30.6650009        -6.96556768E-09
   30.7749996         3.30032601E-09
   30.8850002         1.11008500E-08
   30.9950008         1.68369958E-08
   31.1049995         2.08455138E-08
   31.2150002         2.34366375E-08
   31.3250008         2.49047876E-08
   31.4349995         2.55023220E-08
   31.5450001         2.54357904E-08
   31.6550007         2.48903778E-08
   31.7649994         2.40297222E-08
   31.8750000         2.29761792E-08
   31.9850006         2.18229328E-08
   32.0950012         2.06611617E-08
   32.2050018         1.95668406E-08
   32.3149986         1.85705762E-08
   32.4249992         1.76715851E-08
   32.5349998         1.68726331E-08
   32.6450005         1.61761449E-08
   32.7550011         1.55645683E-08
   32.8650017         1.50171253E-08
   32.9749985         1.45304266E-08
   33.0849991         1.40923335E-08
   33.1949997         1.36533505E-08
   33.3050003         1.31560425E-08
   33.4150009         1.25790560E-08
   33.5250015         1.19277583E-08
   33.6349983         1.12031726E-08
   33.7449989         1.04093179E-08
   33.8549995         9.57143964E-09
   33.9650002         8.71650663E-09
   34.0750008         7.84917287E-09
   34.1850014         6.96949742E-09
   34.2949982         6.09836315E-09
   34.4049988         5.26601918E-09
   34.5149994         4.49346427E-09
   34.6250000         3.80239085E-09
   34.7350006         3.22293081E-09
   34.8450012         2.77173395E-09
   34.9550018         2.43710319E-09
   35.0649986         2.19858309E-09
   35.1749992         2.04527106E-09
   35.2849998         1.96687489E-09
   35.3950005         1.94704941E-09
   35.5050011         1.97475059E-09
   35.6150017         2.04375916E-09
   35.7249985         2.13526374E-09
   35.8349991         2.22051444E-09
   35.9449997         2.28509056E-09
   36.0550003         2.33165443E-09
   36.1650009         2.35817743E-09
   36.2750015         2.35517028E-09
   36.3849983         2.32440112E-09
   36.4949989         2.27659247E-09
   36.6049995         2.20913998E-09
   36.7150002         2.10876339E-09
   36.8250008         1.97703631E-09
   36.9350014         1.83094928E-09
   37.0449982         1.67745862E-09
   37.1549988         1.50810275E-09
   37.2649994         1.31630729E-09
   37.3750000         1.09617315E-09
   37.4850006         8.24958768E-10
   37.5950012         4.72150208E-10
   37.7050018         3.05960882E-11
   37.8149986        -4.79800644E-10
   37.9249992        -1.04024400E-09
   38.0349998        -1.64735470E-09
   38.1450005        -2.30123343E-09
   38.2550011        -2.99837644E-09
   38.3650017        -3.73487330E-09
   38.4749985        -4.49632553E-09
   38.5849991        -5.24278398E-09
   38.6949997        -5.91994587E-09
   38.8050003        -6.48654597E-09
   38.9150009        -6.91967506E-09
   39.0250015        -7.19987314E-09
   39.1349983        -7.30814032E-09
   39.2449989        -7.23346449E-09
   39.3549995        -6.96719971E-09
   39.4650002        -6.49561160E-09
   39.5750008        -5.81562754E-09
   39.6850014        -4.95389418E-09
   39.7949982        -3.95447719E-09
   39.9049988        -2.85333335E-09
   40.0149994        -1.68006786E-09
   40.1250000        -4.75766204E-10
   40.2350006         7.10592141E-10
   40.3450012         1.83759297E-09
   40.4550018         2.86600055E-09
   40.5649986         3.74661902E-09
   40.6749992         4.43484716E-09
   40.7849998         4.91397190E-09
   40.8950005         5.18831689E-09
   41.0050011         5.26084154E-09
   41.1150017         5.13449061E-09
   41.2249985         4.82661111E-09
   41.3349991         4.36221148E-09
   41.4449997         3.75902154E-09
   41.5550003         3.03665337E-09
   41.6650009         2.23359153E-09
   41.7750015         1.39784706E-09
   41.8849983         5.66025560E-10
   41.9949989        -2.36343556E-10
   42.1049995        -9.85546200E-10
   42.2150002        -1.66733927E-09
   42.3250008        -2.28438024E-09
   42.4350014        -2.84071278E-09
   42.5449982        -3.32760974E-09
   42.6549988        -3.73711950E-09
   42.7649994        -4.07795397E-09
   42.8750000        -4.36497416E-09
   42.9850006        -4.60492755E-09
   43.0950012        -4.80436180E-09
   43.2050018        -4.97683228E-09
   43.3149986        -5.12724485E-09
   43.4249992        -5.24087218E-09
   43.5349998        -5.30103694E-09
   43.6450005        -5.30621502E-09
   43.7550011        -5.25835020E-09
   43.8650017        -5.14729814E-09
   43.9749985        -4.95947461E-09
   44.0849991        -4.69031436E-09
   44.1949997        -4.33597913E-09
   44.3050003        -3.88405130E-09
   44.4150009        -3.32762906E-09
   44.5250015        -2.68480771E-09
   44.6349983        -1.99484096E-09
   44.7449989        -1.29727884E-09
   44.8549995        -6.18658402E-10
   44.9650002         2.59106590E-11
   45.0750008         6.23759266E-10
   45.1850014         1.15533283E-09
   45.2949982         1.59093194E-09
   45.4049988         1.89669436E-09
   45.5149994         2.04380735E-09
   45.6250000         2.01502681E-09
   45.7350006         1.81067372E-09
   45.8450012         1.45236467E-09
   45.9550018         9.74920700E-10
   46.0649986         4.09078632E-10
   46.1749992        -2.26461641E-10
   46.2849998        -9.16348386E-10
   46.3950005        -1.63743707E-09
   46.5050011        -2.35740272E-09
   46.6150017        -3.04082381E-09
   46.7249985        -3.65787534E-09
   46.8349991        -4.19144897E-09
   46.9449997        -4.63549954E-09
   47.0550003        -4.98666264E-09
   47.1650009        -5.24317656E-09
   47.2750015        -5.41162803E-09
   47.3849983        -5.50476420E-09
   47.4949989        -5.53183499E-09
   47.6049995        -5.50294477E-09
   47.7150002        -5.44178613E-09
   47.8250008        -5.37550138E-09
   47.9350014        -5.30818589E-09
   48.0449982        -5.22163113E-09
   48.1549988        -5.10343323E-09
   48.2649994        -4.95292696E-09
   48.3750000        -4.75797446E-09
   48.4850006        -4.49261917E-09
   48.5950012        -4.14401846E-09
   48.7050018        -3.71601971E-09
   48.8149986        -3.19920868E-09
   48.9249992        -2.56375876E-09
   49.0349998        -1.79092308E-09
   49.1450005        -8.88763452E-10
   49.2550011         1.27463304E-10
   49.3650017         1.24310273E-09
   49.4749985         2.42521980E-09
   49.5849991         3.62156882E-09
   49.6949997         4.78595741E-09
   49.8050003         5.88347771E-09
   49.9150009         6.86945434E-09
   50.0250015         7.68868258E-09
   50.1349983         8.29873859E-09
   50.2449989         8.67238192E-09
   50.3549995         8.78001849E-09
   50.4650002         8.59668781E-09
   50.5750008         8.12611933E-09
   50.6850014         7.39392769E-09
   50.7949982         6.42059472E-09
   50.9049988         5.22620480E-09
   51.0149994         3.85668608E-09
   51.1250000         2.37884978E-09
   51.2350006         8.53997539E-10
   51.3450012        -6.59025834E-10
   51.4550018        -2.08414175E-09
   51.5649986        -3.34361450E-09
   51.6749992        -4.39303793E-09
   51.7849998        -5.21732701E-09
   51.8950005        -5.79724846E-09
   52.0050011        -6.10500805E-09
   52.1150017        -6.12816820E-09
   52.2249985        -5.87303051E-09
   52.3349991        -5.34889955E-09
   52.4449997        -4.57508031E-09
   52.5550003        -3.60294528E-09
   52.6650009        -2.50783194E-09
   52.7750015        -1.35563549E-09
   52.8849983        -1.90951741E-10
   52.9949989         9.47728784E-10
   53.1049995         2.02130623E-09
   53.2150002         2.99752112E-09
   53.3250008         3.84775056E-09
   53.4350014         4.53679672E-09
   53.5449982         5.03231767E-09
   53.6549988         5.32673505E-09
   53.7649994         5.43797318E-09
   53.8750000         5.38847811E-09
   53.9850006         5.19487253E-09
   54.0950012         4.87649565E-09
   54.2050018         4.45881154E-09
   54.3149986         3.96448518E-09
   54.4249992         3.41278561E-09
   54.5349998         2.83129631E-09
   54.6450005         2.25527841E-09
   54.7550011         1.70719405E-09
   54.8650017         1.18481025E-09
   54.9749985         6.75621392E-10
   55.0849991         1.74287071E-10
   55.1949997        -3.20169946E-10
   55.3050003        -8.12097889E-10
   55.4150009        -1.30202449E-09
   55.5250015        -1.78114290E-09
   55.6349983        -2.24749930E-09
   55.7449989        -2.72136269E-09
   55.8549995        -3.22958926E-09
   55.9650002        -3.77829146E-09
   56.0750008        -4.35215775E-09
   56.1850014        -4.93167240E-09
   56.2949982        -5.49432189E-09
   56.4049988        -6.00738348E-09
   56.5149994        -6.44144116E-09
   56.6250000        -6.78861367E-09
   56.7350006        -7.04906666E-09
   56.8450012        -7.20364568E-09
   56.9550018        -7.21915905E-09
   57.0649986        -7.07650116E-09
   57.1749992        -6.77453160E-09
   57.2849998        -6.31358876E-09
   57.3950005        -5.69949643E-09
   57.5050011        -4.95978458E-09
   57.6150017        -4.13106216E-09
   57.7249985        -3.23198468E-09
   57.8349991        -2.27156915E-09
   57.9449997        -1.28146505E-09
   58.0550003        -3.16528387E-10
   58.1650009         5.74120473E-10
   58.2750015         1.35466705E-09
   58.3849983         1.98849448E-09
   58.4949989         2.44603116E-09
   58.6049995         2.72712852E-09
   58.7150002         2.85017787E-09
   58.8250008         2.81782930E-09
   58.9350014         2.61576338E-09
   59.0449982         2.24399543E-09
   59.1549988         1.72656689E-09
   59.2649994         1.09299625E-09
   59.3750000         3.75130454E-10
   59.4850006        -3.79389548E-10
   59.5950012        -1.11806242E-09
   59.7050018        -1.81252757E-09
   59.8149986        -2.45692999E-09
   59.9249992        -3.03831538E-09
   60.0349998        -3.53064089E-09
   60.1450005        -3.91727406E-09
   60.2550011        -4.19659640E-09
   60.3650017        -4.36619674E-09
   60.4749985        -4.42620784E-09
   60.5849991        -4.39947678E-09
   60.6949997        -4.32306324E-09
   60.8050003        -4.21494084E-09
   60.9150009        -4.07027922E-09
   61.0250015        -3.89182420E-09
   61.1349983        -3.69898978E-09
   61.2449989        -3.50322660E-09
   61.3549995        -3.30053118E-09
   61.4650002        -3.09469717E-09
   61.5750008        -2.90081381E-09
   61.6850014        -2.71430767E-09
   61.7949982        -2.50013921E-09
   61.9049988        -2.22522334E-09
   62.0149994        -1.88114613E-09
   62.1250000        -1.46578194E-09
   62.2350006        -9.68481628E-10
   62.3450012        -3.89678650E-10
   62.4550018         2.47275811E-10
   62.5649986         9.22105003E-10
   62.6749992         1.63652447E-09
   62.7849998         2.38947639E-09
   62.8950005         3.15068638E-09
   63.0050011         3.87578147E-09
   63.1150017         4.53091475E-09
   63.2249985         5.08644327E-09
   63.3349991         5.50559687E-09
   63.4449997         5.76039305E-09
   63.5550003         5.84512838E-09
   63.6650009         5.75748871E-09
   63.7750015         5.48249979E-09
   63.8849983         5.01323028E-09
   63.9949989         4.37243308E-09
   64.1050034         3.59729913E-09
   64.2149963         2.71936318E-09
   64.3249969         1.77550674E-09
   64.4349976         8.18422108E-10
   64.5449982        -1.05894134E-10
   64.6549988        -9.76360215E-10
   64.7649994        -1.77499482E-09
   64.8750000        -2.46470866E-09
   64.9850006        -3.00792724E-09
   65.0950012        -3.38963657E-09
   65.2050018        -3.60343888E-09
   65.3150024        -3.63621400E-09
   65.4250031        -3.49145335E-09
   65.5350037        -3.21088356E-09
   65.6449966        -2.84750512E-09
   65.7549973        -2.42942866E-09
   65.8649979        -1.97004058E-09
   65.9749985        -1.49566193E-09
   66.0849991        -1.03705811E-09
   66.1949997        -6.07327022E-10
   66.3050003        -2.14070678E-10
   66.4150009         1.18465904E-10
   66.5250015         3.66293273E-10
   66.6350021         5.36838796E-10
   66.7450027         6.58950616E-10
   66.8550034         7.48641260E-10
   66.9649963         8.07785672E-10
   67.0749969         8.49781467E-10
   67.1849976         9.00667485E-10
   67.2949982         9.75967640E-10
   67.4049988         1.07841980E-09
   67.5149994         1.21787380E-09
   67.6250000         1.41088075E-09
   67.7350006         1.65602909E-09
   67.8450012         1.92639127E-09
   67.9550018         2.18976504E-09
   68.0650024         2.42195553E-09
   68.1750031         2.59940158E-09
   68.2850037         2.69749112E-09
   68.3949966         2.70365375E-09
   68.5049973         2.61847366E-09
   68.6149979         2.43647613E-09
   68.7249985         2.13735896E-09
   68.8349991         1.70379544E-09
   68.9449997         1.13898935E-09
   69.0550003         4.62448385E-10
   69.1650009        -2.98539721E-10
   69.2750015        -1.10546416E-09
   69.3850021        -1.91024463E-09
   69.4950027        -2.67347366E-09
   69.6050034        -3.37412698E-09
   69.7149963        -3.99313826E-09
   69.8249969        -4.49854376E-09
   69.9349976        -4.85838880E-09
   70.0449982        -5.05812592E-09
   70.1549988        -5.09365616E-09
   70.2649994        -4.96017538E-09
   70.3750000        -4.66460071E-09
   70.4850006        -4.23826751E-09
   70.5950012        -3.71838316E-09
   70.7050018        -3.12462811E-09
   70.8150024        -2.47097431E-09
   70.9250031        -1.78943016E-09
   71.0350037        -1.12027299E-09
   71.1449966        -4.87678953E-10
   71.2549973         9.23324195E-11
   71.3649979         5.90019644E-10
   71.4749985         9.76749570E-10
   71.5849991         1.25787969E-09
   71.6949997         1.46412704E-09
   71.8050003         1.61243741E-09
   71.9150009         1.70017556E-09
   72.0250015         1.73312609E-09
   72.1350021         1.72966508E-09
   72.2450027         1.69791992E-09
   72.3550034         1.63804381E-09
   72.4649963         1.56869895E-09
   72.5749969         1.52231672E-09
   72.6849976         1.50862511E-09
   72.7949982         1.50621038E-09
   72.9049988         1.49202717E-09
   73.0149994         1.45564616E-09
   73.1250000         1.38481826E-09
   73.2350006         1.26431943E-09
   73.3450012         1.09271248E-09
   73.4550018         8.76320683E-10
   73.5650024         6.04452766E-10
   73.6750031         2.53855104E-10
   73.7850037        -1.81089199E-10
   73.8949966        -6.84351520E-10
   74.0049973        -1.24113930E-09
   74.1149979        -1.83900606E-09
   74.2249985        -2.44888665E-09
   74.3349991        -3.03387182E-09
   74.4449997        -3.57824259E-09
   74.5550003        -4.08233847E-09
   74.6650009        -4.53019311E-09
   74.7750015        -4.89019447E-09
   74.8850021        -5.14708809E-09
   74.9950027        -5.30486766E-09
   75.1050034        -5.35987876E-09
   75.2149963        -5.30404298E-09
   75.3249969        -5.15736653E-09
   75.4349976        -4.96421082E-09
   75.5449982        -4.75010031E-09
   75.6549988        -4.51061988E-09
   75.7649994        -4.24810986E-09
   75.8750000        -3.98909261E-09
   75.9850006        -3.75717235E-09
   76.0950012        -3.55662855E-09
   76.2050018        -3.39113648E-09
   76.3150024        -3.27051430E-09
   76.4250031        -3.18681348E-09
   76.5350037        -3.10687764E-09
   76.6449966        -2.99966474E-09
   76.7549973        -2.85181301E-09
   76.8649979        -2.65017963E-09
   76.9749985        -2.37166375E-09
   77.0849991        -1.99937045E-09
   77.1949997        -1.52952273E-09
   77.3050003        -9.55499235E-10
   77.4150009        -2.65103189E-10
   77.5250015         5.37612732E-10
   77.6350021         1.42350087E-09
   77.7450027         2.35556308E-09
   77.8550034         3.29841798E-09
   77.9649963         4.20900825E-09
   78.0749969         5.03912245E-09
   78.1849976         5.75409587E-09
   78.2949982         6.33269703E-09
   78.4049988         6.74477851E-09
   78.5149994         6.94716773E-09
   78.6250000         6.90799995E-09
   78.7350006         6.62167832E-09
   78.8450012         6.09918160E-09
   78.9550018         5.36213562E-09
   79.0650024         4.45063497E-09
   79.1750031         3.41902129E-09
   79.2850037         2.31619812E-09
   79.3949966         1.18165699E-09
   79.5049973         6.31811617E-11
   79.6149979        -9.75857062E-10