  -9.37500000       1.00000002E-24
  -9.26500034       1.00000022E-24
  -9.15499973       1.00000012E-24
  -9.04500008       1.00000002E-24
  -8.93500042       1.00000022E-24
  -8.82499981       1.00000041E-24
  -8.71500015       1.00000032E-24
  -8.60499954       9.99999921E-25
  -8.49499989       9.99999921E-25
  -8.38500023      -1.21766708E-23
  -8.27499962       8.59429436E-23
  -8.16499996       4.59176319E-22
  -8.05500031      -1.13420800E-21
  -7.94500017      -6.38786351E-21
  -7.83500004       5.03475193E-21
  -7.72499990       4.95330679E-20
  -7.61499977       2.13591423E-21
  -7.50500011      -2.64788398E-19
  -7.39499998      -1.69004321E-19
  -7.28499985       1.07400924E-18
  -7.17500019       1.31577107E-18
  -7.06500006      -3.36337241E-18
  -6.95499992      -6.71142089E-18
  -6.84499979       7.63090328E-18
  -6.73500013       2.65955144E-17
  -6.62500000      -7.57183927E-18
  -6.51499987      -8.48342209E-17
  -6.40500021      -3.38992379E-17
  -6.29500008       2.11134331E-16
  -6.18499994       2.35145134E-16
  -6.07499981      -3.68583581E-16
  -5.96500015      -8.29688995E-16
  -5.85500002       2.65173458E-16
  -5.74499989       2.03951028E-15
  -5.63500023       8.87379191E-16
  -5.52500010      -3.59283890E-15
  -5.41499996      -4.36237130E-15
  -5.30499983       3.81241906E-15
  -5.19500017       1.09872116E-14
  -5.08500004       1.20429059E-15
  -4.97499990      -1.84339204E-14
  -4.86499977      -1.61437128E-14
  -4.75500011       1.76692259E-14
  -4.64499998       3.95050983E-14
  -4.53499985       5.11219408E-15
  -4.42500019      -5.34521463E-14
  -4.31500006      -5.25752673E-14
  -4.20499992       2.61914446E-14
  -4.09499979       9.27897082E-14
  -3.98499990       5.55194217E-14
  -3.87500000      -6.14671888E-14
  -3.76500010      -1.38419509E-13
  -3.65499997      -7.71551402E-14
  -3.54500008       1.02781153E-13
  -3.43499994       2.39255935E-13
  -3.32500005       1.29065690E-13
  -3.21499991      -2.18105536E-13
  -3.10500002      -4.33305274E-13
  -2.99499989      -1.30832858E-13
  -2.88499999       4.85845034E-13
  -2.77500010       6.45932797E-13
  -2.66499996      -4.46961024E-14
  -2.55500007      -8.75897987E-13
  -2.44499993      -7.34661680E-13
  -2.33500004       4.22043124E-13
  -2.22499990       1.28090225E-12
  -2.11500001       6.71248755E-13
  -2.00500011      -9.05750843E-13
  -1.89499998      -1.66410765E-12
  -1.78499997      -5.44346957E-13
  -1.67499995       1.39918892E-12
  -1.56500006       1.96902932E-12
  -1.45500004       3.39472184E-13
  -1.34500003      -1.74592665E-12
  -1.23500001      -1.87354082E-12
  -1.12500000       4.93701183E-14
  -1.01499999       1.61693684E-12
 -0.904999971       1.05802736E-12
 -0.795000017      -5.26145154E-13
 -0.685000002      -9.30948569E-13
 -0.574999988       8.88497649E-14
 -0.465000004       8.82409814E-13
 -0.354999989       4.71024803E-13
 -0.245000005      -5.01045711E-13
 -0.135000005      -1.17723322E-12
  -2.50000004E-02  -1.26987722E-12
   8.50000009E-02  -4.55347782E-13
  0.194999993       1.30126964E-12
  0.305000007       2.58563787E-12
  0.414999992       1.57482610E-12
  0.524999976      -1.04994735E-12
  0.634999990      -2.06078449E-12
  0.745000005       1.14030001E-13
  0.855000019       2.50972789E-12
  0.964999974       8.03416307E-13
   1.07500005      -4.93421189E-12
   1.18499994      -9.26948535E-12
   1.29499996      -6.88546616E-12
   1.40499997       1.51128990E-12
   1.51499999       9.67291351E-12
   1.62500000       1.27782455E-11
   1.73500001       1.34819152E-11
   1.84500003       1.96896510E-11
   1.95500004       3.59906965E-11
   2.06500006       5.90496263E-11
   2.17499995       8.29138355E-11
   2.28500009       1.07457224E-10
   2.39499998       1.39377718E-10
   2.50500011       1.85697152E-10
   2.61500001       2.49295945E-10
   2.72499990       3.31644628E-10
   2.83500004       4.37483771E-10
   2.94499993       5.74814973E-10
   3.05500007       7.51490425E-10
   3.16499996       9.74710646E-10
   3.27500010       1.25528743E-09
   3.38499999       1.61115510E-09
   3.49499989       2.06486805E-09
   3.60500002       2.63846922E-09
   3.71499991       3.35411254E-09
   3.82500005       4.24090985E-09
   3.93499994       5.33814903E-09
   4.04500008       6.68999300E-09
   4.15500021       8.34155856E-09
   4.26499987       1.03460254E-08
   4.37500000       1.27743789E-08
   4.48500013       1.57124163E-08
   4.59499979       1.92477607E-08
   4.70499992       2.34656046E-08
   4.81500006       2.84601356E-08
   4.92500019       3.43470852E-08
   5.03499985       4.12622505E-08
   5.14499998       4.93488272E-08
   5.25500011       5.87473714E-08
   5.36499977       6.95964317E-08
   5.47499990       8.20401098E-08
   5.58500004       9.62318012E-08
   5.69500017       1.12327150E-07
   5.80499983       1.30471449E-07
   5.91499996       1.50793184E-07
   6.02500010       1.73403194E-07
   6.13500023       1.98388349E-07
   6.24499989       2.25799354E-07
   6.35500002       2.55644579E-07
   6.46500015       2.87892306E-07
   6.57499981       3.22465894E-07
   6.68499994       3.59224259E-07
   6.79500008       3.97946195E-07
   6.90500021       4.38331909E-07
   7.01499987       4.80007941E-07
   7.12500000       5.22520850E-07
   7.23500013       5.65329401E-07
   7.34499979       6.07807976E-07
   7.45499992       6.49252684E-07
   7.56500006       6.88881812E-07
   7.67500019       7.25840550E-07
   7.78499985       7.59219745E-07
   7.89499998       7.88076477E-07
   8.00500011       8.11446398E-07
   8.11499977       8.28361124E-07
   8.22500038       8.37879327E-07
   8.33500004       8.39115671E-07
   8.44499969       8.31255022E-07
   8.55500031       8.13572285E-07
   8.66499996       7.85469069E-07
   8.77499962       7.46514843E-07
   8.88500023       6.96468646E-07
   8.99499989       6.35287392E-07
   9.10499954       5.63139963E-07
   9.21500015       4.80423807E-07
   9.32499981       3.87772872E-07
   9.43500042       2.86056292E-07
   9.54500008       1.76374812E-07
   9.65499973       6.00515691E-08
   9.76500034      -6.13899047E-08
   9.87500000      -1.86255548E-07
   9.98499966      -3.12713610E-07
   10.0950003      -4.38832274E-07
   10.2049999      -5.62623256E-07
   10.3149996      -6.82085727E-07
   10.4250002      -7.95248013E-07
   10.5349998      -9.00215298E-07
   10.6450005      -9.95218898E-07
   10.7550001      -1.07866242E-06
   10.8649998      -1.14916111E-06
   10.9750004      -1.20557672E-06
   11.0850000      -1.24704559E-06
   11.1949997      -1.27299643E-06
   11.3050003      -1.28316037E-06
   11.4150000      -1.27757994E-06
   11.5249996      -1.25660802E-06
   11.6350002      -1.22089091E-06
   11.7449999      -1.17134255E-06
   11.8549995      -1.10912413E-06
   11.9650002      -1.03561877E-06
   12.0749998      -9.52387381E-07
   12.1850004      -8.61114131E-07
   12.2950001      -7.63566106E-07
   12.4049997      -6.61564627E-07
   12.5150003      -5.56943633E-07
   12.6250000      -4.51492809E-07
   12.7349997      -3.46912230E-07
   12.8450003      -2.44789135E-07
   12.9549999      -1.46577364E-07
   13.0649996      -5.35651878E-08
   13.1750002       3.31502505E-08
   13.2849998       1.12666285E-07
   13.3950005       1.84271087E-07
   13.5050001       2.47450544E-07
   13.6149998       3.01893976E-07
   13.7250004       3.47478107E-07
   13.8350000       3.84240337E-07
   13.9449997       4.12363619E-07
   14.0550003       4.32166587E-07
   14.1650000       4.44079120E-07
   14.2749996       4.48607096E-07
   14.3850002       4.46311390E-07
   14.4949999       4.37797610E-07
   14.6049995       4.23694758E-07
   14.7150002       4.04625126E-07
   14.8249998       3.81188784E-07
   14.9350004       3.53958711E-07
   15.0450001       3.23464377E-07
   15.1549997       2.90171442E-07
   15.2650003       2.54484888E-07
   15.3750000       2.16764050E-07
   15.4849997       1.77311350E-07
   15.5950003       1.36352241E-07
   15.7049999       9.40511029E-08
   15.8149996       5.05489091E-08
   15.9250002       5.96267613E-09
   16.0349998      -3.96417335E-08
   16.1450005      -8.62348202E-08
   16.2549992      -1.33768381E-07
   16.3649998      -1.82158900E-07
   16.4750004      -2.31320342E-07
   16.5849991      -2.81166962E-07
   16.6949997      -3.31558226E-07
   16.8050003      -3.82267899E-07
   16.9150009      -4.33020148E-07
   17.0249996      -4.83511485E-07
   17.1350002      -5.33367881E-07
   17.2450008      -5.82110204E-07
   17.3549995      -6.29191845E-07
   17.4650002      -6.74042099E-07
   17.5750008      -7.16044610E-07
   17.6849995      -7.54506459E-07
   17.7950001      -7.88693171E-07
   17.9050007      -8.17884256E-07
   18.0149994      -8.41374174E-07
   18.1250000      -8.58452836E-07
   18.2350006      -8.68435336E-07
   18.3449993      -8.70721237E-07
   18.4549999      -8.64810147E-07
   18.5650005      -8.50288757E-07
   18.6749992      -8.26847383E-07
   18.7849998      -7.94322546E-07
   18.8950005      -7.52713504E-07
   19.0049992      -7.02170951E-07
   19.1149998      -6.43000590E-07
   19.2250004      -5.75682577E-07
   19.3349991      -5.00875728E-07
   19.4449997      -4.19398731E-07
   19.5550003      -3.32209851E-07
   19.6650009      -2.40394911E-07
   19.7749996      -1.45151333E-07
   19.8850002      -4.77663313E-08
   19.9950008       5.04073050E-08
   20.1049995       1.47984466E-07
   20.2150002       2.43580473E-07
   20.3250008       3.35837484E-07
   20.4349995       4.23453258E-07
   20.5450001       5.05220555E-07
   20.6550007       5.80060089E-07
   20.7649994       6.47023626E-07
   20.8750000       7.05301488E-07
   20.9850006       7.54255382E-07
   21.0949993       7.93452784E-07
   21.2049999       8.22662059E-07
   21.3150005       8.41827898E-07
   21.4249992       8.51074958E-07
   21.5349998       8.50719402E-07
   21.6450005       8.41245935E-07
   21.7549992       8.23272387E-07
   21.8649998       7.97538178E-07
   21.9750004       7.64898743E-07
   22.0849991       7.26296037E-07
   22.1949997       6.82718166E-07
   22.3050003       6.35181266E-07
   22.4150009       5.84712552E-07
   22.5249996       5.32315084E-07
   22.6350002       4.78937636E-07
   22.7450008       4.25474155E-07
   22.8549995       3.72759530E-07
   22.9650002       3.21538721E-07
   23.0750008       2.72444225E-07
   23.1849995       2.26007870E-07
   23.2950001       1.82670789E-07
   23.4050007       1.42763255E-07
   23.5149994       1.06495996E-07
   23.6250000       7.39893622E-08
   23.7350006       4.52978632E-08
   23.8449993       2.03943848E-08
   23.9549999      -8.41940684E-10
   24.0650005      -1.85910825E-08
   24.1749992      -3.30560255E-08
   24.2849998      -4.44689334E-08
   24.3950005      -5.31081277E-08
   24.5049992      -5.92774256E-08
   24.6149998      -6.32707540E-08
   24.7250004      -6.53667485E-08
   24.8349991      -6.58428050E-08
   24.9449997      -6.49748415E-08
   25.0550003      -6.30224619E-08
   25.1650009      -6.02170402E-08
   25.2749996      -5.67584166E-08
   25.3850002      -5.28230153E-08
   25.4950008      -4.85771068E-08
   25.6049995      -4.41733441E-08
   25.7150002      -3.97277091E-08
   25.8250008      -3.53156295E-08
   25.9349995      -3.10042410E-08
   26.0450001      -2.68691576E-08
   26.1550007      -2.29651267E-08
   26.2649994      -1.93063840E-08
   26.3750000      -1.59000315E-08
   26.4850006      -1.27743602E-08
   26.5949993      -9.94738869E-09
   26.7049999      -7.39549577E-09
   26.8150005      -5.08895193E-09
   26.9249992      -3.03412739E-09
   27.0349998      -1.24403354E-09
   27.1450005       3.09904047E-10
   27.2549992       1.67366188E-09
   27.3649998       2.85556467E-09
   27.4750004       3.84000254E-09
   27.5849991       4.64355887E-09
   27.6949997       5.31272448E-09
   27.8050003       5.86988813E-09
   27.9150009       6.30249675E-09
   28.0249996       6.60698207E-09
   28.1350002       6.80794043E-09
   28.2450008       6.92875934E-09
   28.3549995       6.97227343E-09
   28.4650002       6.93836810E-09
   28.5750008       6.83957291E-09
   28.6849995       6.69141587E-09
   28.7950001       6.50127197E-09
   28.9050007       6.27298391E-09
   29.0149994       6.01484196E-09
   29.1250000       5.73952263E-09
   29.2350006       5.45908430E-09
   29.3449993       5.18055909E-09
   29.4549999       4.90730789E-09
   29.5650005       4.64740424E-09
   29.6749992       4.41702852E-09
   29.7849998       4.22905400E-09
   29.8950005       4.08235490E-09
   30.0049992       3.97116384E-09
   30.1149998       3.90082411E-09
   30.2250004       3.88296728E-09
   30.3349991       3.91679533E-09
   30.4449997       3.98647426E-09
   30.5550003       4.07891765E-09
   30.6650009       4.19590096E-09
   30.7749996       4.34405845E-09
   30.8850002       4.51555016E-09
   30.9950008       4.68398387E-09
   31.1049995       4.82432316E-09
   31.2150002       4.93442620E-09
   31.3250008       5.02620745E-09
   31.4349995       5.09452391E-09
   31.5450001       5.11218223E-09
   31.6550007       5.06393238E-09
   31.7649994       4.96512520E-09
   31.8750000       4.83150053E-09
   31.9850006       4.65153160E-09
   32.0950012       4.41086190E-09
   32.2050018       4.12545331E-09
   32.3149986       3.82379017E-09
   32.4249992       3.51129992E-09
   32.5349998       3.18082316E-09
   32.6450005       2.84583224E-09
   32.7550011       2.53286125E-09
   32.8650017       2.24868990E-09
   32.9749985       1.98404493E-09
   33.0849991       1.74583015E-09
   33.1949997       1.55903679E-09
   33.3050003       1.43635959E-09
   33.4150009       1.36676825E-09
   33.5250015       1.33601297E-09
   33.6349983       1.34353006E-09
   33.7449989       1.39649381E-09
   33.8549995       1.49471091E-09
   33.9650002       1.62282732E-09
   34.0750008       1.75898440E-09
   34.1850014       1.89590521E-09
   34.2949982       2.04617212E-09
   34.4049988       2.21446483E-09
   34.5149994       2.37506437E-09
   34.6250000       2.49767873E-09
   34.7350006       2.58618327E-09
   34.8450012       2.66445865E-09
   34.9550018       2.73051692E-09
   35.0649986       2.75741874E-09
   35.1749992       2.73860179E-09
   35.2849998       2.69756240E-09
   35.3950005       2.64700772E-09
   35.5050011       2.57098653E-09
   35.6150017       2.45788634E-09
   35.7249985       2.32246444E-09
   35.8349991       2.18108798E-09
   35.9449997       2.02816275E-09
   36.0550003       1.85304772E-09
   36.1650009       1.66364633E-09
   36.2750015       1.47654089E-09
   36.3849983       1.29282340E-09
   36.4949989       1.09885778E-09
   36.6049995       8.89725293E-10
   36.7150002       6.80929813E-10
   36.8250008       4.91741203E-10
   36.9350014       3.22156163E-10
   37.0449982       1.56175059E-10
   37.1549988      -1.03740167E-11
   37.2649994      -1.57435440E-10
   37.3750000      -2.65117928E-10
   37.4850006      -3.39151596E-10
   37.5950012      -3.96765593E-10
   37.7050018      -4.34881714E-10
   37.8149986      -4.31416375E-10
   37.9249992      -3.76509490E-10
   38.0349998      -2.84414686E-10
   38.1450005      -1.71554798E-10
   38.2550011      -3.74086873E-11
   38.3650017       1.26827979E-10
   38.4749985       3.19483023E-10
   38.5849991       5.24958632E-10
   38.6949997       7.27225669E-10
   38.8050003       9.23102650E-10
   38.9150009       1.11840059E-09
   39.0250015       1.31012468E-09
   39.1349983       1.48046464E-09
   39.2449989       1.61508407E-09
   39.3549995       1.71786729E-09
   39.4650002       1.79612736E-09
   39.5750008       1.84189453E-09
   39.6850014       1.84490689E-09
   39.7949982       1.81495430E-09
   39.9049988       1.77033965E-09
   40.0149994       1.71048453E-09
   40.1250000       1.62247793E-09
   40.2350006       1.51074886E-09
   40.3450012       1.39660272E-09
   40.4550018       1.28877087E-09
   40.5649986       1.17674137E-09
   40.6749992       1.05594478E-09
   40.7849998       9.40286404E-10
   40.8950005       8.44370462E-10
   41.0050011       7.66780028E-10
   41.1150017       6.95905000E-10
   41.2249985       6.24540919E-10
   41.3349991       5.56172997E-10
   41.4449997       4.99785546E-10
   41.5550003       4.57534399E-10
   41.6650009       4.19030866E-10
   41.7750015       3.74367426E-10
   41.8849983       3.29928695E-10
   41.9949989       2.99790637E-10
   42.1049995       2.83873869E-10
   42.2150002       2.69721578E-10
   42.3250008       2.55261229E-10
   42.4350014       2.53008670E-10
   42.5449982       2.70202527E-10
   42.6549988       3.01064090E-10
   42.7649994       3.41554257E-10
   42.8750000       3.97051586E-10
   42.9850006       4.71653328E-10
   43.0950012       5.61262703E-10
   43.2050018       6.59921173E-10
   43.3149986       7.64745267E-10
   43.4249992       8.73893236E-10
   43.5349998       9.84698434E-10
   43.6450005       1.09184584E-09
   43.7550011       1.18595767E-09
   43.8650017       1.26057820E-09
   43.9749985       1.32003664E-09
   44.0849991       1.36907774E-09
   44.1949997       1.39663081E-09
   44.3050003       1.38706713E-09
   44.4150009       1.34686684E-09
   44.5250015       1.29807043E-09
   44.6349983       1.24298127E-09
   44.7449989       1.16061205E-09
   44.8549995       1.04471443E-09
   44.9650002       9.19091470E-10
   45.0750008       8.03329347E-10
   45.1850014       6.86880108E-10
   45.2949982       5.52832669E-10
   45.4049988       4.08855449E-10
   45.5149994       2.76644957E-10
   45.6250000       1.61365310E-10
   45.7350006       4.74099371E-11
   45.8450012      -7.88242388E-11
   45.9550018      -2.12530216E-10
   46.0649986      -3.38843620E-10
   46.1749992      -4.53734883E-10
   46.2849998      -5.70441139E-10
   46.3950005      -6.99898861E-10
   46.5050011      -8.31240465E-10
   46.6150017      -9.45423184E-10
   46.7249985      -1.04439501E-09
   46.8349991      -1.14630516E-09
   46.9449997      -1.25079380E-09
   47.0550003      -1.33343470E-09
   47.1650009      -1.38113576E-09
   47.2750015      -1.40762701E-09
   47.3849983      -1.42260059E-09
   47.4949989      -1.41059597E-09
   47.6049995      -1.35673994E-09
   47.7150002      -1.27176114E-09
   47.8250008      -1.17249521E-09
   47.9350014      -1.05488041E-09
   48.0449982      -9.06584696E-10
   48.1549988      -7.34695083E-10
   48.2649994      -5.61586999E-10
   48.3750000      -3.99387495E-10
   48.4850006      -2.44264192E-10
   48.5950012      -9.36662692E-11
   48.7050018       4.31991595E-11
   48.8149986       1.53925039E-10
   48.9249992       2.35230835E-10
   49.0349998       2.93055635E-10
   49.1450005       3.31204619E-10
   49.2550011       3.43524237E-10
   49.3650017       3.21830507E-10
   49.4749985       2.70269085E-10
   49.5849991       2.04446904E-10
   49.6949997       1.35270892E-10
   49.8050003       6.19673965E-11
   49.9150009      -1.64790039E-11
   50.0250015      -9.21174595E-11
   50.1349983      -1.54894431E-10
   50.2449989      -2.01628769E-10
   50.3549995      -2.33790348E-10
   50.4650002      -2.51525328E-10
   50.5750008      -2.52888710E-10
   50.6850014      -2.35845593E-10
   50.7949982      -2.01015316E-10
   50.9049988      -1.54561780E-10
   51.0149994      -1.04359077E-10
   51.1250000      -5.02312220E-11
   51.2350006       1.48087514E-11
   51.3450012       8.92170712E-11
   51.4550018       1.59111890E-10
   51.5649986       2.16460169E-10
   51.6749992       2.68433414E-10
   51.7849998       3.19240356E-10
   51.8950005       3.57530450E-10
   52.0050011       3.75977194E-10
   52.1150017       3.88957699E-10
   52.2249985       4.12355539E-10
   52.3349991       4.37639924E-10
   52.4449997       4.46921500E-10
   52.5550003       4.44514814E-10
   52.6650009       4.50086440E-10
   52.7750015       4.65489508E-10
   52.8849983       4.73067474E-10
   52.9949989       4.67212768E-10
   53.1049995       4.64135730E-10
   53.2150002       4.75146866E-10
   53.3250008       4.90645913E-10
   53.4350014       4.99017827E-10
   53.5449982       5.04657705E-10
   53.6549988       5.17094645E-10
   53.7649994       5.35346878E-10
   53.8750000       5.53542268E-10
   53.9850006       5.71966863E-10
   54.0950012       5.93145644E-10
   54.2050018       6.15848039E-10
   54.3149986       6.41383058E-10
   54.4249992       6.76776080E-10
   54.5349998       7.23480442E-10
   54.6450005       7.72618858E-10
   54.7550011       8.19596724E-10
   54.8650017       8.71817341E-10
   54.9749985       9.32034117E-10
   55.0849991       9.87295690E-10
   55.1949997       1.02720832E-09
   55.3050003       1.05963227E-09
   55.4150009       1.09288134E-09
   55.5250015       1.11595044E-09
   55.6349983       1.11454246E-09
   55.7449989       1.09361264E-09
   55.8549995       1.06327924E-09
   55.9650002       1.01460396E-09
   56.0750008       9.33002675E-10
   56.1850014       8.26011926E-10
   56.2949982       7.12934101E-10
   56.4049988       5.94119365E-10
   56.5149994       4.55475241E-10
   56.6250000       2.98670644E-10
   56.7350006       1.42637624E-10
   56.8450012      -2.89368226E-12
   56.9550018      -1.44172271E-10
   57.0649986      -2.84978735E-10
   57.1749992      -4.19009383E-10
   57.2849998      -5.39317535E-10
   57.3950005      -6.42385145E-10
   57.5050011      -7.26915139E-10
   57.6150017      -7.97901967E-10
   57.7249985      -8.63261629E-10
   57.8349991      -9.19001875E-10
   57.9449997      -9.51835277E-10
   58.0550003      -9.64315183E-10
   58.1650009      -9.77998571E-10
   58.2750015      -1.00089759E-09
   58.3849983      -1.01421183E-09
   58.4949989      -1.00550168E-09
   58.6049995      -9.90793336E-10
   58.7150002      -9.85291848E-10
   58.8250008      -9.75919123E-10
   58.9350014      -9.45455936E-10
   59.0449982      -9.02934394E-10
   59.1549988      -8.64990968E-10
   59.2649994      -8.24183111E-10
   59.3750000      -7.62039210E-10
   59.4850006      -6.81243228E-10
   59.5950012      -5.99687411E-10
   59.7050018      -5.20889554E-10
   59.8149986      -4.33894670E-10
   59.9249992      -3.38320344E-10
   60.0349998      -2.48568277E-10
   60.1450005      -1.73478551E-10
   60.2550011      -1.08553173E-10
   60.3650017      -5.04366826E-11
   60.4749985      -6.67052091E-12
   60.5849991       1.23704606E-11
   60.6949997       3.47693510E-12
   60.8050003      -3.00564677E-11
   60.9150009      -8.41249154E-11
   61.0250015      -1.56996569E-10
   61.1349983      -2.49404636E-10
   61.2449989      -3.61460140E-10
   61.3549995      -4.87322571E-10
   61.4650002      -6.14854001E-10
   61.5750008      -7.34762196E-10
   61.6850014      -8.48362991E-10
   61.7949982      -9.59800461E-10
   61.9049988      -1.06144371E-09
   62.0149994      -1.13722376E-09
   62.1250000      -1.18323618E-09
   62.2350006      -1.21219734E-09
   62.3450012      -1.22991051E-09
   62.4550018      -1.22199262E-09
   62.5649986      -1.17776155E-09
   62.6749992      -1.11286758E-09
   62.7849998      -1.04823572E-09
   62.8950005      -9.78877868E-10
   63.0050011      -8.88650487E-10
   63.1150017      -7.86340215E-10
   63.2249985      -6.97197078E-10
   63.3349991      -6.23479046E-10
   63.4449997      -5.45353984E-10
   63.5550003      -4.60207955E-10
   63.6650009      -3.88074572E-10
   63.7750015      -3.34742178E-10
   63.8849983      -2.81953128E-10
   63.9949989      -2.21017829E-10
   64.1050034      -1.65822814E-10
   64.2149963      -1.23811170E-10
   64.3249969      -8.18392507E-11
   64.4349976      -3.03034230E-11
   64.5449982       2.33031389E-11
   64.6549988       7.31505898E-11
   64.7649994       1.24929400E-10
   64.8750000       1.80286855E-10
   64.9850006       2.31729788E-10
   65.0950012       2.77059903E-10
   65.2050018       3.19681059E-10
   65.3150024       3.53844426E-10
   65.4250031       3.69514780E-10
   65.5350037       3.70274700E-10
   65.6449966       3.65335345E-10
   65.7549973       3.47585349E-10
   65.8649979       3.03341435E-10
   65.9749985       2.39970155E-10
   66.0849991       1.77698092E-10
   66.1949997       1.16788218E-10
   66.3050003       4.09719411E-11
   66.4150009      -4.69296511E-11
   66.5250015      -1.22318738E-10
   66.6350021      -1.75247428E-10
   66.7450027      -2.20883922E-10
   66.8550034      -2.66272865E-10
   66.9649963      -2.93546659E-10
   67.0749969      -2.87928736E-10
   67.1849976      -2.59465477E-10
   67.2949982      -2.22327795E-10
   67.4049988      -1.71091488E-10
   67.5149994      -9.43197812E-11
   67.6250000       1.64451135E-12
   67.7350006       9.98144345E-11
   67.8450012       1.95377256E-10
   67.9550018       2.95265840E-10
   68.0650024       3.99280747E-10
   68.1750031       4.96691299E-10
   68.2850037       5.81181825E-10
   68.3949966       6.56756372E-10
   68.5049973       7.27336746E-10
   68.6149979       7.90464916E-10
   68.7249985       8.43326353E-10
   68.8349991       8.87053042E-10
   68.9449997       9.23718990E-10
   69.0550003       9.55805102E-10
   69.1650009       9.88069959E-10
   69.2750015       1.02276498E-09
   69.3850021       1.05546261E-09
   69.4950027       1.08421527E-09
   69.6050034       1.11792320E-09
   69.7149963       1.16321486E-09
   69.8249969       1.20845534E-09
   69.9349976       1.23719812E-09
   70.0449982       1.25283406E-09
   70.1549988       1.26977595E-09
   70.2649994       1.28356670E-09
   70.3750000       1.27387223E-09
   70.4850006       1.23670252E-09
   70.5950012       1.18686050E-09
   70.7050018       1.12578247E-09
   70.8150024       1.03601328E-09
   70.9250031       9.14359477E-10
   71.0350037       7.81141429E-10
   71.1449966       6.46544429E-10
   71.2549973       4.97016928E-10
   71.3649979       3.27957439E-10
   71.4749985       1.61082953E-10
   71.5849991       1.32450049E-11
   71.6949997      -1.24894609E-10
   71.8050003      -2.60948263E-10
   71.9150009      -3.77282122E-10
   72.0250015      -4.56241295E-10
   72.1350021      -5.06530151E-10
   72.2450027      -5.42641931E-10
   72.3550034      -5.57417501E-10
   72.4649963      -5.37398515E-10
   72.5749969      -4.89057406E-10
   72.6849976      -4.27616165E-10
   72.7949982      -3.53484353E-10
   72.9049988      -2.61241334E-10
   73.0149994      -1.60350108E-10
   73.1250000      -6.58456137E-11
   73.2350006       2.23026406E-11
   73.3450012       1.10780274E-10
   73.4550018       1.92427754E-10
   73.5650024       2.54207350E-10
   73.6750031       2.98944675E-10
   73.7850037       3.38880812E-10
   73.8949966       3.72178233E-10
   74.0049973       3.86248700E-10
   74.1149979       3.82142595E-10
   74.2249985       3.75269621E-10
   74.3349991       3.71809139E-10
   74.4449997       3.64312108E-10
   74.5550003       3.52534141E-10
   74.6650009       3.48396118E-10
   74.7750015       3.55961483E-10
   74.8850021       3.66355751E-10
   74.9950027       3.78668652E-10
   75.1050034       4.05767947E-10
   75.2149963       4.50991383E-10
   75.3249969       4.99215780E-10
   75.4349976       5.41477529E-10
   75.5449982       5.87930593E-10
   75.6549988       6.43636866E-10
   75.7649994       6.92697621E-10
   75.8750000       7.22510607E-10
   75.9850006       7.43123285E-10
   76.0950012       7.63594576E-10
   76.2050018       7.69069142E-10
   76.3150024       7.42933881E-10
   76.4250031       6.93099522E-10
   76.5350037       6.32892627E-10
   76.6449966       5.53947388E-10
   76.7549973       4.43836939E-10
   76.8649979       3.13699622E-10
   76.9749985       1.80631107E-10
   77.0849991       3.83756707E-11
   77.1949997      -1.24967453E-10
   77.3050003      -2.94684249E-10
   77.4150009      -4.46255671E-10
   77.5250015      -5.81318604E-10
   77.6350021      -7.14019233E-10
   77.7450027      -8.33319580E-10
   77.8550034      -9.14171572E-10
   77.9649963      -9.57306567E-10
   78.0749969      -9.81406845E-10
   78.1849976      -9.81718706E-10
   78.2949982      -9.33882527E-10
   78.4049988      -8.36635816E-10
   78.5149994      -7.14116599E-10
   78.6250000      -5.75461512E-10
   78.7350006      -4.08093975E-10
   78.8450012      -2.14143245E-10
   78.9550018      -1.86211220E-11
   79.0650024       1.64628741E-10
   79.1750031       3.43079176E-10
   79.2850037       5.14984222E-10
   79.3949966       6.59085397E-10
   79.5049973       7.62457875E-10
   79.6149979       8.30491398E-10
   79.7249985       8.62208471E-10
   79.8349991       8.43840220E-10
   79.9449997       7.74818654E-10
   80.0550003       6.72867206E-10
   80.1650009       5.45328283E-10
   80.2750015       3.82706616E-10
   80.3850021       1.88873264E-10
   80.4950027      -1.04174464E-11
   80.6050034      -1.98640104E-10
   80.7149963      -3.79898613E-10
   80.8249969      -5.48997348E-10
   80.9349976      -6.79992951E-10
   81.0449982      -7.58470509E-10
   81.1549988      -7.96770261E-10
   81.2649994      -8.01964495E-10
   81.3750000      -7.57494456E-10
   81.4850006      -6.54501453E-10
   81.5950012      -5.13265597E-10
   81.7050018      -3.53085367E-10
   81.8150024      -1.68092359E-10
   81.9250031       4.38509055E-11
   82.0350037       2.54181343E-10
   82.1449966       4.32016894E-10
   82.2549973       5.77108694E-10
   82.3649979       6.97598146E-10
   82.4749985       7.76131381E-10
   82.5849991       7.87684751E-10
   82.6949997       7.33732353E-10
   82.8050003       6.29245211E-10
   82.9150009       4.71260642E-10
   83.0250015       2.50701238E-10
   83.1350021      -1.74220412E-11
   83.2450027      -3.05801495E-10
   83.3550034      -6.06131256E-10
   83.4649963      -9.19595788E-10
   83.5749969      -1.22672861E-09
   83.6849976      -1.49745671E-09
   83.7949982      -1.72323789E-09
   83.9049988      -1.90905802E-09
   84.0149994      -2.04093764E-09
   84.1250000      -2.09361128E-09
   84.2350006      -2.06643103E-09
   84.3450012      -1.98009764E-09
   84.4550018      -1.84045679E-09
   84.5650024      -1.63783487E-09
   84.6750031      -1.38162959E-09
   84.7850037      -1.10208043E-09