  -9.37500000         1.00000002E-24
  -9.26500034         1.00000002E-24
  -9.15499973         1.00000032E-24
  -9.04500008         1.00000032E-24
  -8.93500042         1.00000002E-24
  -8.82499981         1.00000002E-24
  -8.71500015         1.00000022E-24
  -8.60499954         1.00000041E-24
  -8.49499989         1.00000041E-24
  -8.38500023         1.00000002E-24
  -8.27499962         9.99999921E-25
  -8.16499996         1.00000002E-24
  -8.05500031         9.99999921E-25
  -7.94500017         9.99999724E-25
  -7.83500004         1.00000002E-24
  -7.72499990         1.00000071E-24
  -7.61499977         1.00000071E-24
  -7.50500011         1.00000002E-24
  -7.39499998         9.99999527E-25
  -7.28499985         1.00000189E-24
  -7.17500019         1.00000347E-24
  -7.06500006         9.99978819E-25
  -6.95499992         9.99984735E-25
  -6.84499979         1.00020000E-24
  -6.73500013         1.00006826E-24
  -6.62500000         9.98481068E-25
  -6.51499987         9.99394372E-25
  -6.40500021         1.00949179E-24
  -6.29500008         1.00667053E-24
  -6.18499994         9.51329570E-25
  -6.07499981         9.42427274E-25
  -5.96500015         1.19867977E-24
  -5.85500002         1.37648842E-24
  -5.74499989         4.07530030E-25
  -5.63500023        -9.12085022E-25
  -5.52500010         1.87657407E-24
  -5.41499996         8.62122733E-24
  -5.30499983         3.85272566E-24
  -5.19500017        -2.23704702E-23
  -5.08500004        -2.73358353E-23
  -4.97499990         5.10276601E-23
  -4.86499977         1.29583139E-22
  -4.75500011        -3.85402034E-23
  -4.64499998        -4.04194733E-22
  -4.53499985        -2.32855861E-22
  -4.42500019         9.13548790E-22
  -4.31500006         1.39762716E-21
  -4.20499992        -1.20192736E-21
  -4.09499979        -4.54141665E-21
  -3.98499990        -7.78849061E-22
  -3.87500000         1.02634397E-20
  -3.76500010         1.01175813E-20
  -3.65499997        -1.51466108E-20
  -3.54500008        -3.42309439E-20
  -3.43499994         5.46865138E-21
  -3.32500005         7.49537886E-20
  -3.21499991         4.64952148E-20
  -3.10500002        -1.09911740E-19
  -2.99499989        -1.69122634E-19
  -2.88499999         7.45369865E-20
  -2.77500010         3.49515371E-19
  -2.66499996         1.21302974E-19
  -2.55500007        -4.86533781E-19
  -2.44499993        -5.16250400E-19
  -2.33500004         4.11499659E-19
  -2.22499990         1.01836532E-18
  -2.11500001        -9.45770605E-21
  -2.00500011        -1.46544765E-18
  -1.89499998        -7.20560289E-19
  -1.78499997         1.80770934E-18
  -1.67499995         1.91818552E-18
  -1.56500006        -1.97262124E-18
  -1.45500004        -4.16751005E-18
  -1.34500003         1.03139196E-18
  -1.23500001         7.79232261E-18
  -1.12500000         3.36732882E-18
  -1.01499999        -1.07647647E-17
 -0.904999971        -1.31253703E-17
 -0.795000017         7.77245870E-18
 -0.685000002         2.56175884E-17
 -0.574999988         6.00864493E-18
 -0.465000004        -3.27492418E-17
 -0.354999989        -2.88435696E-17
 -0.245000005         2.72306468E-17
 -0.135000005         5.31426387E-17
  -2.50000004E-02    -8.61514812E-18
   8.50000009E-02    -7.43357769E-17
  0.194999993        -2.30471842E-17
  0.305000007         9.16788294E-17
  0.414999992         7.85473306E-17
  0.524999976        -8.88211851E-17
  0.634999990        -1.67128203E-16
  0.745000005         1.74805498E-17
  0.855000019         2.50343764E-16
  0.964999974         1.68016198E-16
   1.07500005        -2.07682592E-16
   1.18499994        -4.07859017E-16
   1.29499996        -9.22397439E-17
   1.40499997         4.51255056E-16
   1.51499999         5.59833350E-16
   1.62500000        -1.54762945E-17
   1.73500001        -7.06053948E-16
   1.84500003        -7.04511025E-16
   1.95500004         5.71755247E-17
   2.06500006         7.96831951E-16
   2.17499995         8.47447940E-16
   2.28500009         3.07824770E-16
   2.39499998        -4.65122520E-16
   2.50500011        -1.26936389E-15
   2.61500001        -1.45594291E-15
   2.72499990        -6.08115922E-17
   2.83500004         2.25809179E-15
   2.94499993         2.74121948E-15
   3.05500007         8.69759966E-17
   3.16499996        -2.74192824E-15
   3.27500010        -2.28956817E-15
   3.38499999        -6.19207223E-17
   3.49499989         9.57421590E-17
   3.60500002        -6.52480173E-16
   3.71499991         2.27487956E-15
   3.82500005         6.82321377E-15
   3.93499994         3.84725753E-15
   4.04500008        -8.27960137E-15
   4.15500021        -1.55982337E-14
   4.26499987        -4.26842518E-15
   4.37500000         1.75898792E-14
   4.48500013         2.36129696E-14
   4.59499979         1.05191797E-16
   4.70499992        -3.10267525E-14
   4.81500006        -3.04474328E-14
   4.92500019         1.06863388E-14
   5.03499985         4.90169259E-14
   5.14499998         3.36967088E-14
   5.25500011        -2.55868663E-14
   5.36499977        -6.07918121E-14
   5.47499990        -3.00817924E-14
   5.58500004         2.72175454E-14
   5.69500017         4.70845625E-14
   5.80499983         2.51446304E-14
   5.91499996         3.43160491E-15
   6.02500010        -5.41029039E-15
   6.13500023        -2.48108571E-14
   6.24499989        -5.11866110E-14
   6.35500002        -4.32343235E-14
   6.46500015         1.35233240E-14
   6.57499981         7.46182968E-14
   6.68499994         8.19257788E-14
   6.79500008         1.90094996E-14
   6.90500021        -6.91033466E-14
   7.01499987        -9.69889994E-14
   7.12500000        -2.24204996E-14
   7.23500013         6.98165552E-14
   7.34499979         4.83733333E-14
   7.45499992        -5.95686830E-14
   7.56500006        -6.93041951E-14
   7.67500019         7.13990837E-14
   7.78499985         1.56683612E-13
   7.89499998         3.48656176E-14
   8.00500011        -1.32016848E-13
   8.11499977        -1.31305896E-13
   8.22500038        -3.86004603E-14
   8.33500004        -2.29737477E-14
   8.44499969        -2.94760626E-15
   8.55500031         1.57917611E-13
   8.66499996         2.82755210E-13
   8.77499962         1.17297204E-13
   8.88500023        -1.96413266E-13
   8.99499989        -3.05953125E-13
   9.10499954        -1.82346963E-13
   9.21500015        -4.53308554E-14
   9.32499981         6.39328339E-14
   9.43500042         1.71361826E-13
   9.54500008         8.42309553E-14
   9.65499973        -2.35591874E-13
   9.76500034        -3.21518420E-13
   9.87500000         1.43173871E-13
   9.98499966         7.03701800E-13
   10.0950003         8.96044632E-13
   10.2049999         1.13315889E-12
   10.3149996         1.94025395E-12
   10.4250002         2.92510851E-12
   10.5349998         3.64526378E-12
   10.6450005         4.81720957E-12
   10.7550001         7.26039064E-12
   10.8649998         1.03565359E-11
   10.9750004         1.32627928E-11
   11.0850000         1.69620880E-11
   11.1949997         2.31191524E-11
   11.3050003         3.15596299E-11
   11.4150000         4.11769022E-11
   11.5249996         5.27736535E-11
   11.6350002         6.84919482E-11
   11.7449999         8.90089877E-11
   11.8549995         1.14139594E-10
   11.9650002         1.45682369E-10
   12.0749998         1.86541629E-10
   12.1850004         2.37639297E-10
   12.2950001         2.99308051E-10
   12.4049997         3.75211057E-10
   12.5150003         4.70835038E-10
   12.6250000         5.88681104E-10
   12.7349997         7.29745375E-10
   12.8450003         8.99503083E-10
   12.9549999         1.10708220E-09
   13.0649996         1.35853540E-09
   13.1750002         1.65701752E-09
   13.2849998         2.01014072E-09
   13.3950005         2.43053089E-09
   13.5050001         2.92803803E-09
   13.6149998         3.50864648E-09
   13.7250004         4.18287227E-09
   13.8350000         4.96762809E-09
   13.9449997         5.87725291E-09
   14.0550003         6.92046109E-09
   14.1650000         8.10902012E-09
   14.2749996         9.46101686E-09
   14.3850002         1.09917311E-08
   14.4949999         1.27098048E-08
   14.6049995         1.46265311E-08
   14.7150002         1.67592695E-08
   14.8249998         1.91198968E-08
   14.9350004         2.17092282E-08
   15.0450001         2.45291236E-08
   15.1549997         2.75893601E-08
   15.2650003         3.08938652E-08
   15.3750000         3.44298741E-08
   15.4849997         3.81800902E-08
   15.5950003         4.21351771E-08
   15.7049999         4.62823060E-08
   15.8149996         5.05904225E-08
   15.9250002         5.50195765E-08
   16.0349998         5.95361840E-08
   16.1450005         6.41047464E-08
   16.2549992         6.86714543E-08
   16.3649998         7.31718828E-08
   16.4750004         7.75498350E-08
   16.5849991         8.17521695E-08
   16.6949997         8.57102975E-08
   16.8050003         8.93453347E-08
   16.9150009         9.25896941E-08
   17.0249996         9.53860635E-08
   17.1350002         9.76674031E-08
   17.2450008         9.93591485E-08
   17.3549995         1.00403220E-07
   17.4650002         1.00760701E-07
   17.5750008         1.00389606E-07
   17.6849995         9.92427687E-08
   17.7950001         9.72936718E-08
   17.9050007         9.45438927E-08
   18.0149994         9.09985971E-08
   18.1250000         8.66572734E-08
   18.2350006         8.15390351E-08
   18.3449993         7.56954961E-08
   18.4549999         6.91854254E-08
   18.5650005         6.20580067E-08
   18.6749992         5.43766951E-08
   18.7849998         4.62380285E-08
   18.8950005         3.77461724E-08
   19.0049992         2.89866442E-08
   19.1149998         2.00460128E-08
   19.2250004         1.10383471E-08
   19.3349991         2.08465067E-09
   19.4449997        -6.72028833E-09
   19.5550003        -1.52942317E-08
   19.6650009        -2.35360567E-08
   19.7749996        -3.13403881E-08
   19.8850002        -3.86350081E-08
   19.9950008        -4.53717171E-08
   20.1049995        -5.14886089E-08
   20.2150002        -5.69180152E-08
   20.3250008        -6.16288247E-08
   20.4349995        -6.56232402E-08
   20.5450001        -6.88924047E-08
   20.6550007        -7.14146040E-08
   20.7649994        -7.32006882E-08
   20.8750000        -7.42991091E-08
   20.9850006        -7.47472271E-08
   21.0949993        -7.45594377E-08
   21.2049999        -7.37752401E-08
   21.3150005        -7.24744424E-08
   21.4249992        -7.07251218E-08
   21.5349998        -6.85591672E-08
   21.6450005        -6.60212294E-08
   21.7549992        -6.31971346E-08
   21.8649998        -6.01640195E-08
   21.9750004        -5.69538479E-08
   22.0849991        -5.35994040E-08
   22.1949997        -5.01746840E-08
   22.3050003        -4.67497969E-08
   22.4150009        -4.33437393E-08
   22.5249996        -3.99659434E-08
   22.6350002        -3.66683572E-08
   22.7450008        -3.35070638E-08
   22.8549995        -3.04853920E-08
   22.9650002        -2.75884471E-08
   23.0750008        -2.48448782E-08
   23.1849995        -2.22969128E-08
   23.2950001        -1.99354560E-08
   23.4050007        -1.77267268E-08
   23.5149994        -1.56816178E-08
   23.6250000        -1.38341258E-08
   23.7350006        -1.21691635E-08
   23.8449993        -1.06401874E-08
   23.9549999        -9.24539556E-09
   24.0650005        -8.01607047E-09
   24.1749992        -6.93869007E-09
   24.2849998        -5.96207039E-09
   24.3950005        -5.07718179E-09
   24.5049992        -4.31478497E-09
   24.6149998        -3.66468034E-09
   24.7250004        -3.07490677E-09
   24.8349991        -2.53507637E-09
   24.9449997        -2.08130957E-09
   25.0550003        -1.71024939E-09
   25.1650009        -1.36902034E-09
   25.2749996        -1.04296227E-09
   25.3850002        -7.70821074E-10
   25.4950008        -5.56256097E-10
   25.6049995        -3.48474388E-10
   25.7150002        -1.32182196E-10
   25.8250008         4.88297146E-11
   25.9349995         1.84231366E-10
   26.0450001         3.27202987E-10
   26.1550007         5.00738562E-10
   26.2649994         6.59787891E-10
   26.3750000         7.83276721E-10
   26.4850006         9.18877530E-10
   26.5949993         1.09479903E-09
   26.7049999         1.27012889E-09
   26.8150005         1.41833523E-09
   26.9249992         1.57913804E-09
   27.0349998         1.77806692E-09
   27.1450005         1.97194283E-09
   27.2549992         2.12511830E-09
   27.3649998         2.26433206E-09
   27.4750004         2.40403297E-09
   27.5849991         2.48844745E-09
   27.6949997         2.46058884E-09
   27.8050003         2.31812147E-09
   27.9150009         2.04494266E-09
   28.0249996         1.55195379E-09
   28.1350002         7.38143768E-10
   28.2450008        -4.55356253E-10
   28.3549995        -2.10833329E-09
   28.4650002        -4.38016201E-09
   28.5750008        -7.45667617E-09
   28.6849995        -1.14997052E-08
   28.7950001        -1.67027867E-08
   28.9050007        -2.33448230E-08
   29.0149994        -3.17437170E-08
   29.1250000        -4.22124273E-08
   29.2350006        -5.51076056E-08
   29.3449993        -7.08720904E-08
   29.4549999        -8.99878856E-08
   29.5650005        -1.12936249E-07
   29.6749992        -1.40240644E-07
   29.7849998        -1.72495817E-07
   29.8950005        -2.10313559E-07
   30.0049992        -2.54278291E-07
   30.1149998        -3.04977590E-07
   30.2250004        -3.63015374E-07
   30.3349991        -4.28949733E-07
   30.4449997        -5.03245019E-07
   30.5550003        -5.86286660E-07
   30.6650009        -6.78373226E-07
   30.7749996        -7.79647564E-07
   30.8850002        -8.90048227E-07
   30.9950008        -1.00931425E-06
   31.1049995        -1.13696467E-06
   31.2150002        -1.27223416E-06
   31.3250008        -1.41404212E-06
   31.4349995        -1.56100600E-06
   31.5450001        -1.71142301E-06
   31.6550007        -1.86322097E-06
   31.7649994        -2.01396756E-06
   31.8750000        -2.16092053E-06
   31.9850006        -2.30103933E-06
   32.0950012        -2.43097338E-06
   32.2050018        -2.54712586E-06
   32.3149986        -2.64576192E-06
   32.4249992        -2.72306465E-06
   32.5349998        -2.77516278E-06
   32.6450005        -2.79824599E-06
   32.7550011        -2.78872426E-06
   32.8650017        -2.74332001E-06
   32.9749985        -2.65912445E-06
   33.0849991        -2.53372764E-06
   33.1949997        -2.36537949E-06
   33.3050003        -2.15307409E-06
   33.4150009        -1.89658329E-06
   33.5250015        -1.59655451E-06
   33.6349983        -1.25461452E-06
   33.7449989        -8.73378383E-07
   33.8549995        -4.56402518E-07
   33.9650002        -8.18380741E-09
   34.0750008         4.65835114E-07
   34.1850014         9.59364002E-07
   34.2949982         1.46542186E-06
   34.4049988         1.97645159E-06
   34.5149994         2.48442461E-06
   34.6250000         2.98103146E-06
   34.7350006         3.45791887E-06
   34.8450012         3.90687228E-06
   34.9550018         4.31997205E-06
   35.0649986         4.68979715E-06
   35.1749992         5.00965552E-06
   35.2849998         5.27375096E-06
   35.3950005         5.47729996E-06
   35.5050011         5.61665320E-06
   35.6150017         5.68942914E-06
   35.7249985         5.69456824E-06
   35.8349991         5.63232607E-06
   35.9449997         5.50425784E-06
   36.0550003         5.31321029E-06
   36.1650009         5.06323340E-06
   36.2750015         4.75943534E-06
   36.3849983         4.40784515E-06
   36.4949989         4.01527586E-06
   36.6049995         3.58914258E-06
   36.7150002         3.13724695E-06
   36.8250008         2.66757957E-06
   36.9350014         2.18815239E-06
   37.0449982         1.70681665E-06
   37.1549988         1.23106543E-06
   37.2649994         7.67873644E-07
   37.3750000         3.23587358E-07
   37.4850006        -9.61794697E-08
   37.5950012        -4.86647423E-07
   37.7050018        -8.43932014E-07
   37.8149986        -1.16504896E-06
   37.9249992        -1.44790965E-06
   38.0349998        -1.69131727E-06
   38.1450005        -1.89492891E-06
   38.2550011        -2.05917058E-06
   38.3650017        -2.18515015E-06
   38.4749985        -2.27458918E-06
   38.5849991        -2.32973730E-06
   38.6949997        -2.35324774E-06
   38.8050003        -2.34806203E-06
   38.9150009        -2.31733566E-06
   39.0250015        -2.26436146E-06
   39.1349983        -2.19246022E-06
   39.2449989        -2.10488747E-06
   39.3549995        -2.00479440E-06
   39.4650002        -1.89518994E-06
   39.5750008        -1.77887409E-06
   39.6850014        -1.65838424E-06
   39.7949982        -1.53599569E-06
   39.9049988        -1.41373255E-06
   40.0149994        -1.29334069E-06
   40.1250000        -1.17626780E-06
   40.2350006        -1.06369544E-06
   40.3450012        -9.56571853E-07
   40.4550018        -8.55605151E-07
   40.5649986        -7.61266278E-07
   40.6749992        -6.73843772E-07
   40.7849998        -5.93482298E-07
   40.8950005        -5.20168726E-07
   41.0050011        -4.53735282E-07
   41.1150017        -3.93924836E-07
   41.2249985        -3.40437509E-07
   41.3349991        -2.92905838E-07
   41.4449997        -2.50884426E-07
   41.5550003        -2.13912784E-07
   41.6650009        -1.81563991E-07
   41.7750015        -1.53408777E-07
   41.8849983        -1.28984880E-07
   41.9949989        -1.07851250E-07
   42.1049995        -8.96414249E-08
   42.2150002        -7.40266017E-08
   42.3250008        -6.06663662E-08
   42.4350014        -4.92436030E-08
   42.5449982        -3.95157613E-08
   42.6549988        -3.12856372E-08
   42.7649994        -2.43481804E-08
   42.8750000        -1.85087874E-08
   42.9850006        -1.36277043E-08
   43.0950012        -9.60070068E-09
   43.2050018        -6.31230446E-09
   43.3149986        -3.64408037E-09
   43.4249992        -1.50965129E-09
   43.5349998         1.55141469E-10
   43.6450005         1.42359924E-09
   43.7550011         2.37102693E-09
   43.8650017         3.05090042E-09
   43.9749985         3.50375018E-09
   44.0849991         3.77630904E-09
   44.1949997         3.91135258E-09
   44.3050003         3.93325772E-09
   44.4150009         3.86058963E-09
   44.5250015         3.71686482E-09
   44.6349983         3.51472740E-09
   44.7449989         3.24798721E-09
   44.8549995         2.91314417E-09
   44.9650002         2.52068144E-09
   45.0750008         2.07468154E-09
   45.1850014         1.56344904E-09
   45.2949982         9.83295223E-10
   45.4049988         3.51261242E-10
   45.5149994        -3.16858706E-10
   45.6250000        -1.01897035E-09
   45.7350006        -1.74454839E-09
   45.8450012        -2.46094634E-09
   45.9550018        -3.13472404E-09
   46.0649986        -3.74758047E-09
   46.1749992        -4.27977387E-09
   46.2849998        -4.69798245E-09
   46.3950005        -4.97346253E-09
   46.5050011        -5.09569409E-09
   46.6150017        -5.05748554E-09
   46.7249985        -4.84493112E-09
   46.8349991        -4.45419523E-09
   46.9449997        -3.90146004E-09
   47.0550003        -3.20548654E-09
   47.1650009        -2.37771314E-09
   47.2750015        -1.43989365E-09
   47.3849983        -4.32075792E-10
   47.4949989         6.09631734E-10
   47.6049995         1.66508995E-09
   47.7150002         2.70877720E-09
   47.8250008         3.69846842E-09
   47.9350014         4.60101734E-09
   48.0449982         5.40861222E-09
   48.1549988         6.11238393E-09
   48.2649994         6.68259093E-09
   48.3750000         7.09651360E-09
   48.4850006         7.36369721E-09
   48.5950012         7.49790718E-09
   48.7050018         7.48492646E-09
   48.8149986         7.30724636E-09
   48.9249992         6.98040337E-09
   49.0349998         6.53041488E-09
   49.1450005         5.95184169E-09
   49.2550011         5.22619414E-09
   49.3650017         4.36894476E-09
   49.4749985         3.41737749E-09
   49.5849991         2.38078690E-09
   49.6949997         1.24647381E-09
   49.8050003         3.15355589E-11
   49.9150009        -1.21557309E-09
   50.0250015        -2.46534260E-09
   50.1349983        -3.71370046E-09
   50.2449989        -4.93263119E-09
   50.3549995        -6.05893957E-09
   50.4650002        -7.04330816E-09
   50.5750008        -7.86948551E-09
   50.6850014        -8.51215720E-09
   50.7949982        -8.91766572E-09
   50.9049988        -9.04599418E-09
   51.0149994        -8.89641871E-09
   51.1250000        -8.47263593E-09
   51.2350006        -7.75775622E-09
   51.3450012        -6.74787337E-09
   51.4550018        -5.48125234E-09
   51.5649986        -4.01040845E-09
   51.6749992        -2.37125386E-09
   51.7849998        -6.04184647E-10
   51.8950005         1.21809707E-09
   52.0050011         3.01166003E-09
   52.1150017         4.71482675E-09
   52.2249985         6.27833563E-09
   52.3349991         7.63900498E-09
   52.4449997         8.73065709E-09
   52.5550003         9.51453760E-09
   52.6650009         9.97843053E-09
   52.7750015         1.01130251E-08
   52.8849983         9.91084015E-09
   52.9949989         9.38663636E-09
   53.1049995         8.58059401E-09
   53.2150002         7.53989315E-09
   53.3250008         6.31086472E-09
   53.4350014         4.94988361E-09
   53.5449982         3.52683327E-09
   53.6549988         2.11012519E-09
   53.7649994         7.54548035E-10
   53.8750000        -4.93322383E-10
   53.9850006        -1.58705404E-09
   54.0950012        -2.48666066E-09
   54.2050018        -3.17075166E-09
   54.3149986        -3.63591490E-09
   54.4249992        -3.88464505E-09
   54.5349998        -3.92036004E-09
   54.6450005        -3.75602482E-09
   54.7550011        -3.42077389E-09
   54.8650017        -2.95123637E-09
   54.9749985        -2.37781839E-09
   55.0849991        -1.72426418E-09
   55.1949997        -1.01802988E-09
   55.3050003        -2.91782903E-10
   55.4150009         4.29077163E-10
   55.5250015         1.13403931E-09
   55.6349983         1.81775239E-09
   55.7449989         2.46868481E-09
   55.8549995         3.07526449E-09
   55.9650002         3.63851305E-09
   56.0750008         4.16645696E-09
   56.1850014         4.65545646E-09
   56.2949982         5.08883025E-09
   56.4049988         5.45615197E-09
   56.5149994         5.75953596E-09
   56.6250000         5.99365491E-09
   56.7350006         6.13376017E-09
   56.8450012         6.15485529E-09
   56.9550018         6.04993167E-09
   57.0649986         5.81539705E-09
   57.1749992         5.43177192E-09
   57.2849998         4.87824448E-09
   57.3950005         4.15769819E-09
   57.5050011         3.28838601E-09
   57.6150017         2.28014518E-09
   57.7249985         1.14146781E-09
   57.8349991        -9.64514996E-11
   57.9449997        -1.38671497E-09
   58.0550003        -2.69376832E-09
   58.1650009        -3.99074418E-09
   58.2750015        -5.23537258E-09
   58.3849983        -6.37510400E-09
   58.4949989        -7.37496908E-09
   58.6049995        -8.21675350E-09
   58.7150002        -8.87466101E-09
   58.8250008        -9.31952737E-09
   58.9350014        -9.54660262E-09
   59.0449982        -9.57312807E-09
   59.1549988        -9.40985778E-09
   59.2649994        -9.06194142E-09
   59.3750000        -8.55607762E-09
   59.4850006        -7.93705723E-09
   59.5950012        -7.23563831E-09
   59.7050018        -6.46668985E-09
   59.8149986        -5.65815084E-09
   59.9249992        -4.85105245E-09
   60.0349998        -4.06758982E-09
   60.1450005        -3.30753847E-09
   60.2550011        -2.57936583E-09
   60.3650017        -1.90599381E-09
   60.4749985        -1.29435673E-09
   60.5849991        -7.26640859E-10
   60.6949997        -1.89116903E-10
   60.8050003         3.14120702E-10
   60.9150009         7.82284515E-10
   61.0250015         1.22909716E-09
   61.1349983         1.66362879E-09
   61.2449989         2.07754769E-09
   61.3549995         2.45814991E-09
   61.4650002         2.79911427E-09
   61.5750008         3.09344128E-09
   61.6850014         3.32827010E-09
   61.7949982         3.49007712E-09
   61.9049988         3.56656149E-09
   62.0149994         3.54544016E-09
   62.1250000         3.42048390E-09
   62.2350006         3.19478999E-09
   62.3450012         2.87095214E-09
   62.4550018         2.44755727E-09
   62.5649986         1.93531724E-09
   62.6749992         1.36483025E-09
   62.7849998         7.66074426E-10
   62.8950005         1.53456164E-10
   63.0050011        -4.54556170E-10
   63.1150017        -1.01708475E-09
   63.2249985        -1.49308488E-09
   63.3349991        -1.87014848E-09
   63.4449997        -2.14958895E-09
   63.5550003        -2.31454123E-09
   63.6650009        -2.33983322E-09
   63.7750015        -2.22778351E-09
   63.8849983        -2.00591366E-09
   63.9949989        -1.68913927E-09
   64.1050034        -1.27235511E-09
   64.2149963        -7.66281483E-10
   64.3249969        -2.13296686E-10
   64.4349976         3.45937584E-10
   64.5449982         9.00176877E-10
   64.6549988         1.44584600E-09
   64.7649994         1.95679206E-09
   64.8750000         2.39881026E-09
   64.9850006         2.76388112E-09
   65.0950012         3.06578030E-09
   65.2050018         3.30522676E-09
   65.3150024         3.46345108E-09
   65.4250031         3.53327212E-09
   65.5350037         3.53388296E-09
   65.6449966         3.48503471E-09
   65.7549973         3.38401485E-09
   65.8649979         3.22070837E-09
   65.9749985         3.00181058E-09
   66.0849991         2.74458078E-09
   66.1949997         2.45382648E-09
   66.3050003         2.11973950E-09
   66.4150009         1.73658454E-09
   66.5250015         1.31202471E-09
   66.6350021         8.56255344E-10
   66.7450027         3.69154984E-10
   66.8550034        -1.57432081E-10
   66.9649963        -7.25084881E-10
   67.0749969        -1.31907785E-09
   67.1849976        -1.91727967E-09
   67.2949982        -2.50791432E-09
   67.4049988        -3.08918136E-09
   67.5149994        -3.64791641E-09
   67.6250000        -4.15247081E-09
   67.7350006        -4.57750060E-09
   67.8450012        -4.92228702E-09
   67.9550018        -5.18881338E-09
   68.0650024        -5.35538103E-09
   68.1750031        -5.39461054E-09
   68.2850037        -5.30841682E-09
   68.3949966        -5.11946396E-09
   68.5049973        -4.83339502E-09
   68.6149979        -4.43783099E-09
   68.7249985        -3.93879818E-09
   68.8349991        -3.36952177E-09
   68.9449997        -2.75709278E-09
   69.0550003        -2.10556239E-09
   69.1650009        -1.42132861E-09
   69.2750015        -7.33374250E-10
   69.3850021        -7.50446164E-11
   69.4950027         5.40158529E-10
   69.6050034         1.11341936E-09
   69.7149963         1.64100200E-09
   69.8249969         2.10952877E-09
   69.9349976         2.50667398E-09
   70.0449982         2.83060286E-09
   70.1549988         3.08764259E-09
   70.2649994         3.27957950E-09
   70.3750000         3.39644224E-09
   70.4850006         3.43035755E-09
   70.5950012         3.39395734E-09
   70.7050018         3.30941052E-09
   70.8150024         3.17860094E-09
   70.9250031         2.98504110E-09
   71.0350037         2.72943046E-09
   71.1449966         2.43680320E-09
   71.2549973         2.11767048E-09
   71.3649979         1.75138559E-09
   71.4749985         1.32680633E-09
   71.5849991         8.71532124E-10
   71.6949997         4.16449930E-10
   71.8050003        -4.24432746E-11
   71.9150009        -5.16767240E-10
   72.0250015        -9.83291337E-10
   72.1350021        -1.40458833E-09
   72.2450027        -1.77650927E-09
   72.3550034        -2.11779128E-09
   72.4649963        -2.42161025E-09
   72.5749969        -2.65490563E-09
   72.6849976        -2.80321499E-09
   72.7949982        -2.88063551E-09
   72.9049988        -2.89208346E-09
   73.0149994        -2.81817680E-09
   73.1250000        -2.64712408E-09
   73.2350006        -2.39636089E-09
   73.3450012        -2.09127027E-09
   73.4550018        -1.74139381E-09
   73.5650024        -1.34870071E-09
   73.6750031        -9.25053811E-10
   73.7850037        -4.89730811E-10
   73.8949966        -5.61090688E-11
   74.0049973         3.72330999E-10
   74.1149979         7.95165933E-10
   74.2249985         1.20523247E-09
   74.3349991         1.58444502E-09
   74.4449997         1.91359373E-09
   74.5550003         2.18796381E-09
   74.6650009         2.41453035E-09
   74.7750015         2.59122612E-09
   74.8850021         2.70381428E-09
   74.9950027         2.75056178E-09
   75.1050034         2.75156831E-09
   75.2149963         2.71944445E-09
   75.3249969         2.63847055E-09
   75.4349976         2.49136334E-09
   75.5449982         2.28894703E-09
   75.6549988         2.04903250E-09
   75.7649994         1.76202697E-09
   75.8750000         1.40883882E-09
   75.9850006         1.00331310E-09
   76.0950012         5.82997151E-10
   76.2050018         1.61431105E-10
   76.3150024        -2.75989981E-10
   76.4250031        -7.28232419E-10
   76.5350037        -1.16713028E-09
   76.6449966        -1.57706048E-09
   76.7549973        -1.97081151E-09
   76.8649979        -2.35115083E-09
   76.9749985        -2.68697975E-09
   77.0849991        -2.94660296E-09
   77.1949997        -3.12984394E-09
   77.3050003        -3.24728489E-09
   77.4150009        -3.28995431E-09
   77.5250015        -3.24345772E-09
   77.6350021        -3.11692916E-09
   77.7450027        -2.93429303E-09
   77.8550034        -2.70513856E-09
   77.9649963        -2.42370057E-09
   78.0749969        -2.09095852E-09
   78.1849976        -1.72067871E-09
   78.2949982        -1.32604649E-09
   78.4049988        -9.13533638E-10
   78.5149994        -4.89607632E-10
   78.6250000        -6.50231952E-11
   78.7350006         3.47414902E-10
   78.8450012         7.35971784E-10
   78.9550018         1.09382514E-09
   79.0650024         1.42139911E-09
   79.1750031         1.72074932E-09
   79.2850037         1.98856265E-09
   79.3949966         2.22094743E-09
   79.5049973         2.42187048E-09
   79.6149979         2.59644506E-09