  -10.00000        1.0000000E-24
  -9.950000        1.0000000E-24
  -9.900000        1.0000000E-24
  -9.850000        1.0000000E-24
  -9.800000        1.0000000E-24
  -9.750000        1.0000000E-24
  -9.700000        1.0000000E-24
  -9.650000        1.0000001E-24
  -9.600000        1.0000001E-24
  -9.550000        1.0000001E-24
  -9.500000        1.0000001E-24
  -9.450000        1.0000001E-24
  -9.400000        1.0000002E-24
  -9.350000        1.0000002E-24
  -9.300000        1.0000002E-24
  -9.250000        1.0000002E-24
  -9.200000        1.0000001E-24
  -9.150000        1.0000000E-24
  -9.100000        1.0000000E-24
  -9.050000        1.0000000E-24
  -9.000000        1.0000001E-24
  -8.950000        1.0000002E-24
  -8.900000        1.0000002E-24
  -8.850000        1.0000002E-24
  -8.800000        1.0000002E-24
  -8.750000        1.0000002E-24
  -8.700000        1.0000002E-24
  -8.650000        1.0000002E-24
  -8.600000        1.0000002E-24
  -8.550000        1.0000002E-24
  -8.500000        1.0000002E-24
  -8.450000        1.0000002E-24
  -8.400000        1.0000002E-24
  -8.350000        1.0000002E-24
  -8.300000        1.0000002E-24
  -8.250000        1.0000002E-24
  -8.200000        1.0000001E-24
  -8.150000        1.0000000E-24
  -8.100000        1.0000000E-24
  -8.050000        1.0000000E-24
  -8.000000        1.0000000E-24
  -7.950000        1.0000000E-24
  -7.900000        9.9999992E-25
  -7.850000        9.9999982E-25
  -7.800000        9.9999972E-25
  -7.750000        9.9999963E-25
  -7.700000        9.9999963E-25
  -7.650000        9.9999972E-25
  -7.600000        9.9999992E-25
  -7.550000        1.0000002E-24
  -7.500000        1.0000005E-24
  -7.450000        1.0000007E-24
  -7.400000        1.0000007E-24
  -7.350000        1.0000004E-24
  -7.300000        1.0000000E-24
  -7.250000        9.9999982E-25
  -7.200000        1.0000002E-24
  -7.150000        1.0000016E-24
  -7.100000        1.0000041E-24
  -7.050000        1.0000065E-24
  -7.000000        1.0000060E-24
  -6.950000        9.9999716E-25
  -6.900000        9.9997310E-25
  -6.850000        9.9993021E-25
  -6.800000        9.9987765E-25
  -6.750000        9.9985053E-25
  -6.700000        9.9992103E-25
  -6.650000        1.0001924E-24
  -6.600000        1.0007545E-24
  -6.550000        1.0015791E-24
  -6.500000        1.0023581E-24
  -6.450000        1.0023384E-24
  -6.400000        1.0002951E-24
  -6.350000        9.9486444E-25
  -6.300000        9.8547295E-25
  -6.250000        9.7392767E-25
  -6.200000        9.6628933E-25
  -6.150000        9.7391890E-25
  -6.100000        1.0117985E-24
  -6.050000        1.0919170E-24
  -6.000000        1.2105065E-24
  -5.950000        1.3310318E-24
  -5.900000        1.3702480E-24
  -5.850000        1.2010121E-24
  -5.800000        6.8932806E-25
  -5.750000       -2.2128091E-25
  -5.700000       -1.3833994E-24
  -5.650000       -2.3173471E-24
  -5.600000       -2.1649830E-24
  -5.550000        1.5673739E-25
  -5.500000        5.4957652E-24
  -5.450000        1.3684184E-23
  -5.400000        2.2615547E-23
  -5.350000        2.7625057E-23
  -5.300000        2.1853257E-23
  -5.250000       -1.6989855E-24
  -5.200000       -4.6108099E-23
  -5.150000       -1.0508683E-22
  -5.100000       -1.5819801E-22
  -5.050000       -1.7015836E-22
  -5.000000       -9.8205673E-23
  -4.950000        8.9887494E-23
  -4.900000        3.8867391E-22
  -4.850000        7.2689324E-22
  -4.800000        9.5368674E-22
  -4.750000        8.5857965E-22
  -4.700000        2.4063312E-22
  -4.650000       -9.7392096E-22
  -4.600000       -2.5944140E-21
  -4.550000       -4.0708595E-21
  -4.500000       -4.5262596E-21
  -4.450000       -2.9923875E-21
  -4.400000        1.1328745E-21
  -4.350000        7.4997267E-21
  -4.300000        1.4324589E-20
  -4.250000        1.8353160E-20
  -4.200000        1.5603365E-20
  -4.150000        3.0243791E-21
  -4.100000       -1.9207704E-20
  -4.050000       -4.5587584E-20
  -4.000000       -6.4671578E-20
  -3.950000       -6.1330137E-20
  -3.900000       -2.2582599E-20
  -3.850000        5.3762210E-20
  -3.800000        1.5052798E-19
  -3.750000        2.2745533E-19
  -3.700000        2.2773869E-19
  -3.650000        9.8221080E-20
  -3.600000       -1.7854818E-19
  -3.550000       -5.4991122E-19
  -3.500000       -8.7359134E-19
  -3.450000       -9.3382549E-19
  -3.400000       -5.0853668E-19
  -3.350000        5.1423244E-19
  -3.300000        1.9999213E-18
  -3.250000        3.4703506E-18
  -3.200000        4.1233312E-18
  -3.150000        3.0356834E-18
  -3.100000       -4.3594817E-19
  -3.050000       -6.1351051E-18
  -3.000000       -1.2656181E-17
  -2.950000       -1.7239490E-17
  -2.900000       -1.6281702E-17
  -2.850000       -6.5918147E-18
  -2.800000        1.2768589E-17
  -2.750000        3.8609046E-17
  -2.700000        6.2594001E-17
  -2.650000        7.2097790E-17
  -2.600000        5.3632803E-17
  -2.550000       -1.2739309E-18
  -2.500000       -8.9121141E-17
  -2.450000       -1.8904976E-16
  -2.400000       -2.6245567E-16
  -2.350000       -2.6059366E-16
  -2.300000       -1.4110961E-16
  -2.250000        1.0917451E-16
  -2.200000        4.5221723E-16
  -2.150000        7.8785488E-16
  -2.100000        9.6488943E-16
  -2.050000        8.2077588E-16
  -2.000000        2.4711133E-16
  -1.950000       -7.3481776E-16
  -1.900000       -1.9166102E-15
  -1.850000       -2.8977503E-15
  -1.800000       -3.1613131E-15
  -1.750000       -2.2372580E-15
  -1.700000        7.4550334E-17
  -1.650000        3.4886564E-15
  -1.600000        7.1213855E-15
  -1.550000        9.5777471E-15
  -1.500000        9.2939936E-15
  -1.450000        5.1091570E-15
  -1.400000       -3.0700845E-15
  -1.350000       -1.3747126E-14
  -1.300000       -2.3736772E-14
  -1.250000       -2.8717961E-14
  -1.200000       -2.4493886E-14
  -1.150000       -8.7465181E-15
  -1.100000        1.7222236E-14
  -1.050000        4.7479212E-14
  -1.000000        7.1895025E-14
 -0.9500000        7.8447577E-14
 -0.9000000        5.7228880E-14
 -0.8500000        5.2327425E-15
 -0.8000000       -6.9683734E-14
 -0.7500000       -1.4757649E-13
 -0.7000000       -1.9949176E-13
 -0.6500000       -1.9529464E-13
 -0.6000000       -1.1497820E-13
 -0.5500000        3.9684280E-14
 -0.5000000        2.3760017E-13
 -0.4500000        4.1942619E-13
 -0.4000000        5.1001158E-13
 -0.3500000        4.4152879E-13
 -0.3000000        1.8217337E-13
 -0.2500000       -2.3869787E-13
 -0.2000000       -7.1997931E-13
 -0.1500000       -1.1019928E-12
 -0.1000000       -1.2066592E-12
 -5.0000001E-02   -8.9859641E-13
  0.0000000E+00   -1.5094984E-13
  5.0000001E-02    9.0754308E-13
  0.1000000        1.9884639E-12
  0.1500000        2.6984682E-12
  0.2000000        2.6516025E-12
  0.2500000        1.6156555E-12
  0.3000000       -3.5145194E-13
  0.3500000       -2.8295619E-12
  0.4000000       -5.0758391E-12
  0.4500000       -6.1964149E-12
  0.5000000       -5.4275369E-12
  0.5500000       -2.4559163E-12
  0.6000000        2.3280017E-12
  0.6500000        7.7573807E-12
  0.7000000        1.2077754E-11
  0.7500000        1.3405781E-11
  0.8000000        1.0370134E-11
  0.8500000        2.7546854E-12
  0.9000000       -8.0881855E-12
  0.9500000       -1.9268738E-11
   1.000000       -2.6949470E-11
   1.050000       -2.7437570E-11
   1.100000       -1.8528817E-11
   1.150000       -6.9348173E-13
   1.200000        2.2358573E-11
   1.250000        4.4098350E-11
   1.300000        5.6695162E-11
   1.350000        5.3384647E-11
   1.400000        3.1079413E-11
   1.450000       -7.6235303E-12
   1.500000       -5.3884373E-11
   1.550000       -9.4061661E-11
   1.600000       -1.1314585E-10
   1.650000       -9.9490978E-11
   1.700000       -4.9542207E-11
   1.750000        2.9043174E-11
   1.800000        1.1730403E-10
   1.850000        1.8863155E-10
   1.900000        2.1579057E-10
   1.950000        1.7971305E-10
   2.000000        7.7540550E-11
   2.050000       -7.2890645E-11
   2.100000       -2.3433436E-10
   2.150000       -3.5796069E-10
   2.200000       -3.9651540E-10
   2.250000       -3.1964104E-10
   2.300000       -1.2688406E-10
   2.350000        1.4618565E-10
   2.400000        4.3196682E-10
   2.450000        6.4553973E-10
   2.500000        7.0745498E-10
   2.550000        5.6898719E-10
   2.600000        2.3254126E-10
   2.650000       -2.3980812E-10
   2.700000       -7.3418110E-10
   2.750000       -1.1094671E-09
   2.800000       -1.2339866E-09
   2.850000       -1.0253763E-09
   2.900000       -4.8262777E-10
   2.950000        3.0007546E-10
   3.000000        1.1443020E-09
   3.050000        1.8235966E-09
   3.100000        2.1185507E-09
   3.150000        1.8783255E-09
   3.200000        1.0729472E-09
   3.250000       -1.7882429E-10
   3.300000       -1.6168019E-09
   3.350000       -2.8849714E-09
   3.400000       -3.6092807E-09
   3.450000       -3.4927412E-09
   3.500000       -2.4066795E-09
   3.550000       -4.5479753E-10
   3.600000        2.0104374E-09
   3.650000        4.4316391E-09
   3.700000        6.1510552E-09
   3.750000        6.5618329E-09
   3.800000        5.2777889E-09
   3.850000        2.2826885E-09
   3.900000       -1.9839386E-09
   3.950000       -6.6417281E-09
   4.000000       -1.0505645E-08
   4.050000       -1.2336994E-08
   4.100000       -1.1170036E-08
   4.150000       -6.6435408E-09
   4.200000        7.5403817E-10
   4.250000        9.6173043E-09
   4.300000        1.7799765E-08
   4.350000        2.2844750E-08
   4.400000        2.2611655E-08
   4.450000        1.5964201E-08
   4.500000        3.3341845E-09
   4.550000       -1.3036344E-08
   4.600000       -2.9324733E-08
   4.650000       -4.0874568E-08
   4.700000       -4.3359943E-08
   4.750000       -3.4117480E-08
   4.800000       -1.3287121E-08
   4.850000        1.5621790E-08
   4.900000        4.6034923E-08
   4.950000        6.9585610E-08
   5.000000        7.8181813E-08
   5.050000        6.6416874E-08
   5.100000        3.3676741E-08
   5.150000       -1.4743762E-08
   5.200000       -6.8041416E-08
   5.250000       -1.1199504E-07
   5.300000       -1.3244613E-07
   5.350000       -1.1939927E-07
   5.400000       -7.0646834E-08
   5.450000        6.2310903E-09
   5.500000        9.4359542E-08
   5.550000        1.7083374E-07
   5.600000        2.1226586E-07
   5.650000        2.0137287E-07
   5.700000        1.3286321E-07
   5.750000        1.6812514E-08
   5.800000       -1.2182585E-07
   5.850000       -2.4801173E-07
   5.900000       -3.2496854E-07
   5.950000       -3.2422327E-07
   6.000000       -2.3472407E-07
   6.050000       -6.8334558E-08
   6.100000        1.4032220E-07
   6.150000        3.4035926E-07
   6.200000        4.7645324E-07
   6.250000        5.0338087E-07
   6.300000        3.9957746E-07
   6.350000        1.7587820E-07
   6.400000       -1.2349744E-07
   6.450000       -4.2884983E-07
   6.500000       -6.6062046E-07
   6.550000       -7.4934798E-07
   6.600000       -6.5507442E-07
   6.650000       -3.8099529E-07
   6.700000        2.2808052E-08
   6.750000        4.6747280E-07
   6.800000        8.4428109E-07
   6.850000        1.0504906E-06
   6.900000        1.0160451E-06
   6.950000        7.2443282E-07
   7.000000        2.2192012E-07
   7.050000       -3.8812374E-07
   7.100000       -9.6561189E-07
   7.150000       -1.3649778E-06
   7.200000       -1.4704622E-06
   7.250000       -1.2271648E-06
   7.300000       -6.6000416E-07
   7.350000        1.2495360E-07
   7.400000        9.5855285E-07
   7.450000        1.6433178E-06
   7.500000        1.9981414E-06
   7.550000        1.9032516E-06
   7.600000        1.3349425E-06
   7.650000        3.8100052E-07
   7.700000       -7.6864717E-07
   7.750000       -1.8563835E-06
   7.800000       -2.6110492E-06
   7.850000       -2.8112868E-06
   7.900000       -2.3442894E-06
   7.950000       -1.2456052E-06
   8.000000        2.9168893E-07
   8.050000        1.9444401E-06
   8.100000        3.3216252E-06
   8.150000        4.0509126E-06
   8.200000        3.8718986E-06
   8.250000        2.7142339E-06
   8.300000        7.3944307E-07
   8.350000       -1.6688691E-06
   8.400000       -3.9711322E-06
   8.450000       -5.5855517E-06
   8.500000       -6.0275297E-06
   8.550000       -5.0431345E-06
   8.600000       -2.7019917E-06
   8.650000        5.7955003E-07
   8.700000        4.1002218E-06
   8.750000        7.0159726E-06
   8.800000        8.5362863E-06
   8.850000        8.1308763E-06
   8.900000        5.6944991E-06
   8.950000        1.6218628E-06
   9.000000       -3.2377502E-06
   9.050000       -7.7485447E-06
   9.100000       -1.0749156E-05
   9.150000       -1.1348519E-05
   9.200000       -9.1827133E-06
   9.250000       -4.5608472E-06
   9.300000        1.5502851E-06
   9.350000        7.7154291E-06
   9.400000        1.2361442E-05
   9.450000        1.4175480E-05
   9.500000        1.2471537E-05
   9.550000        7.4248023E-06
   9.600000        9.9159024E-08
   9.650000       -7.7582790E-06
   9.700000       -1.4121446E-05
   9.750000       -1.7197788E-05
   9.800000       -1.5921247E-05
   9.850000       -1.0292504E-05
   9.900000       -1.4631496E-06
   9.950000        8.4791182E-06
   10.00000        1.6990289E-05
   10.05000        2.1707172E-05
   10.10000        2.1083999E-05
   10.15000        1.4859235E-05
   10.20000        4.2167594E-06
   10.25000       -8.4222320E-06
   10.30000       -1.9946168E-05
   10.35000       -2.7316450E-05
   10.40000       -2.8359813E-05
   10.45000       -2.2383483E-05
   10.50000       -1.0441829E-05
   10.55000        4.8344173E-06
   10.60000        1.9825116E-05
   10.65000        3.0792537E-05
   10.70000        3.4825982E-05
   10.75000        3.0618656E-05
   10.80000        1.8869207E-05
   10.85000        2.1891974E-06
   10.90000       -1.5479454E-05
   10.95000       -2.9806815E-05
   11.00000       -3.7150054E-05
   11.05000       -3.5493016E-05
   11.10000       -2.5008074E-05
   11.15000       -8.0866521E-06
   11.20000        1.1185577E-05
   11.25000        2.7994172E-05
   11.30000        3.7974605E-05
   11.35000        3.8318300E-05
   11.40000        2.8531369E-05
   11.45000        1.0649957E-05
   11.50000       -1.1156339E-05
   11.55000       -3.1515799E-05
   11.60000       -4.5114059E-05
   11.65000       -4.7992646E-05
   11.70000       -3.8581406E-05
   11.75000       -1.8213206E-05
   11.80000        9.0186313E-06
   11.85000        3.7054877E-05
   11.90000        5.9164737E-05
   11.95000        6.9471113E-05
   12.00000        6.4375956E-05
   12.05000        4.3561813E-05
   12.10000        1.0321426E-05
   12.15000       -2.8901406E-05
   12.20000       -6.5713532E-05
   12.25000       -9.1507551E-05
   12.30000       -9.9390112E-05
   12.35000       -8.5893800E-05
   12.40000       -5.2073734E-05
   12.45000       -3.6874189E-06
   12.50000        4.9671264E-05
   12.55000        9.6393589E-05
   12.60000        1.2531802E-04
   12.65000        1.2833712E-04
   12.70000        1.0256414E-04
   12.75000        5.1508257E-05
   12.80000       -1.5124635E-05
   12.85000       -8.3109386E-05
   12.90000       -1.3662077E-04
   12.95000       -1.6183229E-04
   13.00000       -1.5040283E-04
   13.05000       -1.0199615E-04
   13.10000       -2.5118119E-05
   13.15000        6.4108244E-05
   13.20000        1.4514162E-04
   13.25000        1.9760706E-04
   13.30000        2.0627191E-04
   13.35000        1.6521962E-04
   13.40000        8.0110949E-05
   13.45000       -3.2204516E-05
   13.50000       -1.4686587E-04
   13.55000       -2.3641765E-04
   13.60000       -2.7730389E-04
   13.65000       -2.5590864E-04
   13.70000       -1.7260338E-04
   13.75000       -4.2645363E-05
   13.80000        1.0652011E-04
   13.85000        2.4112580E-04
   13.90000        3.2886167E-04
   13.95000        3.4675069E-04
   14.00000        2.8717189E-04
   14.05000        1.6043789E-04
   14.10000       -6.8828667E-06
   14.15000       -1.7767939E-04
   14.20000       -3.1280331E-04
   14.25000       -3.8037030E-04
   14.30000       -3.6358702E-04
   14.35000       -2.6512551E-04
   14.40000       -1.0687210E-04
   14.45000        7.4994357E-05
   14.50000        2.3847229E-04
   14.55000        3.4572330E-04
   14.60000        3.7213304E-04
   14.65000        3.1220855E-04
   14.70000        1.8084818E-04
   14.75000        9.6691365E-06
   14.80000       -1.6068837E-04
   14.85000       -2.9036263E-04
   14.90000       -3.4975068E-04
   14.95000       -3.2635045E-04
   15.00000       -2.2734163E-04
   15.05000       -7.7374105E-05
   15.10000        8.7764929E-05
   15.15000        2.2993318E-04
   15.20000        3.1764427E-04
   15.25000        3.3311677E-04
   15.30000        2.7575064E-04
   15.35000        1.6137716E-04
   15.40000        1.7701197E-05
   15.45000       -1.2273972E-04
   15.50000       -2.3025736E-04
   15.55000       -2.8447076E-04
   15.60000       -2.7811824E-04
   15.65000       -2.1755989E-04
   15.70000       -1.2016123E-04
   15.75000       -9.4705028E-06
   15.80000        9.0475834E-05
   15.85000        1.6033763E-04
   15.90000        1.8905514E-04
   15.95000        1.7525307E-04
   16.00000        1.2645454E-04
   16.05000        5.6570854E-05
   16.10000       -1.7583516E-05
   16.15000       -7.9938349E-05
   16.20000       -1.1828523E-04
   16.25000       -1.2639601E-04
   16.30000       -1.0491461E-04
   16.35000       -6.0995662E-05
   16.40000       -6.8065383E-06
   16.45000        4.2888387E-05
   16.50000        7.3745061E-05
   16.55000        7.5028365E-05
   16.60000        4.2421168E-05
   16.65000       -2.0175874E-05
   16.70000       -1.0044978E-04
   16.75000       -1.7947456E-04
   16.80000       -2.3549714E-04
   16.85000       -2.4917332E-04
   16.90000       -2.0918307E-04
   16.95000       -1.1678823E-04
   17.00000        1.2138073E-05
   17.05000        1.4868345E-04
   17.10000        2.5633877E-04
   17.15000        2.9952585E-04
   17.20000        2.5339366E-04
   17.25000        1.1237393E-04
   17.30000       -1.0509588E-04
   17.35000       -3.5761981E-04
   17.40000       -5.8827945E-04
   17.45000       -7.3737983E-04
   17.50000       -7.5778749E-04
   17.55000       -6.2904903E-04
   17.60000       -3.6630908E-04
   17.65000       -2.0973850E-05
   17.70000        3.2804802E-04
   17.75000        5.9127301E-04
   17.80000        6.9014420E-04
   17.85000        5.7791919E-04
   17.90000        2.5442257E-04
   17.95000       -2.2972838E-04
   18.00000       -7.8140432E-04
   18.05000       -1.2845956E-03
   18.10000       -1.6271831E-03
   18.15000       -1.7284895E-03
   18.20000       -1.5606562E-03
   18.25000       -1.1581004E-03
   18.30000       -6.1209075E-04
   18.35000       -5.1172276E-05
   18.40000        3.8817315E-04
   18.45000        5.9360347E-04
   18.50000        5.0381187E-04
   18.55000        1.2346619E-04
   18.60000       -4.7765335E-04
   18.65000       -1.1812029E-03
   18.70000       -1.8484228E-03
   18.75000       -2.3528768E-03
   18.80000       -2.6096730E-03
   18.85000       -2.5940568E-03
   18.90000       -2.3450940E-03
   18.95000       -1.9540377E-03
   19.00000       -1.5408444E-03
   19.05000       -1.2251573E-03
   19.10000       -1.0991638E-03
   19.15000       -1.2088494E-03
   19.20000       -1.5476276E-03
   19.25000       -2.0628870E-03
   19.30000       -2.6726592E-03
   19.35000       -3.2872621E-03
   19.40000       -3.8299994E-03
   19.45000       -4.2519085E-03
   19.50000       -4.5377235E-03
   19.55000       -4.7029592E-03
   19.60000       -4.7844639E-03
   19.65000       -4.8282258E-03
   19.70000       -4.8783598E-03
   19.75000       -4.9700746E-03
   19.80000       -5.1275743E-03
   19.85000       -5.3659361E-03
   19.90000       -5.6946920E-03
   19.95000       -6.1205630E-03
   20.00000       -6.6475580E-03
   20.05000       -7.2741602E-03
   20.10000       -7.9889344E-03
   20.15000       -8.7669892E-03
   20.20000       -9.5698787E-03
   20.25000       -1.0350527E-02
   20.30000       -1.1063034E-02
   20.35000       -1.1675186E-02
   20.40000       -1.2180066E-02
   20.45000       -1.2602728E-02
   20.50000       -1.2998870E-02
   20.55000       -1.3444602E-02
   20.60000       -1.4019063E-02
   20.65000       -1.4784131E-02
   20.70000       -1.5766816E-02
   20.75000       -1.6949704E-02
   20.80000       -1.8272901E-02
   20.85000       -1.9647829E-02
   20.90000       -2.0979756E-02
   20.95000       -2.2193188E-02
   21.00000       -2.3253087E-02
   21.05000       -2.4175696E-02
   21.10000       -2.5025446E-02
   21.15000       -2.5898362E-02
   21.20000       -2.6896251E-02
   21.25000       -2.8098838E-02
   21.30000       -2.9541779E-02
   21.35000       -3.1207029E-02
   21.40000       -3.3028543E-02
   21.45000       -3.4911882E-02
   21.50000       -3.6762141E-02
   21.55000       -3.8512029E-02
   21.60000       -4.0141765E-02
   21.65000       -4.1684702E-02
   21.70000       -4.3216806E-02
   21.75000       -4.4832934E-02
   21.80000       -4.6616897E-02
   21.85000       -4.8614353E-02
   21.90000       -5.0816882E-02
   21.95000       -5.3162426E-02
   22.00000       -5.5552356E-02
   22.05000       -5.7880431E-02
   22.10000       -6.0065098E-02
   22.15000       -6.2075429E-02
   22.20000       -6.3942611E-02
   22.25000       -6.5753102E-02
   22.30000       -6.7624979E-02
   22.35000       -6.9674090E-02
   22.40000       -7.1979813E-02
   22.45000       -7.4560523E-02
   22.50000       -7.7366002E-02
   22.55000       -8.0289401E-02
   22.60000       -8.3195277E-02
   22.65000       -8.5955754E-02
   22.70000       -8.8484183E-02
   22.75000       -9.0756759E-02
   22.80000       -9.2815883E-02
   22.85000       -9.4754674E-02
   22.90000       -9.6687451E-02
   22.95000       -9.8715238E-02
   23.00000       -0.1008965    
   23.05000       -0.1032318    
   23.10000       -0.1056657    
   23.15000       -0.1081065    
   23.20000       -0.1104545    
   23.25000       -0.1126321    
   23.30000       -0.1146047    
   23.35000       -0.1163870    
   23.40000       -0.1180323    
   23.45000       -0.1196089    
   23.50000       -0.1211715    
   23.55000       -0.1227370    
   23.60000       -0.1242729    
   23.65000       -0.1257025    
   23.70000       -0.1269249    
   23.75000       -0.1278449    
   23.80000       -0.1284022    
   23.85000       -0.1285922    
   23.90000       -0.1284685    
   23.95000       -0.1281293    
   24.00000       -0.1276873    
   24.05000       -0.1272347    
   24.10000       -0.1268118    
   24.15000       -0.1263893    
   24.20000       -0.1258700    
   24.25000       -0.1251102    
   24.30000       -0.1239548    
   24.35000       -0.1222762    
   24.40000       -0.1200063    
   24.45000       -0.1171519    
   24.50000       -0.1137894    
   24.55000       -0.1100402    
   24.60000       -0.1060335    
   24.65000       -0.1018685    
   24.70000       -9.7585440E-02
   24.75000       -9.3154706E-02
   24.80000       -8.8486657E-02
   24.85000       -8.3458617E-02
   24.90000       -7.7950560E-02
   24.95000       -7.1878761E-02
   25.00000       -6.5216795E-02
   25.05000       -5.7997782E-02
   25.10000       -5.0297495E-02
   25.15000       -4.2203881E-02
   25.20000       -3.3783171E-02
   25.25000       -2.5053050E-02
   25.30000       -1.5972132E-02
   25.35000       -6.4493343E-03
   25.40000        3.6295466E-03
   25.45000        1.4366399E-02
   25.50000        2.5817165E-02
   25.55000        3.7971336E-02
   25.60000        5.0751038E-02
   25.65000        6.4031124E-02
   25.70000        7.7674143E-02
   25.75000        9.1570102E-02
   25.80000        0.1056693    
   25.85000        0.1199980    
   25.90000        0.1346529    
   25.95000        0.1497744    
   26.00000        0.1655088    
   26.05000        0.1819683    
   26.10000        0.1992019    
   26.15000        0.2171842    
   26.20000        0.2358253    
   26.25000        0.2549984    
   26.30000        0.2745749    
   26.35000        0.2944577    
   26.40000        0.3146023    
   26.45000        0.3350206    
   26.50000        0.3557678    
   26.55000        0.3769175    
   26.60000        0.3985339    
   26.65000        0.4206502    
   26.70000        0.4432603    
   26.75000        0.4663245    
   26.80000        0.4897883    
   26.85000        0.5136048    
   26.90000        0.5377538    
   26.95000        0.5622506    
   27.00000        0.5871392    
   27.05000        0.6124741    
   27.10000        0.6382940    
   27.15000        0.6645980    
   27.20000        0.6913321    
   27.25000        0.7183909    
   27.30000        0.7456375    
   27.35000        0.7729343    
   27.40000        0.8001787    
   27.45000        0.8273326    
   27.50000        0.8544356    
   27.55000        0.8816000    
   27.60000        0.9089835    
   27.65000        0.9367499    
   27.70000        0.9650249    
   27.75000        0.9938604    
   27.80000         1.023216    
   27.85000         1.052965    
   27.90000         1.082917    
   27.95000         1.112865    
   28.00000         1.142627    
   28.05000         1.172088    
   28.10000         1.201219    
   28.15000         1.230079    
   28.20000         1.258792    
   28.25000         1.287510    
   28.30000         1.316376    
   28.35000         1.345485    
   28.40000         1.374871    
   28.45000         1.404503    
   28.50000         1.434303    
   28.55000         1.464172    
   28.60000         1.494015    
   28.65000         1.523762    
   28.70000         1.553373    
   28.75000         1.582832    
   28.80000         1.612135    
   28.85000         1.641274    
   28.90000         1.670230    
   28.95000         1.698971    
   29.00000         1.727466    
   29.05000         1.755702    
   29.10000         1.783702    
   29.15000         1.811526    
   29.20000         1.839272    
   29.25000         1.867055    
   29.30000         1.894972    
   29.35000         1.923082    
   29.40000         1.951374    
   29.45000         1.979770    
   29.50000         2.008131    
   29.55000         2.036290    
   29.60000         2.064087    
   29.65000         2.091409    
   29.70000         2.118211    
   29.75000         2.144529    
   29.80000         2.170464    
   29.85000         2.196163    
   29.90000         2.221781    
   29.95000         2.247447    
   30.00000         2.273247    
   30.05000         2.299205    
   30.10000         2.325295    
   30.15000         2.351451    
   30.20000         2.377588    
   30.25000         2.403621    
   30.30000         2.429480    
   30.35000         2.455117    
   30.40000         2.480504    
   30.45000         2.505636    
   30.50000         2.530516    
   30.55000         2.555162    
   30.60000         2.579596    
   30.65000         2.603850    
   30.70000         2.627966    
   30.75000         2.651996    
   30.80000         2.675999    
   30.85000         2.700033    
   30.90000         2.724148    
   30.95000         2.748374    
   31.00000         2.772714    
   31.05000         2.797138    
   31.10000         2.821587    
   31.15000         2.845981    
   31.20000         2.870234    
   31.25000         2.894274    
   31.30000         2.918060    
   31.35000         2.941593    
   31.40000         2.964918    
   31.45000         2.988122    
   31.50000         3.011308    
   31.55000         3.034583    
   31.60000         3.058026    
   31.65000         3.081673    
   31.70000         3.105513    
   31.75000         3.129490    
   31.80000         3.153523    
   31.85000         3.177531    
   31.90000         3.201450    
   31.95000         3.225256    
   32.00000         3.248968    
   32.05000         3.272633    
   32.10000         3.296317    
   32.15000         3.320077    
   32.20000         3.343944    
   32.25000         3.367919    
   32.30000         3.391974    
   32.35000         3.416070    
   32.40000         3.440171    
   32.45000         3.464262    
   32.50000         3.488358    
   32.55000         3.512494    
   32.60000         3.536719    
   32.65000         3.561075    
   32.70000         3.585582    
   32.75000         3.610234    
   32.80000         3.635005    
   32.85000         3.659860    
   32.90000         3.684778    
   32.95000         3.709760    
   33.00000         3.734836    
   33.05000         3.760054    
   33.10000         3.785465    
   33.15000         3.811100    
   33.20000         3.836957    
   33.25000         3.862990    
   33.30000         3.889127    
   33.35000         3.915285    
   33.40000         3.941406    
   33.45000         3.967471    
   33.50000         3.993519    
   33.55000         4.019640    
   33.60000         4.045952    
   33.65000         4.072573    
   33.70000         4.099592    
   33.75000         4.127042    
   33.80000         4.154898    
   33.85000         4.183082    
   33.90000         4.211485    
   33.95000         4.239998    
   34.00000         4.268537    
   34.05000         4.297060    
   34.10000         4.325579    
   34.15000         4.354148    
   34.20000         4.382860    
   34.25000         4.411818    
   34.30000         4.441123    
   34.35000         4.470855    
   34.40000         4.501059    
   34.45000         4.531744    
   34.50000         4.562880    
   34.55000         4.594409    
   34.60000         4.626253    
   34.65000         4.658337    
   34.70000         4.690598    
   34.75000         4.723005    
   34.80000         4.755565    
   34.85000         4.788319    
   34.90000         4.821333    
   34.95000         4.854688    
   35.00000         4.888452    
   35.05000         4.922673    
   35.10000         4.957373    
   35.15000         4.992546    
   35.20000         5.028172    
   35.25000         5.064231    
   35.30000         5.100708    
   35.35000         5.137601    
   35.40000         5.174921    