           693.803239999999960             0.000000000000000
           693.903239999999983             0.000000000000000
           694.003240000000005             0.000000000000000
           694.103239999999914             0.000000000000000
           694.203239999999937             0.000000000000000
           694.303239999999960             0.000000000000000
           694.403239999999983            -0.000000000000000
           694.503240000000005            -0.000000000000001
           694.603239999999914            -0.000000000000001
           694.703239999999937            -0.000000000000002
           694.803239999999960            -0.000000000000003
           694.903239999999983            -0.000000000000004
           695.003240000000005            -0.000000000000004
           695.103239999999914            -0.000000000000005
           695.203239999999937            -0.000000000000005
           695.303239999999960            -0.000000000000003
           695.403239999999983            -0.000000000000001
           695.503240000000005             0.000000000000001
           695.603239999999914             0.000000000000004
           695.703239999999937             0.000000000000007
           695.803239999999960             0.000000000000009
           695.903239999999983             0.000000000000011
           696.003240000000005             0.000000000000012
           696.103239999999914             0.000000000000011
           696.203239999999937             0.000000000000009
           696.303239999999960             0.000000000000006
           696.403239999999983             0.000000000000002
           696.503240000000005            -0.000000000000001
           696.603239999999914            -0.000000000000004
           696.703239999999937            -0.000000000000007
           696.803239999999960            -0.000000000000007
           696.903239999999983            -0.000000000000005
           697.003240000000005            -0.000000000000001
           697.103239999999914             0.000000000000006
           697.203239999999937             0.000000000000014
           697.303239999999960             0.000000000000024
           697.403239999999983             0.000000000000036
           697.503240000000005             0.000000000000047
           697.603239999999914             0.000000000000058
           697.703239999999937             0.000000000000067
           697.803239999999960             0.000000000000072
           697.903239999999983             0.000000000000073
           698.003240000000005             0.000000000000069
           698.103239999999914             0.000000000000058
           698.203239999999937             0.000000000000040
           698.303239999999960             0.000000000000014
           698.403239999999983            -0.000000000000018
           698.503240000000005            -0.000000000000057
           698.603239999999914            -0.000000000000100
           698.703239999999937            -0.000000000000145
           698.803239999999960            -0.000000000000190
           698.903239999999983            -0.000000000000231
           699.003240000000005            -0.000000000000264
           699.103239999999914            -0.000000000000287
           699.203239999999937            -0.000000000000296
           699.303239999999960            -0.000000000000291
           699.403239999999983            -0.000000000000271
           699.503240000000005            -0.000000000000237
           699.603239999999914            -0.000000000000192
           699.703239999999937            -0.000000000000142
           699.803239999999960            -0.000000000000094
           699.903239999999983            -0.000000000000054
           700.003240000000005            -0.000000000000030
           700.103239999999914            -0.000000000000029
           700.203239999999937            -0.000000000000055
           700.303239999999960            -0.000000000000111
           700.403239999999983            -0.000000000000196
           700.503240000000005            -0.000000000000305
           700.603239999999914            -0.000000000000429
           700.703239999999937            -0.000000000000556
           700.803239999999960            -0.000000000000671
           700.903239999999983            -0.000000000000758
           701.003240000000005            -0.000000000000797
           701.103239999999914            -0.000000000000773
           701.203239999999937            -0.000000000000668
           701.303239999999960            -0.000000000000471
           701.403239999999983            -0.000000000000175
           701.503240000000005             0.000000000000221
           701.603239999999914             0.000000000000710
           701.703239999999937             0.000000000001277
           701.803239999999960             0.000000000001901
           701.903239999999983             0.000000000002552
           702.003240000000005             0.000000000003197
           702.103239999999914             0.000000000003798
           702.203239999999937             0.000000000004317
           702.303239999999960             0.000000000004716
           702.403239999999983             0.000000000004964
           702.503240000000005             0.000000000005036
           702.603239999999914             0.000000000004915
           702.703239999999937             0.000000000004597
           702.803239999999960             0.000000000004090
           702.903239999999983             0.000000000003414
           703.003240000000005             0.000000000002599
           703.103239999999914             0.000000000001687
           703.203239999999937             0.000000000000726
           703.303239999999960            -0.000000000000234
           703.403239999999983            -0.000000000001139
           703.503240000000005            -0.000000000001940
           703.603239999999914            -0.000000000002596
           703.703239999999937            -0.000000000003071
           703.803239999999960            -0.000000000003343
           703.903239999999983            -0.000000000003400
           704.003240000000005            -0.000000000003244
           704.103239999999914            -0.000000000002888
           704.203239999999937            -0.000000000002357
           704.303239999999960            -0.000000000001688
           704.403239999999983            -0.000000000000923
           704.503240000000005            -0.000000000000113
           704.603239999999914             0.000000000000689
           704.703239999999937             0.000000000001430
           704.803239999999960             0.000000000002061
           704.903239999999983             0.000000000002539
           705.003240000000005             0.000000000002829
           705.103239999999914             0.000000000002906
           705.203239999999937             0.000000000002762
           705.303239999999960             0.000000000002398
           705.403239999999983             0.000000000001832
           705.503240000000005             0.000000000001093
           705.603239999999914             0.000000000000223
           705.703239999999937            -0.000000000000728
           705.803239999999960            -0.000000000001701
           705.903239999999983            -0.000000000002634
           706.003240000000005            -0.000000000003467
           706.103239999999914            -0.000000000004142
           706.203239999999937            -0.000000000004611
           706.303239999999960            -0.000000000004835
           706.403239999999983            -0.000000000004791
           706.503240000000005            -0.000000000004472
           706.603239999999914            -0.000000000003888
           706.703239999999937            -0.000000000003064
           706.803239999999960            -0.000000000002042
           706.903239999999983            -0.000000000000875
           707.003240000000005             0.000000000000372
           707.103239999999914             0.000000000001630
           707.203239999999937             0.000000000002828
           707.303239999999960             0.000000000003898
           707.403239999999983             0.000000000004778
           707.503240000000005             0.000000000005417
           707.603239999999914             0.000000000005776
           707.703239999999937             0.000000000005837
           707.803239999999960             0.000000000005595
           707.903239999999983             0.000000000005066
           708.003240000000005             0.000000000004282
           708.103239999999914             0.000000000003292
           708.203239999999937             0.000000000002156
           708.303239999999960             0.000000000000942
           708.403239999999983            -0.000000000000277
           708.503240000000005            -0.000000000001428
           708.603239999999914            -0.000000000002444
           708.703239999999937            -0.000000000003266
           708.803239999999960            -0.000000000003850
           708.903239999999983            -0.000000000004162
           709.003240000000005            -0.000000000004188
           709.103239999999914            -0.000000000003932
           709.203239999999937            -0.000000000003416
           709.303239999999960            -0.000000000002676
           709.403239999999983            -0.000000000001764
           709.503240000000005            -0.000000000000743
           709.603239999999914             0.000000000000319
           709.703239999999937             0.000000000001350
           709.803239999999960             0.000000000002278
           709.903239999999983             0.000000000003042
           710.003240000000005             0.000000000003590
           710.103239999999914             0.000000000003884
           710.203239999999937             0.000000000003903
           710.303239999999960             0.000000000003644
           710.403239999999983             0.000000000003122
           710.503240000000005             0.000000000002367
           710.603239999999914             0.000000000001429
           710.703239999999937             0.000000000000367
           710.803239999999960            -0.000000000000752
           710.903239999999983            -0.000000000001856
           711.003240000000005            -0.000000000002875
           711.103239999999914            -0.000000000003742
           711.203239999999937            -0.000000000004401
           711.303239999999960            -0.000000000004808
           711.403239999999983            -0.000000000004936
           711.503240000000005            -0.000000000004777
           711.603239999999914            -0.000000000004339
           711.703239999999937            -0.000000000003647
           711.803239999999960            -0.000000000002743
           711.903239999999983            -0.000000000001682
           712.003240000000005            -0.000000000000529
           712.103239999999914             0.000000000000644
           712.203239999999937             0.000000000001768
           712.303239999999960             0.000000000002773
           712.403239999999983             0.000000000003601
           712.503240000000005             0.000000000004203
           712.603239999999914             0.000000000004544
           712.703239999999937             0.000000000004606
           712.803239999999960             0.000000000004388
           712.903239999999983             0.000000000003910
           713.003240000000005             0.000000000003205
           713.103239999999914             0.000000000002319
           713.203239999999937             0.000000000001308
           713.303239999999960             0.000000000000235
           713.403239999999983            -0.000000000000835
           713.503240000000005            -0.000000000001836
           713.603239999999914            -0.000000000002709
           713.703239999999937            -0.000000000003404
           713.803239999999960            -0.000000000003884
           713.903239999999983            -0.000000000004124
           714.003240000000005            -0.000000000004113
           714.103239999999914            -0.000000000003853
           714.203239999999937            -0.000000000003364
           714.303239999999960            -0.000000000002681
           714.403239999999983            -0.000000000001848
           714.503240000000005            -0.000000000000918
           714.603239999999914             0.000000000000049
           714.703239999999937             0.000000000000994
           714.803239999999960             0.000000000001856
           714.903239999999983             0.000000000002580
           715.003240000000005             0.000000000003117
           715.103239999999914             0.000000000003435
           715.203239999999937             0.000000000003515
           715.303239999999960             0.000000000003353
           715.403239999999983             0.000000000002959
           715.503240000000005             0.000000000002357
           715.603239999999914             0.000000000001586
           715.703239999999937             0.000000000000695
           715.803239999999960            -0.000000000000256
           715.903239999999983            -0.000000000001206
           716.003240000000005            -0.000000000002097
           716.103239999999914            -0.000000000002873
           716.203239999999937            -0.000000000003484
           716.303239999999960            -0.000000000003890
           716.403239999999983            -0.000000000004063
           716.503240000000005            -0.000000000003990
           716.603239999999914            -0.000000000003676
           716.703239999999937            -0.000000000003139
           716.803239999999960            -0.000000000002410
           716.903239999999983            -0.000000000001530
           717.003240000000005            -0.000000000000553
           717.103239999999914             0.000000000000463
           717.203239999999937             0.000000000001454
           717.303239999999960             0.000000000002357
           717.403239999999983             0.000000000003119
           717.503240000000005             0.000000000003694
           717.603239999999914             0.000000000004049
           717.703239999999937             0.000000000004162
           717.803239999999960             0.000000000004028
           717.903239999999983             0.000000000003658
           718.003240000000005             0.000000000003079
           718.103239999999914             0.000000000002333
           718.203239999999937             0.000000000001470
           718.303239999999960             0.000000000000545
           718.403239999999983            -0.000000000000384
           718.503240000000005            -0.000000000001258
           718.603239999999914            -0.000000000002020
           718.703239999999937            -0.000000000002625
           718.803239999999960            -0.000000000003035
           718.903239999999983            -0.000000000003229
           719.003240000000005            -0.000000000003199
           719.103239999999914            -0.000000000002948
           719.203239999999937            -0.000000000002493
           719.303239999999960            -0.000000000001864
           719.403239999999983            -0.000000000001103
           719.503240000000005            -0.000000000000262
           719.603239999999914             0.000000000000605
           719.703239999999937             0.000000000001441
           719.803239999999960             0.000000000002194
           719.903239999999983             0.000000000002816
           720.003240000000005             0.000000000003265
           720.103239999999914             0.000000000003508
           720.203239999999937             0.000000000003530
           720.303239999999960             0.000000000003327
           720.403239999999983             0.000000000002913
           720.503240000000005             0.000000000002312
           720.603239999999914             0.000000000001558
           720.703239999999937             0.000000000000696
           720.803239999999960            -0.000000000000223
           720.903239999999983            -0.000000000001142
           721.003240000000005            -0.000000000002004
           721.103239999999914            -0.000000000002758
           721.203239999999937            -0.000000000003362
           721.303239999999960            -0.000000000003780
           721.403239999999983            -0.000000000003986
           721.503240000000005            -0.000000000003966
           721.603239999999914            -0.000000000003720
           721.703239999999937            -0.000000000003262
           721.803239999999960            -0.000000000002620
           721.903239999999983            -0.000000000001832
           722.003240000000005            -0.000000000000941
           722.103239999999914            -0.000000000000001
           722.203239999999937             0.000000000000935
           722.303239999999960             0.000000000001808
           722.403239999999983             0.000000000002564
           722.503240000000005             0.000000000003156
           722.603239999999914             0.000000000003549
           722.703239999999937             0.000000000003719
           722.803239999999960             0.000000000003653
           722.903239999999983             0.000000000003355
           723.003240000000005             0.000000000002841
           723.103239999999914             0.000000000002141
           723.203239999999937             0.000000000001301
           723.303239999999960             0.000000000000371
           723.403239999999983            -0.000000000000591
           723.503240000000005            -0.000000000001527
           723.603239999999914            -0.000000000002381
           723.703239999999937            -0.000000000003100
           723.803239999999960            -0.000000000003636
           723.903239999999983            -0.000000000003956
           724.003240000000005            -0.000000000004038
           724.103239999999914            -0.000000000003877
           724.203239999999937            -0.000000000003478
           724.303239999999960            -0.000000000002862
           724.403239999999983            -0.000000000002061
           724.503240000000005            -0.000000000001119
           724.603239999999914            -0.000000000000090
           724.703239999999937             0.000000000000969
           724.803239999999960             0.000000000001995
           724.903239999999983             0.000000000002933
           725.003240000000005             0.000000000003728
           725.103239999999914             0.000000000004336
           725.203239999999937             0.000000000004719
           725.303239999999960             0.000000000004854
           725.403239999999983             0.000000000004731
           725.503240000000005             0.000000000004357
           725.603239999999914             0.000000000003749
           725.703239999999937             0.000000000002939
           725.803239999999960             0.000000000001969
           725.903239999999983             0.000000000000889
           726.003240000000005            -0.000000000000242
           726.103239999999914            -0.000000000001364
           726.203239999999937            -0.000000000002416
           726.303239999999960            -0.000000000003340
           726.403239999999983            -0.000000000004088
           726.503240000000005            -0.000000000004618
           726.603239999999914            -0.000000000004903
           726.703239999999937            -0.000000000004925
           726.803239999999960            -0.000000000004685
           726.903239999999983            -0.000000000004198
           727.003240000000005            -0.000000000003491
           727.103239999999914            -0.000000000002607
           727.203239999999937            -0.000000000001596
           727.303239999999960            -0.000000000000517
           727.403239999999983             0.000000000000569
           727.503240000000005             0.000000000001598
           727.603239999999914             0.000000000002510
           727.703239999999937             0.000000000003253
           727.803239999999960             0.000000000003785
           727.903239999999983             0.000000000004074
           728.003240000000005             0.000000000004106
           728.103239999999914             0.000000000003880
           728.203239999999937             0.000000000003409
           728.303239999999960             0.000000000002723
           728.403239999999983             0.000000000001863
           728.503240000000005             0.000000000000880
           728.603239999999914            -0.000000000000166
           728.703239999999937            -0.000000000001211
           728.803239999999960            -0.000000000002193
           728.903239999999983            -0.000000000003051
           729.003240000000005            -0.000000000003731
           729.103239999999914            -0.000000000004190
           729.203239999999937            -0.000000000004396
           729.303239999999960            -0.000000000004334
           729.403239999999983            -0.000000000004004
           729.503240000000005            -0.000000000003423
           729.603239999999914            -0.000000000002625
           729.703239999999937            -0.000000000001655
           729.803239999999960            -0.000000000000569
           729.903239999999983             0.000000000000565
           730.003240000000005             0.000000000001680
           730.103239999999914             0.000000000002706
           730.203239999999937             0.000000000003579
           730.303239999999960             0.000000000004246
           730.403239999999983             0.000000000004666
           730.503240000000005             0.000000000004810
           730.603239999999914             0.000000000004669
           730.703239999999937             0.000000000004249
           730.803239999999960             0.000000000003576
           730.903239999999983             0.000000000002689
           731.003240000000005             0.000000000001645
           731.103239999999914             0.000000000000505
           731.203239999999937            -0.000000000000661
           731.303239999999960            -0.000000000001784
           731.403239999999983            -0.000000000002795
           731.503240000000005            -0.000000000003630
           731.603239999999914            -0.000000000004239
           731.703239999999937            -0.000000000004585
           731.803239999999960            -0.000000000004650
           731.903239999999983            -0.000000000004432
           732.003240000000005            -0.000000000003944
           732.103239999999914            -0.000000000003217
           732.203239999999937            -0.000000000002298
           732.303239999999960            -0.000000000001248
           732.403239999999983            -0.000000000000135
           732.503240000000005             0.000000000000971
           732.603239999999914             0.000000000002000
           732.703239999999937             0.000000000002889
           732.803239999999960             0.000000000003583
           732.903239999999983             0.000000000004037
           733.003240000000005             0.000000000004226
           733.103239999999914             0.000000000004141
           733.203239999999937             0.000000000003792
           733.303239999999960             0.000000000003207
           733.403239999999983             0.000000000002429
           733.503240000000005             0.000000000001510
           733.603239999999914             0.000000000000514
           733.703239999999937            -0.000000000000492
           733.803239999999960            -0.000000000001438
           733.903239999999983            -0.000000000002259
           734.003240000000005            -0.000000000002903
           734.103239999999914            -0.000000000003331
           734.203239999999937            -0.000000000003515
           734.303239999999960            -0.000000000003446
           734.403239999999983            -0.000000000003128
           734.503240000000005            -0.000000000002586
           734.603239999999914            -0.000000000001858
           734.703239999999937            -0.000000000000996
           734.803239999999960            -0.000000000000057
           734.903239999999983             0.000000000000896
           735.003240000000005             0.000000000001804
           735.103239999999914             0.000000000002607
           735.203239999999937             0.000000000003253
           735.303239999999960             0.000000000003701
           735.403239999999983             0.000000000003923
           735.503240000000005             0.000000000003910
           735.603239999999914             0.000000000003668
           735.703239999999937             0.000000000003216
           735.803239999999960             0.000000000002585
           735.903239999999983             0.000000000001820
           736.003240000000005             0.000000000000974
           736.103239999999914             0.000000000000108
           736.203239999999937            -0.000000000000718
           736.303239999999960            -0.000000000001449
           736.403239999999983            -0.000000000002040
           736.503240000000005            -0.000000000002453
           736.603239999999914            -0.000000000002663
           736.703239999999937            -0.000000000002659
           736.803239999999960            -0.000000000002444
           736.903239999999983            -0.000000000002041
           737.003240000000005            -0.000000000001484
           737.103239999999914            -0.000000000000818
           737.203239999999937            -0.000000000000092
           737.303239999999960             0.000000000000643
           737.403239999999983             0.000000000001331
           737.503240000000005             0.000000000001922
           737.603239999999914             0.000000000002370
           737.703239999999937             0.000000000002645
           737.803239999999960             0.000000000002730
           737.903239999999983             0.000000000002624
           738.003240000000005             0.000000000002336
           738.103239999999914             0.000000000001886
           738.203239999999937             0.000000000001309
           738.303239999999960             0.000000000000651
           738.403239999999983            -0.000000000000039
           738.503240000000005            -0.000000000000706
           738.603239999999914            -0.000000000001304
           738.703239999999937            -0.000000000001791
           738.803239999999960            -0.000000000002133
           738.903239999999983            -0.000000000002304
           739.003240000000005            -0.000000000002293
           739.103239999999914            -0.000000000002102
           739.203239999999937            -0.000000000001747
           739.303239999999960            -0.000000000001259
           739.403239999999983            -0.000000000000674
           739.503240000000005            -0.000000000000036
           739.603239999999914             0.000000000000610
           739.703239999999937             0.000000000001217
           739.803239999999960             0.000000000001739
           739.903239999999983             0.000000000002136
           740.003240000000005             0.000000000002382
           740.103239999999914             0.000000000002460
           740.203239999999937             0.000000000002366
           740.303239999999960             0.000000000002105
           740.403239999999983             0.000000000001694
           740.503240000000005             0.000000000001157
           740.603239999999914             0.000000000000532
           740.703239999999937            -0.000000000000139
           740.803239999999960            -0.000000000000810
           740.903239999999983            -0.000000000001438
           741.003240000000005            -0.000000000001983
           741.103239999999914            -0.000000000002412
           741.203239999999937            -0.000000000002694
           741.303239999999960            -0.000000000002810
           741.403239999999983            -0.000000000002752
           741.503240000000005            -0.000000000002523
           741.603239999999914            -0.000000000002140
           741.703239999999937            -0.000000000001626
           741.803239999999960            -0.000000000001009
           741.903239999999983            -0.000000000000323
           742.003240000000005             0.000000000000394
           742.103239999999914             0.000000000001101
           742.203239999999937             0.000000000001758
           742.303239999999960             0.000000000002333
           742.403239999999983             0.000000000002798
           742.503240000000005             0.000000000003134
           742.603239999999914             0.000000000003324
           742.703239999999937             0.000000000003362
           742.803239999999960             0.000000000003247