           693.803239999999960             0.000000000000000
           693.903239999999983             0.000000000000000
           694.003240000000005             0.000000000000000
           694.103239999999914             0.000000000000000
           694.203239999999937             0.000000000000001
           694.303239999999960             0.000000000000001
           694.403239999999983             0.000000000000000
           694.503240000000005            -0.000000000000001
           694.603239999999914            -0.000000000000003
           694.703239999999937            -0.000000000000006
           694.803239999999960            -0.000000000000008
           694.903239999999983            -0.000000000000009
           695.003240000000005            -0.000000000000008
           695.103239999999914            -0.000000000000005
           695.203239999999937            -0.000000000000001
           695.303239999999960             0.000000000000004
           695.403239999999983             0.000000000000011
           695.503240000000005             0.000000000000018
           695.603239999999914             0.000000000000026
           695.703239999999937             0.000000000000035
           695.803239999999960             0.000000000000045
           695.903239999999983             0.000000000000053
           696.003240000000005             0.000000000000060
           696.103239999999914             0.000000000000062
           696.203239999999937             0.000000000000059
           696.303239999999960             0.000000000000048
           696.403239999999983             0.000000000000031
           696.503240000000005             0.000000000000007
           696.603239999999914            -0.000000000000021
           696.703239999999937            -0.000000000000050
           696.803239999999960            -0.000000000000079
           696.903239999999983            -0.000000000000104
           697.003240000000005            -0.000000000000124
           697.103239999999914            -0.000000000000137
           697.203239999999937            -0.000000000000141
           697.303239999999960            -0.000000000000135
           697.403239999999983            -0.000000000000119
           697.503240000000005            -0.000000000000093
           697.603239999999914            -0.000000000000058
           697.703239999999937            -0.000000000000018
           697.803239999999960             0.000000000000024
           697.903239999999983             0.000000000000063
           698.003240000000005             0.000000000000095
           698.103239999999914             0.000000000000115
           698.203239999999937             0.000000000000121
           698.303239999999960             0.000000000000114
           698.403239999999983             0.000000000000094
           698.503240000000005             0.000000000000063
           698.603239999999914             0.000000000000025
           698.703239999999937            -0.000000000000018
           698.803239999999960            -0.000000000000063
           698.903239999999983            -0.000000000000107
           699.003240000000005            -0.000000000000146
           699.103239999999914            -0.000000000000176
           699.203239999999937            -0.000000000000193
           699.303239999999960            -0.000000000000193
           699.403239999999983            -0.000000000000172
           699.503240000000005            -0.000000000000131
           699.603239999999914            -0.000000000000071
           699.703239999999937             0.000000000000006
           699.803239999999960             0.000000000000093
           699.903239999999983             0.000000000000186
           700.003240000000005             0.000000000000278
           700.103239999999914             0.000000000000364
           700.203239999999937             0.000000000000443
           700.303239999999960             0.000000000000513
           700.403239999999983             0.000000000000573
           700.503240000000005             0.000000000000621
           700.603239999999914             0.000000000000658
           700.703239999999937             0.000000000000683
           700.803239999999960             0.000000000000696
           700.903239999999983             0.000000000000699
           701.003240000000005             0.000000000000694
           701.103239999999914             0.000000000000686
           701.203239999999937             0.000000000000681
           701.303239999999960             0.000000000000684
           701.403239999999983             0.000000000000699
           701.503240000000005             0.000000000000727
           701.603239999999914             0.000000000000769
           701.703239999999937             0.000000000000821
           701.803239999999960             0.000000000000881
           701.903239999999983             0.000000000000944
           702.003240000000005             0.000000000001007
           702.103239999999914             0.000000000001069
           702.203239999999937             0.000000000001126
           702.303239999999960             0.000000000001176
           702.403239999999983             0.000000000001216
           702.503240000000005             0.000000000001240
           702.603239999999914             0.000000000001244
           702.703239999999937             0.000000000001223
           702.803239999999960             0.000000000001171
           702.903239999999983             0.000000000001088
           703.003240000000005             0.000000000000975
           703.103239999999914             0.000000000000837
           703.203239999999937             0.000000000000680
           703.303239999999960             0.000000000000511
           703.403239999999983             0.000000000000337
           703.503240000000005             0.000000000000163
           703.603239999999914            -0.000000000000005
           703.703239999999937            -0.000000000000163
           703.803239999999960            -0.000000000000306
           703.903239999999983            -0.000000000000430
           704.003240000000005            -0.000000000000527
           704.103239999999914            -0.000000000000592
           704.203239999999937            -0.000000000000619
           704.303239999999960            -0.000000000000606
           704.403239999999983            -0.000000000000553
           704.503240000000005            -0.000000000000463
           704.603239999999914            -0.000000000000343
           704.703239999999937            -0.000000000000203
           704.803239999999960            -0.000000000000051
           704.903239999999983             0.000000000000102
           705.003240000000005             0.000000000000249
           705.103239999999914             0.000000000000382
           705.203239999999937             0.000000000000498
           705.303239999999960             0.000000000000592
           705.403239999999983             0.000000000000662
           705.503240000000005             0.000000000000706
           705.603239999999914             0.000000000000722
           705.703239999999937             0.000000000000711
           705.803239999999960             0.000000000000675
           705.903239999999983             0.000000000000616
           706.003240000000005             0.000000000000542
           706.103239999999914             0.000000000000458
           706.203239999999937             0.000000000000372
           706.303239999999960             0.000000000000293
           706.403239999999983             0.000000000000226
           706.503240000000005             0.000000000000176
           706.603239999999914             0.000000000000145
           706.703239999999937             0.000000000000134
           706.803239999999960             0.000000000000140
           706.903239999999983             0.000000000000162
           707.003240000000005             0.000000000000197
           707.103239999999914             0.000000000000241
           707.203239999999937             0.000000000000292
           707.303239999999960             0.000000000000347
           707.403239999999983             0.000000000000404
           707.503240000000005             0.000000000000458
           707.603239999999914             0.000000000000505
           707.703239999999937             0.000000000000543
           707.803239999999960             0.000000000000567
           707.903239999999983             0.000000000000575
           708.003240000000005             0.000000000000564
           708.103239999999914             0.000000000000538
           708.203239999999937             0.000000000000498
           708.303239999999960             0.000000000000452
           708.403239999999983             0.000000000000404
           708.503240000000005             0.000000000000361
           708.603239999999914             0.000000000000327
           708.703239999999937             0.000000000000304
           708.803239999999960             0.000000000000293
           708.903239999999983             0.000000000000293
           709.003240000000005             0.000000000000304
           709.103239999999914             0.000000000000323
           709.203239999999937             0.000000000000351
           709.303239999999960             0.000000000000388
           709.403239999999983             0.000000000000432
           709.503240000000005             0.000000000000480
           709.603239999999914             0.000000000000530
           709.703239999999937             0.000000000000574
           709.803239999999960             0.000000000000606
           709.903239999999983             0.000000000000619
           710.003240000000005             0.000000000000608
           710.103239999999914             0.000000000000571
           710.203239999999937             0.000000000000510
           710.303239999999960             0.000000000000427
           710.403239999999983             0.000000000000327
           710.503240000000005             0.000000000000217
           710.603239999999914             0.000000000000102
           710.703239999999937            -0.000000000000015
           710.803239999999960            -0.000000000000129
           710.903239999999983            -0.000000000000237
           711.003240000000005            -0.000000000000335
           711.103239999999914            -0.000000000000416
           711.203239999999937            -0.000000000000476
           711.303239999999960            -0.000000000000508
           711.403239999999983            -0.000000000000508
           711.503240000000005            -0.000000000000476
           711.603239999999914            -0.000000000000412
           711.703239999999937            -0.000000000000324
           711.803239999999960            -0.000000000000218
           711.903239999999983            -0.000000000000103
           712.003240000000005             0.000000000000010
           712.103239999999914             0.000000000000114
           712.203239999999937             0.000000000000203
           712.303239999999960             0.000000000000272
           712.403239999999983             0.000000000000315
           712.503240000000005             0.000000000000331
           712.603239999999914             0.000000000000315
           712.703239999999937             0.000000000000266
           712.803239999999960             0.000000000000186
           712.903239999999983             0.000000000000075
           713.003240000000005            -0.000000000000059
           713.103239999999914            -0.000000000000211
           713.203239999999937            -0.000000000000370
           713.303239999999960            -0.000000000000527
           713.403239999999983            -0.000000000000672
           713.503240000000005            -0.000000000000796
           713.603239999999914            -0.000000000000892
           713.703239999999937            -0.000000000000954
           713.803239999999960            -0.000000000000981
           713.903239999999983            -0.000000000000969
           714.003240000000005            -0.000000000000920
           714.103239999999914            -0.000000000000836
           714.203239999999937            -0.000000000000721
           714.303239999999960            -0.000000000000583
           714.403239999999983            -0.000000000000429
           714.503240000000005            -0.000000000000269
           714.603239999999914            -0.000000000000114
           714.703239999999937             0.000000000000026
           714.803239999999960             0.000000000000142
           714.903239999999983             0.000000000000227
           715.003240000000005             0.000000000000276
           715.103239999999914             0.000000000000286
           715.203239999999937             0.000000000000255
           715.303239999999960             0.000000000000187
           715.403239999999983             0.000000000000086
           715.503240000000005            -0.000000000000040
           715.603239999999914            -0.000000000000182
           715.703239999999937            -0.000000000000329
           715.803239999999960            -0.000000000000468
           715.903239999999983            -0.000000000000590
           716.003240000000005            -0.000000000000684
           716.103239999999914            -0.000000000000743
           716.203239999999937            -0.000000000000765
           716.303239999999960            -0.000000000000748
           716.403239999999983            -0.000000000000694
           716.503240000000005            -0.000000000000606
           716.603239999999914            -0.000000000000491
           716.703239999999937            -0.000000000000355
           716.803239999999960            -0.000000000000206
           716.903239999999983            -0.000000000000055
           717.003240000000005             0.000000000000089
           717.103239999999914             0.000000000000215
           717.203239999999937             0.000000000000315
           717.303239999999960             0.000000000000381
           717.403239999999983             0.000000000000410
           717.503240000000005             0.000000000000400
           717.603239999999914             0.000000000000354
           717.703239999999937             0.000000000000277
           717.803239999999960             0.000000000000176
           717.903239999999983             0.000000000000061
           718.003240000000005            -0.000000000000061
           718.103239999999914            -0.000000000000179
           718.203239999999937            -0.000000000000286
           718.303239999999960            -0.000000000000372
           718.403239999999983            -0.000000000000432
           718.503240000000005            -0.000000000000460
           718.603239999999914            -0.000000000000453
           718.703239999999937            -0.000000000000411
           718.803239999999960            -0.000000000000337
           718.903239999999983            -0.000000000000236
           719.003240000000005            -0.000000000000114
           719.103239999999914             0.000000000000019
           719.203239999999937             0.000000000000154
           719.303239999999960             0.000000000000283
           719.403239999999983             0.000000000000395
           719.503240000000005             0.000000000000483
           719.603239999999914             0.000000000000539
           719.703239999999937             0.000000000000558
           719.803239999999960             0.000000000000537
           719.903239999999983             0.000000000000475
           720.003240000000005             0.000000000000374
           720.103239999999914             0.000000000000242
           720.203239999999937             0.000000000000087
           720.303239999999960            -0.000000000000079
           720.403239999999983            -0.000000000000244
           720.503240000000005            -0.000000000000394
           720.603239999999914            -0.000000000000519
           720.703239999999937            -0.000000000000607
           720.803239999999960            -0.000000000000652
           720.903239999999983            -0.000000000000650
           721.003240000000005            -0.000000000000598
           721.103239999999914            -0.000000000000497
           721.203239999999937            -0.000000000000352
           721.303239999999960            -0.000000000000168
           721.403239999999983             0.000000000000044
           721.503240000000005             0.000000000000272
           721.603239999999914             0.000000000000502
           721.703239999999937             0.000000000000717
           721.803239999999960             0.000000000000902
           721.903239999999983             0.000000000001045
           722.003240000000005             0.000000000001136
           722.103239999999914             0.000000000001168
           722.203239999999937             0.000000000001140
           722.303239999999960             0.000000000001054
           722.403239999999983             0.000000000000916
           722.503240000000005             0.000000000000734
           722.603239999999914             0.000000000000519
           722.703239999999937             0.000000000000284
           722.803239999999960             0.000000000000042
           722.903239999999983            -0.000000000000192
           723.003240000000005            -0.000000000000402
           723.103239999999914            -0.000000000000573
           723.203239999999937            -0.000000000000695
           723.303239999999960            -0.000000000000757
           723.403239999999983            -0.000000000000756
           723.503240000000005            -0.000000000000692
           723.603239999999914            -0.000000000000568
           723.703239999999937            -0.000000000000393
           723.803239999999960            -0.000000000000177
           723.903239999999983             0.000000000000066
           724.003240000000005             0.000000000000323
           724.103239999999914             0.000000000000578
           724.203239999999937             0.000000000000817
           724.303239999999960             0.000000000001024
           724.403239999999983             0.000000000001187
           724.503240000000005             0.000000000001295
           724.603239999999914             0.000000000001339
           724.703239999999937             0.000000000001315
           724.803239999999960             0.000000000001225
           724.903239999999983             0.000000000001073
           725.003240000000005             0.000000000000869
           725.103239999999914             0.000000000000625
           725.203239999999937             0.000000000000354
           725.303239999999960             0.000000000000072
           725.403239999999983            -0.000000000000206
           725.503240000000005            -0.000000000000465
           725.603239999999914            -0.000000000000692
           725.703239999999937            -0.000000000000873
           725.803239999999960            -0.000000000001000
           725.903239999999983            -0.000000000001067
           726.003240000000005            -0.000000000001068
           726.103239999999914            -0.000000000001006
           726.203239999999937            -0.000000000000884
           726.303239999999960            -0.000000000000709
           726.403239999999983            -0.000000000000494
           726.503240000000005            -0.000000000000250
           726.603239999999914             0.000000000000008
           726.703239999999937             0.000000000000264
           726.803239999999960             0.000000000000504
           726.903239999999983             0.000000000000715
           727.003240000000005             0.000000000000884
           727.103239999999914             0.000000000001002
           727.203239999999937             0.000000000001062
           727.303239999999960             0.000000000001061
           727.403239999999983             0.000000000001002
           727.503240000000005             0.000000000000889
           727.603239999999914             0.000000000000731
           727.703239999999937             0.000000000000542
           727.803239999999960             0.000000000000334
           727.903239999999983             0.000000000000123
           728.003240000000005            -0.000000000000079
           728.103239999999914            -0.000000000000258
           728.203239999999937            -0.000000000000403
           728.303239999999960            -0.000000000000504
           728.403239999999983            -0.000000000000557
           728.503240000000005            -0.000000000000557
           728.603239999999914            -0.000000000000505
           728.703239999999937            -0.000000000000405
           728.803239999999960            -0.000000000000265
           728.903239999999983            -0.000000000000096
           729.003240000000005             0.000000000000090
           729.103239999999914             0.000000000000276
           729.203239999999937             0.000000000000451
           729.303239999999960             0.000000000000601
           729.403239999999983             0.000000000000717
           729.503240000000005             0.000000000000789
           729.603239999999914             0.000000000000814
           729.703239999999937             0.000000000000789
           729.803239999999960             0.000000000000715
           729.903239999999983             0.000000000000596
           730.003240000000005             0.000000000000438
           730.103239999999914             0.000000000000250
           730.203239999999937             0.000000000000045
           730.303239999999960            -0.000000000000164
           730.403239999999983            -0.000000000000363
           730.503240000000005            -0.000000000000537
           730.603239999999914            -0.000000000000674
           730.703239999999937            -0.000000000000766
           730.803239999999960            -0.000000000000807
           730.903239999999983            -0.000000000000794
           731.003240000000005            -0.000000000000729
           731.103239999999914            -0.000000000000616
           731.203239999999937            -0.000000000000463
           731.303239999999960            -0.000000000000278
           731.403239999999983            -0.000000000000072
           731.503240000000005             0.000000000000141
           731.603239999999914             0.000000000000348
           731.703239999999937             0.000000000000537
           731.803239999999960             0.000000000000695
           731.903239999999983             0.000000000000812
           732.003240000000005             0.000000000000880
           732.103239999999914             0.000000000000896
           732.203239999999937             0.000000000000859
           732.303239999999960             0.000000000000774
           732.403239999999983             0.000000000000645
           732.503240000000005             0.000000000000483
           732.603239999999914             0.000000000000296
           732.703239999999937             0.000000000000097
           732.803239999999960            -0.000000000000102
           732.903239999999983            -0.000000000000290
           733.003240000000005            -0.000000000000454
           733.103239999999914            -0.000000000000585
           733.203239999999937            -0.000000000000676
           733.303239999999960            -0.000000000000722
           733.403239999999983            -0.000000000000722
           733.503240000000005            -0.000000000000679
           733.603239999999914            -0.000000000000599
           733.703239999999937            -0.000000000000487
           733.803239999999960            -0.000000000000354
           733.903239999999983            -0.000000000000209
           734.003240000000005            -0.000000000000060
           734.103239999999914             0.000000000000083
           734.203239999999937             0.000000000000211
           734.303239999999960             0.000000000000317
           734.403239999999983             0.000000000000393
           734.503240000000005             0.000000000000436
           734.603239999999914             0.000000000000441
           734.703239999999937             0.000000000000411
           734.803239999999960             0.000000000000347
           734.903239999999983             0.000000000000257
           735.003240000000005             0.000000000000146
           735.103239999999914             0.000000000000026
           735.203239999999937            -0.000000000000096
           735.303239999999960            -0.000000000000212
           735.403239999999983            -0.000000000000313
           735.503240000000005            -0.000000000000395
           735.603239999999914            -0.000000000000452
           735.703239999999937            -0.000000000000481
           735.803239999999960            -0.000000000000480
           735.903239999999983            -0.000000000000449
           736.003240000000005            -0.000000000000390
           736.103239999999914            -0.000000000000308
           736.203239999999937            -0.000000000000208
           736.303239999999960            -0.000000000000098
           736.403239999999983             0.000000000000011
           736.503240000000005             0.000000000000111
           736.603239999999914             0.000000000000194
           736.703239999999937             0.000000000000254
           736.803239999999960             0.000000000000286
           736.903239999999983             0.000000000000287
           737.003240000000005             0.000000000000257
           737.103239999999914             0.000000000000198
           737.203239999999937             0.000000000000113
           737.303239999999960             0.000000000000008
           737.403239999999983            -0.000000000000110
           737.503240000000005            -0.000000000000234
           737.603239999999914            -0.000000000000354
           737.703239999999937            -0.000000000000460
           737.803239999999960            -0.000000000000545
           737.903239999999983            -0.000000000000600
           738.003240000000005            -0.000000000000620
           738.103239999999914            -0.000000000000604
           738.203239999999937            -0.000000000000551
           738.303239999999960            -0.000000000000466
           738.403239999999983            -0.000000000000353
           738.503240000000005            -0.000000000000221
           738.603239999999914            -0.000000000000078
           738.703239999999937             0.000000000000065
           738.803239999999960             0.000000000000198
           738.903239999999983             0.000000000000313
           739.003240000000005             0.000000000000399
           739.103239999999914             0.000000000000451
           739.203239999999937             0.000000000000464
           739.303239999999960             0.000000000000436
           739.403239999999983             0.000000000000368
           739.503240000000005             0.000000000000265
           739.603239999999914             0.000000000000135
           739.703239999999937            -0.000000000000015
           739.803239999999960            -0.000000000000174
           739.903239999999983            -0.000000000000332
           740.003240000000005            -0.000000000000478
           740.103239999999914            -0.000000000000603
           740.203239999999937            -0.000000000000698
           740.303239999999960            -0.000000000000757
           740.403239999999983            -0.000000000000776
           740.503240000000005            -0.000000000000753
           740.603239999999914            -0.000000000000692
           740.703239999999937            -0.000000000000596
           740.803239999999960            -0.000000000000472
           740.903239999999983            -0.000000000000331
           741.003240000000005            -0.000000000000182
           741.103239999999914            -0.000000000000037
           741.203239999999937             0.000000000000096
           741.303239999999960             0.000000000000206
           741.403239999999983             0.000000000000284
           741.503240000000005             0.000000000000326
           741.603239999999914             0.000000000000326
           741.703239999999937             0.000000000000283
           741.803239999999960             0.000000000000200
           741.903239999999983             0.000000000000080
           742.003240000000005            -0.000000000000067
           742.103239999999914            -0.000000000000232
           742.203239999999937            -0.000000000000403
           742.303239999999960            -0.000000000000567
           742.403239999999983            -0.000000000000713
           742.503240000000005            -0.000000000000831
           742.603239999999914            -0.000000000000913
           742.703239999999937            -0.000000000000953
           742.803239999999960            -0.000000000000949