  -4.00000000       0.00000000    
  -3.99900007       0.00000000    
  -3.99799991       0.00000000    
  -3.99699998       0.00000000    
  -3.99600005       0.00000000    
  -3.99499989       1.03557573E-30
  -3.99399996       1.13935006E-29
  -3.99300003       6.83704649E-29
  -3.99200010       2.96297581E-28
  -3.99099994       1.03707707E-27
  -3.99000001       3.11117651E-27
  -3.98900008       8.29589162E-27
  -3.98799992       2.01447126E-26
  -3.98699999       4.53177263E-26
  -3.98600006       9.56491567E-26
  -3.98499990       1.91245164E-25
  -3.98399997       3.64983951E-25
  -3.98300004       6.68881719E-25
  -3.98200011       1.18289259E-24
  -3.98099995       2.02683018E-24
  -3.98000002       3.37623277E-24
  -3.97900009       5.48314023E-24
  -3.97799993       8.70292413E-24
  -3.97700000       1.35284833E-23
  -3.97600007       2.06333259E-23
  -3.97499990       3.09252755E-23
  -3.97399998       4.56127674E-23
  -3.97300005       6.62859561E-23
  -3.97199988       9.50151343E-23
  -3.97099996       1.34469230E-22
  -3.97000003       1.88057523E-22
  -3.96900010       2.60097967E-22
  -3.96799994       3.56015804E-22
  -3.96700001       4.82576887E-22
  -3.96600008       6.48159725E-22
  -3.96499991       8.63071890E-22
  -3.96399999       1.13991537E-21
  -3.96300006       1.49400683E-21
  -3.96199989       1.94386010E-21
  -3.96099997       2.51173534E-21
  -3.96000004       3.22426460E-21
  -3.95900011       4.11315923E-21
  -3.95799994       5.21600909E-21
  -3.95700002       6.57718124E-21
  -3.95600009       8.24882844E-21
  -3.95499992       1.02920138E-20
  -3.95400000       1.27779703E-20
  -3.95300007       1.57894933E-20
  -3.95199990       1.94224916E-20
  -3.95099998       2.37876982E-20
  -3.95000005       2.90125587E-20
  -3.94899988       3.52433095E-20
  -3.94799995       4.26472578E-20
  -3.94700003       5.14152883E-20
  -3.94600010       6.17645876E-20
  -3.94499993       7.39416362E-20
  -3.94400001       8.82254556E-20
  -3.94300008       1.04931124E-19
  -3.94199991       1.24413612E-19
  -3.94099998       1.47071963E-19
  -3.94000006       1.73353701E-19
  -3.93899989       2.03759749E-19
  -3.93799996       2.38849565E-19
  -3.93700004       2.79246817E-19
  -3.93600011       3.25645342E-19
  -3.93499994       3.78815633E-19
  -3.93400002       4.39611754E-19
  -3.93300009       5.08978707E-19
  -3.93199992       5.87960290E-19
  -3.93099999       6.77707680E-19
  -3.93000007       7.79488118E-19
  -3.92899990       8.94694681E-19
  -3.92799997       1.02485620E-18
  -3.92700005       1.17164819E-18
  -3.92600012       1.33690409E-18
  -3.92499995       1.52262723E-18
  -3.92400002       1.73100375E-18
  -3.92300010       1.96441561E-18
  -3.92199993       2.22545541E-18
  -3.92100000       2.51694083E-18
  -3.92000008       2.84193037E-18
  -3.91899991       3.20373958E-18
  -3.91799998       3.60595864E-18
  -3.91700006       4.05247073E-18
  -3.91599989       4.54747091E-18
  -3.91499996       5.09548593E-18
  -3.91400003       5.70139448E-18
  -3.91300011       6.37045001E-18
  -3.91199994       7.10830215E-18
  -3.91100001       7.92102199E-18
  -3.91000009       8.81512482E-18
  -3.90899992       9.79759701E-18
  -3.90799999       1.08759229E-17
  -3.90700006       1.20581096E-17
  -3.90599990       1.33527200E-17
  -3.90499997       1.47688996E-17
  -3.90400004       1.63164089E-17
  -3.90300012       1.80056523E-17
  -3.90199995       1.98477141E-17
  -3.90100002       2.18543914E-17
  -3.90000010       2.40382293E-17
  -3.89899993       2.64125569E-17
  -3.89800000       2.89915224E-17
  -3.89700007       3.17901424E-17
  -3.89599991       3.48243236E-17
  -3.89499998       3.81109107E-17
  -3.89400005       4.16677377E-17
  -3.89299989       4.55136544E-17
  -3.89199996       4.96685860E-17
  -3.89100003       5.41535592E-17
  -3.89000010       5.89907692E-17
  -3.88899994       6.42036085E-17
  -3.88800001       6.98167238E-17
  -3.88700008       7.58560554E-17
  -3.88599992       8.23489071E-17
  -3.88499999       8.93239653E-17
  -3.88400006       9.68113859E-17
  -3.88299990       1.04842807E-16
  -3.88199997       1.13451434E-16
  -3.88100004       1.22672089E-16
  -3.88000011       1.32541254E-16
  -3.87899995       1.43097111E-16
  -3.87800002       1.54379629E-16
  -3.87700009       1.66430605E-16
  -3.87599993       1.79293727E-16
  -3.87500000       1.93014602E-16
  -3.87400007       2.07640863E-16
  -3.87299991       2.23222192E-16
  -3.87199998       2.39810353E-16
  -3.87100005       2.57459317E-16
  -3.86999989       2.76225253E-16
  -3.86899996       2.96166658E-16
  -3.86800003       3.17344335E-16
  -3.86700010       3.39821492E-16
  -3.86599994       3.63663802E-16
  -3.86500001       3.88939424E-16
  -3.86400008       4.15719112E-16
  -3.86299992       4.44076213E-16
  -3.86199999       4.74086776E-16
  -3.86100006       5.05829547E-16
  -3.85999990       5.39386134E-16
  -3.85899997       5.74840868E-16
  -3.85800004       6.12281048E-16
  -3.85700011       6.51796829E-16
  -3.85599995       6.93481332E-16
  -3.85500002       7.37430801E-16
  -3.85400009       7.83744498E-16
  -3.85299993       8.32524755E-16
  -3.85200000       8.83877133E-16
  -3.85100007       9.37910371E-16
  -3.84999990       9.94736223E-16
  -3.84899998       1.05446994E-15
  -3.84800005       1.11723000E-15
  -3.84699988       1.18313816E-15
  -3.84599996       1.25231947E-15
  -3.84500003       1.32490257E-15
  -3.84400010       1.40101907E-15
  -3.84299994       1.48080428E-15
  -3.84200001       1.56439690E-15
  -3.84100008       1.65193882E-15
  -3.83999991       1.74357550E-15
  -3.83899999       1.83945592E-15
  -3.83800006       1.93973234E-15
  -3.83699989       2.04456029E-15
  -3.83599997       2.15409902E-15
  -3.83500004       2.26851072E-15
  -3.83400011       2.38796143E-15
  -3.83299994       2.51262011E-15
  -3.83200002       2.64265915E-15
  -3.83100009       2.77825430E-15
  -3.82999992       2.91958429E-15
  -3.82900000       3.06683123E-15
  -3.82800007       3.22017998E-15
  -3.82699990       3.37981901E-15
  -3.82599998       3.54593932E-15
  -3.82500005       3.71873510E-15
  -3.82399988       3.89840307E-15
  -3.82299995       4.08514292E-15
  -3.82200003       4.27915709E-15
  -3.82100010       4.48065013E-15
  -3.81999993       4.68982915E-15
  -3.81900001       4.90690464E-15
  -3.81800008       5.13208792E-15
  -3.81699991       5.36559288E-15
  -3.81599998       5.60763594E-15
  -3.81500006       5.85843435E-15
  -3.81399989       6.11820749E-15
  -3.81299996       6.38717645E-15
  -3.81200004       6.66556357E-15
  -3.81100011       6.95359247E-15
  -3.80999994       7.25148802E-15
  -3.80900002       7.55947513E-15
  -3.80800009       7.87777910E-15
  -3.80699992       8.20662779E-15
  -3.80599999       8.54624734E-15
  -3.80500007       8.89686477E-15
  -3.80399990       9.25870539E-15
  -3.80299997       9.63199620E-15
  -3.80200005       1.00169625E-14
  -3.80100012       1.04138288E-14
  -3.79999995       1.08228178E-14
  -3.79900002       1.12441523E-14
  -3.79800010       1.16780517E-14
  -3.79699993       1.21247345E-14
  -3.79600000       1.25844168E-14
  -3.79500008       1.30573110E-14
  -3.79399991       1.35436291E-14
  -3.79299998       1.40435776E-14
  -3.79200006       1.45573590E-14
  -3.79099989       1.50851757E-14
  -3.78999996       1.56272226E-14
  -3.78900003       1.61836893E-14
  -3.78800011       1.67547657E-14
  -3.78699994       1.73406313E-14
  -3.78600001       1.79414623E-14
  -3.78500009       1.85574280E-14
  -3.78399992       1.91886946E-14
  -3.78299999       1.98354178E-14
  -3.78200006       2.04977501E-14
  -3.78099990       2.11758322E-14
  -3.77999997       2.18698012E-14
  -3.77900004       2.25797825E-14
  -3.77800012       2.33058947E-14
  -3.77699995       2.40482496E-14
  -3.77600002       2.48069455E-14
  -3.77500010       2.55820755E-14
  -3.77399993       2.63737193E-14
  -3.77300000       2.71819480E-14
  -3.77200007       2.80068208E-14
  -3.77099991       2.88483836E-14
  -3.76999998       2.97066787E-14
  -3.76900005       3.05817248E-14
  -3.76799989       3.14735353E-14
  -3.76699996       3.23821102E-14
  -3.76600003       3.33074361E-14
  -3.76500010       3.42494858E-14
  -3.76399994       3.52082119E-14
  -3.76300001       3.61835602E-14
  -3.76200008       3.71754595E-14
  -3.76099992       3.81838251E-14
  -3.75999999       3.92085520E-14
  -3.75900006       4.02495217E-14
  -3.75799990       4.13065984E-14
  -3.75699997       4.23796299E-14
  -3.75600004       4.34684501E-14
  -3.75500011       4.45728659E-14
  -3.75399995       4.56926773E-14
  -3.75300002       4.68276608E-14
  -3.75200009       4.79775758E-14
  -3.75099993       4.91421614E-14
  -3.75000000       5.03211398E-14
  -3.74900007       5.15142094E-14
  -3.74799991       5.27210518E-14
  -3.74699998       5.39413315E-14
  -3.74600005       5.51746860E-14
  -3.74499989       5.64207359E-14
  -3.74399996       5.76790812E-14
  -3.74300003       5.89492986E-14
  -3.74200010       6.02309543E-14
  -3.74099994       6.15235740E-14
  -3.74000001       6.28266699E-14
  -3.73900008       6.41397471E-14
  -3.73799992       6.54622705E-14
  -3.73699999       6.67936843E-14
  -3.73600006       6.81334261E-14
  -3.73499990       6.94808929E-14
  -3.73399997       7.08354680E-14
  -3.73300004       7.21965077E-14
  -3.73200011       7.35633613E-14
  -3.73099995       7.49353379E-14
  -3.73000002       7.63117325E-14
  -3.72900009       7.76918203E-14
  -3.72799993       7.90748489E-14
  -3.72700000       8.04600459E-14
  -3.72600007       8.18466117E-14
  -3.72499990       8.32337400E-14
  -3.72399998       8.46205972E-14
  -3.72300005       8.60063160E-14
  -3.72199988       8.73900290E-14
  -3.72099996       8.87708215E-14
  -3.72000003       9.01477853E-14
  -3.71900010       9.15199787E-14
  -3.71799994       9.28864461E-14
  -3.71700001       9.42462051E-14
  -3.71600008       9.55982662E-14
  -3.71499991       9.69416062E-14
  -3.71399999       9.82752020E-14
  -3.71300006       9.95979964E-14
  -3.71199989       1.00908926E-13
  -3.71099997       1.02206905E-13
  -3.71000004       1.03490845E-13
  -3.70900011       1.04759625E-13
  -3.70799994       1.06012123E-13
  -3.70700002       1.07247192E-13
  -3.70600009       1.08463687E-13
  -3.70499992       1.09660450E-13
  -3.70400000       1.10836301E-13
  -3.70300007       1.11990055E-13
  -3.70199990       1.13120511E-13
  -3.70099998       1.14226472E-13
  -3.70000005       1.15306744E-13
  -3.69899988       1.16360101E-13
  -3.69799995       1.17385322E-13
  -3.69700003       1.18381189E-13
  -3.69600010       1.19346468E-13
  -3.69499993       1.20279925E-13
  -3.69400001       1.21180342E-13
  -3.69300008       1.22046497E-13
  -3.69199991       1.22877145E-13
  -3.69099998       1.23671079E-13
  -3.69000006       1.24427066E-13
  -3.68899989       1.25143914E-13
  -3.68799996       1.25820402E-13
  -3.68700004       1.26455338E-13
  -3.68600011       1.27047529E-13
  -3.68499994       1.27595810E-13
  -3.68400002       1.28099015E-13
  -3.68300009       1.28555993E-13
  -3.68199992       1.28965618E-13
  -3.68099999       1.29326766E-13
  -3.68000007       1.29638338E-13
  -3.67899990       1.29899279E-13
  -3.67799997       1.30108530E-13
  -3.67700005       1.30265061E-13
  -3.67600012       1.30367871E-13
  -3.67499995       1.30415982E-13
  -3.67400002       1.30408461E-13
  -3.67300010       1.30344398E-13
  -3.67199993       1.30222886E-13
  -3.67100000       1.30043098E-13
  -3.67000008       1.29804221E-13
  -3.66899991       1.29505469E-13
  -3.66799998       1.29146124E-13
  -3.66700006       1.28725494E-13
  -3.66599989       1.28242930E-13
  -3.66499996       1.27697833E-13
  -3.66400003       1.27089623E-13
  -3.66300011       1.26417811E-13
  -3.66199994       1.25681949E-13
  -3.66100001       1.24881618E-13
  -3.66000009       1.24016465E-13
  -3.65899992       1.23086206E-13
  -3.65799999       1.22090584E-13
  -3.65700006       1.21029434E-13
  -3.65599990       1.19902637E-13
  -3.65499997       1.18710136E-13
  -3.65400004       1.17451947E-13
  -3.65300012       1.16128149E-13
  -3.65199995       1.14738880E-13
  -3.65100002       1.13284355E-13
  -3.65000010       1.11764852E-13
  -3.64899993       1.10180731E-13
  -3.64800000       1.08532432E-13
  -3.64700007       1.06820450E-13
  -3.64599991       1.05045374E-13
  -3.64499998       1.03207861E-13
  -3.64400005       1.01308664E-13
  -3.64299989       9.93486028E-14
  -3.64199996       9.73285783E-14
  -3.64100003       9.52495868E-14
  -3.64000010       9.31126988E-14
  -3.63899994       9.09190732E-14
  -3.63800001       8.86699636E-14
  -3.63700008       8.63666980E-14
  -3.63599992       8.40107132E-14
  -3.63499999       8.16035133E-14
  -3.63400006       7.91467112E-14
  -3.63299990       7.66420009E-14
  -3.63199997       7.40911781E-14
  -3.63100004       7.14961198E-14
  -3.63000011       6.88588048E-14
  -3.62899995       6.61813066E-14
  -3.62800002       6.34657799E-14
  -3.62700009       6.07144882E-14
  -3.62599993       5.79297827E-14
  -3.62500000       5.51141096E-14
  -3.62400007       5.22700102E-14
  -3.62299991       4.94001236E-14
  -3.62199998       4.65071808E-14
  -3.62100005       4.35940041E-14
  -3.61999989       4.06635141E-14
  -3.61899996       3.77187193E-14
  -3.61800003       3.47627268E-14
  -3.61700010       3.17987315E-14
  -3.61599994       2.88300200E-14
  -3.61500001       2.58599650E-14
  -3.61400008       2.28920327E-14
  -3.61299992       1.99297755E-14
  -3.61199999       1.69768323E-14
  -3.61100006       1.40369275E-14
  -3.60999990       1.11138676E-14
  -3.60899997       8.21154143E-15
  -3.60800004       5.33391555E-15
  -3.60700011       2.48503754E-15
  -3.60599995      -3.30971030E-16
  -3.60500002      -3.10991471E-15
  -3.60400009      -5.84752668E-15
  -3.60299993      -8.53947192E-15
  -3.60200000      -1.11813482E-14
  -3.60100007      -1.37686908E-14
  -3.59999990      -1.62969749E-14
  -3.59899998      -1.87616155E-14
  -3.59800005      -2.11579750E-14
  -3.59699988      -2.34813660E-14
  -3.59599996      -2.57270520E-14
  -3.59500003      -2.78902505E-14
  -3.59400010      -2.99661453E-14
  -3.59299994      -3.19498727E-14
  -3.59200001      -3.38365437E-14
  -3.59100008      -3.56212388E-14
  -3.58999991      -3.72990179E-14
  -3.58899999      -3.88649108E-14
  -3.58800006      -4.03139436E-14
  -3.58699989      -4.16411290E-14
  -3.58599997      -4.28414662E-14
  -3.58500004      -4.39099610E-14
  -3.58400011      -4.48416227E-14
  -3.58299994      -4.56314640E-14
  -3.58200002      -4.62745178E-14
  -3.58100009      -4.67658376E-14
  -3.57999992      -4.71004935E-14
  -3.57900000      -4.72735966E-14
  -3.57800007      -4.72802949E-14
  -3.57699990      -4.71157706E-14
  -3.57599998      -4.67752634E-14
  -3.57500005      -4.62540603E-14
  -3.57399988      -4.55475230E-14
  -3.57299995      -4.46510640E-14
  -3.57200003      -4.35601804E-14
  -3.57100010      -4.22704474E-14
  -3.56999993      -4.07775315E-14
  -3.56900001      -3.90771874E-14
  -3.56800008      -3.71652748E-14
  -3.56699991      -3.50377618E-14
  -3.56599998      -3.26907250E-14
  -3.56500006      -3.01203730E-14
  -3.56399989      -2.73230365E-14
  -3.56299996      -2.42951868E-14
  -3.56200004      -2.10334391E-14
  -3.56100011      -1.75345561E-14
  -3.55999994      -1.37954630E-14
  -3.55900002      -9.81324854E-15
  -3.55800009      -5.58517728E-15
  -3.55699992      -1.10869349E-15
  -3.55599999       3.61856880E-15
  -3.55500007       8.59877948E-15
  -3.55399990       1.38339056E-14
  -3.55299997       1.93257004E-14
  -3.55200005       2.50757006E-14
  -3.55100012       3.10852113E-14
  -3.54999995       3.73553117E-14
  -3.54900002       4.38868336E-14
  -3.54800010       5.06803563E-14
  -3.54699993       5.77362051E-14
  -3.54600000       6.50544411E-14
  -3.54500008       7.26348506E-14
  -3.54399991       8.04769459E-14
  -3.54299998       8.85799409E-14
  -3.54200006       9.69427717E-14
  -3.54099989       1.05564063E-13
  -3.53999996       1.14442134E-13
  -3.53900003       1.23574992E-13
  -3.53800011       1.32960293E-13
  -3.53699994       1.42595408E-13
  -3.53600001       1.52477355E-13
  -3.53500009       1.62602787E-13
  -3.53399992       1.72968058E-13
  -3.53299999       1.83569116E-13
  -3.53200006       1.94401569E-13
  -3.53099990       2.05460662E-13
  -3.52999997       2.16741257E-13
  -3.52900004       2.28237839E-13
  -3.52800012       2.39944539E-13
  -3.52699995       2.51855042E-13
  -3.52600002       2.63962653E-13
  -3.52500010       2.76260351E-13
  -3.52399993       2.88740630E-13
  -3.52300000       3.01395573E-13
  -3.52200007       3.14216887E-13
  -3.52099991       3.27195871E-13
  -3.51999998       3.40323418E-13
  -3.51900005       3.53589933E-13
  -3.51799989       3.66985413E-13
  -3.51699996       3.80499478E-13
  -3.51600003       3.94121286E-13
  -3.51500010       4.07839561E-13
  -3.51399994       4.21642566E-13
  -3.51300001       4.35518185E-13
  -3.51200008       4.49453842E-13
  -3.51099992       4.63436527E-13
  -3.50999999       4.77452713E-13
  -3.50900006       4.91488577E-13
  -3.50799990       5.05529754E-13
  -3.50699997       5.19561499E-13
  -3.50600004       5.33568632E-13
  -3.50500011       5.47535433E-13
  -3.50399995       5.61445855E-13
  -3.50300002       5.75283419E-13
  -3.50200009       5.89031211E-13
  -3.50099993       6.02671884E-13
  -3.50000000       6.16187656E-13
  -3.49900007       6.29560314E-13
  -3.49799991       6.42771318E-13
  -3.49699998       6.55801585E-13
  -3.49600005       6.68631762E-13
  -3.49499989       6.81242064E-13
  -3.49399996       6.93612268E-13
  -3.49300003       7.05721831E-13
  -3.49200010       7.17549772E-13
  -3.49099994       7.29074787E-13
  -3.49000001       7.40275246E-13
  -3.48900008       7.51129085E-13
  -3.48799992       7.61614025E-13
  -3.48699999       7.71707351E-13
  -3.48600006       7.81386078E-13
  -3.48499990       7.90626841E-13
  -3.48399997       7.99406060E-13
  -3.48300004       8.07699881E-13
  -3.48200011       8.15484128E-13
  -3.48099995       8.22734350E-13
  -3.48000002       8.29425883E-13
  -3.47900009       8.35533899E-13
  -3.47799993       8.41033243E-13
  -3.47700000       8.45898601E-13
  -3.47600007       8.50104438E-13
  -3.47499990       8.53625168E-13
  -3.47399998       8.56434986E-13
  -3.47300005       8.58507818E-13
  -3.47199988       8.59817697E-13
  -3.47099996       8.60338439E-13
  -3.47000003       8.60043807E-13
  -3.46900010       8.58907509E-13
  -3.46799994       8.56903144E-13
  -3.46700001       8.54004421E-13
  -3.46600008       8.50184940E-13
  -3.46499991       8.45418408E-13
  -3.46399999       8.39678479E-13
  -3.46300006       8.32938915E-13
  -3.46199989       8.25173643E-13
  -3.46099997       8.16356585E-13
  -3.46000004       8.06461994E-13
  -3.45900011       7.95464064E-13
  -3.45799994       7.83337208E-13
  -3.45700002       7.70056219E-13
  -3.45600009       7.55595944E-13
  -3.45499992       7.39931662E-13
  -3.45400000       7.23038762E-13
  -3.45300007       7.04893121E-13
  -3.45199990       6.85470832E-13
  -3.45099998       6.64748475E-13
  -3.45000005       6.42702959E-13
  -3.44899988       6.19311622E-13
  -3.44799995       5.94552239E-13
  -3.44700003       5.68403180E-13
  -3.44600010       5.40843249E-13
  -3.44499993       5.11851846E-13
  -3.44400001       4.81408858E-13
  -3.44300008       4.49494879E-13
  -3.44199991       4.16091098E-13
  -3.44099998       3.81179409E-13
  -3.44000006       3.44742328E-13
  -3.43899989       3.06763187E-13
  -3.43799996       2.67226047E-13
  -3.43700004       2.26115757E-13
  -3.43600011       1.83418005E-13
  -3.43499994       1.39119334E-13
  -3.43400002       9.32071803E-14
  -3.43300009       4.56698888E-14
  -3.43199992      -3.50323256E-15
  -3.43099999      -5.43218933E-14
  -3.43000007      -1.06794781E-13
  -3.42899990      -1.60929538E-13
  -3.42799997      -2.16732719E-13
  -3.42700005      -2.74209746E-13
  -3.42600012      -3.33364982E-13
  -3.42499995      -3.94201490E-13
  -3.42400002      -4.56721195E-13
  -3.42300010      -5.20924829E-13
  -3.42199993      -5.86811741E-13
  -3.42100000      -6.54380033E-13
  -3.42000008      -7.23626562E-13
  -3.41899991      -7.94546666E-13
  -3.41799998      -8.67134381E-13
  -3.41700006      -9.41382280E-13
  -3.41599989      -1.01728164E-12
  -3.41499996      -1.09482204E-12
  -3.41400003      -1.17399178E-12
  -3.41300011      -1.25477732E-12
  -3.41199994      -1.33716378E-12
  -3.41100001      -1.42113469E-12
  -3.41000009      -1.50667196E-12
  -3.40899992      -1.59375573E-12
  -3.40799999      -1.68236464E-12
  -3.40700006      -1.77247561E-12
  -3.40599990      -1.86406359E-12
  -3.40499997      -1.95710223E-12
  -3.40400004      -2.05156291E-12
  -3.40300012      -2.14741593E-12
  -3.40199995      -2.24462896E-12
  -3.40100002      -2.34316884E-12
  -3.40000010      -2.44299958E-12
  -3.39899993      -2.54408365E-12
  -3.39800000      -2.64638203E-12
  -3.39700007      -2.74985330E-12
  -3.39599991      -2.85445430E-12
  -3.39499998      -2.96014038E-12
  -3.39400005      -3.06686425E-12
  -3.39299989      -3.17457735E-12
  -3.39199996      -3.28322851E-12
  -3.39100003      -3.39276480E-12
  -3.39000010      -3.50313181E-12
  -3.38899994      -3.61427251E-12
  -3.38800001      -3.72612835E-12
  -3.38700008      -3.83863817E-12
  -3.38599992      -3.95173998E-12
  -3.38499999      -4.06536827E-12
  -3.38400006      -4.17945626E-12
  -3.38299990      -4.29393587E-12
  -3.38199997      -4.40873640E-12
  -3.38100004      -4.52378456E-12
  -3.38000011      -4.63900576E-12
  -3.37899995      -4.75432324E-12
  -3.37800002      -4.86965850E-12
  -3.37700009      -4.98493087E-12
  -3.37599993      -5.10005753E-12
  -3.37500000      -5.21495477E-12
  -3.37400007      -5.32953542E-12
  -3.37299991      -5.44371102E-12
  -3.37199998      -5.55739179E-12
  -3.37100005      -5.67048535E-12
  -3.36999989      -5.78289760E-12
  -3.36899996      -5.89453269E-12
  -3.36800003      -6.00529348E-12
  -3.36700010      -6.11508023E-12
  -3.36599994      -6.22379188E-12
  -3.36500001      -6.33132565E-12
  -3.36400008      -6.43757660E-12
  -3.36299992      -6.54243890E-12
  -3.36199999      -6.64580500E-12
  -3.36100006      -6.74756475E-12
  -3.35999990      -6.84760798E-12
  -3.35899997      -6.94582152E-12
  -3.35800004      -7.04209174E-12
  -3.35700011      -7.13630370E-12
  -3.35599995      -7.22833989E-12
  -3.35500002      -7.31808277E-12
  -3.35400009      -7.40541222E-12
  -3.35299993      -7.49020897E-12
  -3.35200000      -7.57234987E-12
  -3.35100007      -7.65171433E-12
  -3.34999990      -7.72817574E-12
  -3.34899998      -7.80161092E-12
  -3.34800005      -7.87189411E-12
  -3.34699988      -7.93889867E-12
  -3.34599996      -8.00249624E-12
  -3.34500003      -8.06255843E-12
  -3.34400010      -8.11895776E-12
  -3.34299994      -8.17156325E-12
  -3.34200001      -8.22024566E-12
  -3.34100008      -8.26487403E-12
  -3.33999991      -8.30531824E-12
  -3.33899999      -8.34144646E-12
  -3.33800006      -8.37312771E-12
  -3.33699989      -8.40023103E-12
  -3.33599997      -8.42262458E-12
  -3.33500004      -8.44017564E-12
  -3.33400011      -8.45275412E-12
  -3.33299994      -8.46022905E-12
  -3.33200002      -8.46246771E-12
  -3.33100009      -8.45934087E-12
  -3.32999992      -8.45071842E-12
  -3.32900000      -8.43647027E-12
  -3.32800007      -8.41646891E-12
  -3.32699990      -8.39058510E-12
  -3.32599998      -8.35869221E-12
  -3.32500005      -8.32066360E-12
  -3.32399988      -8.27637438E-12
  -3.32299995      -8.22570137E-12
  -3.32200003      -8.16852055E-12
  -3.32100010      -8.10471135E-12
  -3.31999993      -8.03415320E-12
  -3.31900001      -7.95672903E-12
  -3.31800008      -7.87232085E-12
  -3.31699991      -7.78081419E-12
  -3.31599998      -7.68209715E-12
  -3.31500006      -7.57605870E-12
  -3.31399989      -7.46259044E-12
  -3.31299996      -7.34158567E-12
  -3.31200004      -7.21294031E-12
  -3.31100011      -7.07655332E-12
  -3.30999994      -6.93232537E-12
  -3.30900002      -6.78016063E-12
  -3.30800009      -6.61996586E-12
  -3.30699992      -6.45165041E-12
  -3.30599999      -6.27512669E-12
  -3.30500007      -6.09031098E-12
  -3.30399990      -5.89712263E-12
  -3.30299997      -5.69548445E-12
  -3.30200005      -5.48532227E-12
  -3.30100012      -5.26656583E-12
  -3.29999995      -5.03914879E-12
  -3.29900002      -4.80300869E-12
  -3.29800010      -4.55808741E-12
  -3.29699993      -4.30433033E-12
  -3.29600000      -4.04168712E-12
  -3.29500008      -3.77011269E-12
  -3.29399991      -3.48956541E-12
  -3.29299998      -3.20000905E-12
  -3.29200006      -2.90141132E-12
  -3.29099989      -2.59374531E-12
  -3.28999996      -2.27698893E-12
  -3.28900003      -1.95112481E-12
  -3.28800011      -1.61614136E-12
  -3.28699994      -1.27203174E-12
  -3.28600001      -9.18794771E-13
  -3.28500009      -5.56434673E-13
  -3.28399992      -1.84961259E-13
  -3.28299999       1.95609967E-13
  -3.28200006       5.85257645E-13
  -3.28099990       9.83954563E-13
  -3.27999997       1.39166749E-12
  -3.27900004       1.80835717E-12
  -3.27800012       2.23397798E-12
  -3.27699995       2.66847807E-12
  -3.27600002       3.11179945E-12
  -3.27500010       3.56387727E-12
  -3.27399993       4.02464043E-12
  -3.27300000       4.49401107E-12
  -3.27200007       4.97190440E-12
  -3.27099991       5.45822935E-12
  -3.26999998       5.95288749E-12
  -3.26900005       6.45577342E-12
  -3.26799989       6.96677525E-12
  -3.26699996       7.48577415E-12
  -3.26600003       8.01264263E-12
  -3.26500010       8.54724711E-12
  -3.26399994       9.08944621E-12
  -3.26300001       9.63909334E-12
  -3.26200008       1.01960315E-11
  -3.26099992       1.07600977E-11
  -3.25999999       1.13311218E-11
  -3.25900006       1.19089252E-11
  -3.25799990       1.24933232E-11
  -3.25699997       1.30841223E-11
  -3.25600004       1.36811213E-11
  -3.25500011       1.42841121E-11
  -3.25399995       1.48928786E-11
  -3.25300002       1.55071962E-11
  -3.25200009       1.61268360E-11
  -3.25099993       1.67515567E-11
  -3.25000000       1.73811104E-11
  -3.24900007       1.80152455E-11
  -3.24799991       1.86536984E-11
  -3.24699998       1.92962001E-11
  -3.24600005       1.99424713E-11
  -3.24499989       2.05922293E-11
  -3.24399996       2.12451792E-11
  -3.24300003       2.19010227E-11
  -3.24200010       2.25594491E-11
  -3.24099994       2.32201463E-11
  -3.24000001       2.38827898E-11
  -3.23900008       2.45470502E-11
  -3.23799992       2.52125890E-11
  -3.23699999       2.58790610E-11
  -3.23600006       2.65461160E-11
  -3.23499990       2.72133930E-11
  -3.23399997       2.78805277E-11
  -3.23300004       2.85471456E-11
  -3.23200011       2.92128682E-11
  -3.23099995       2.98773055E-11
  -3.23000002       3.05400635E-11
  -3.22900009       3.12007468E-11
  -3.22799993       3.18589460E-11
  -3.22700000       3.25142482E-11
  -3.22600007       3.31662336E-11
  -3.22499990       3.38144790E-11
  -3.22399998       3.44585506E-11
  -3.22300005       3.50980148E-11
  -3.22199988       3.57324240E-11
  -3.22099996       3.63613306E-11
  -3.22000003       3.69842837E-11
  -3.21900010       3.76008218E-11
  -3.21799994       3.82104834E-11
  -3.21700001       3.88127967E-11
  -3.21600008       3.94072899E-11
  -3.21499991       3.99934842E-11
  -3.21399999       4.05709008E-11
  -3.21300006       4.11390470E-11
  -3.21199989       4.16974372E-11
  -3.21099997       4.22455751E-11
  -3.21000004       4.27829612E-11
  -3.20900011       4.33090994E-11
  -3.20799994       4.38234830E-11
  -3.20700002       4.43256057E-11
  -3.20600009       4.48149608E-11
  -3.20499992       4.52910313E-11
  -3.20400000       4.57533074E-11
  -3.20300007       4.62012754E-11
  -3.20199990       4.66344151E-11
  -3.20099998       4.70522128E-11
  -3.20000005       4.74541448E-11
  -3.19899988       4.78396905E-11
  -3.19799995       4.82083332E-11
  -3.19700003       4.85595487E-11
  -3.19600010       4.88928203E-11
  -3.19499993       4.92076241E-11
  -3.19400001       4.95034430E-11
  -3.19300008       4.97797567E-11
  -3.19199991       5.00360517E-11
  -3.19099998       5.02718076E-11
  -3.19000006       5.04865108E-11
  -3.18899989       5.06796549E-11
  -3.18799996       5.08507264E-11
  -3.18700004       5.09992222E-11
  -3.18600011       5.11246392E-11
  -3.18499994       5.12264779E-11
  -3.18400002       5.13042456E-11
  -3.18300009       5.13574461E-11
  -3.18199992       5.13855972E-11
  -3.18099999       5.13882131E-11
  -3.18000007       5.13648256E-11
  -3.17899990       5.13149558E-11
  -3.17799997       5.12381422E-11
  -3.17700005       5.11339270E-11
  -3.17600012       5.10018590E-11
  -3.17499995       5.08414942E-11
  -3.17400002       5.06523955E-11
  -3.17300010       5.04341326E-11
  -3.17199993       5.01862822E-11
  -3.17100000       4.99084350E-11
  -3.17000008       4.96001885E-11
  -3.16899991       4.92611438E-11
  -3.16799998       4.88909156E-11
  -3.16700006       4.84891328E-11
  -3.16599989       4.80554312E-11
  -3.16499996       4.75894532E-11
  -3.16400003       4.70908555E-11
  -3.16300011       4.65593120E-11
  -3.16199994       4.59944999E-11
  -3.16100001       4.53961105E-11
  -3.16000009       4.47638523E-11
  -3.15899992       4.40974410E-11
  -3.15799999       4.33966092E-11
  -3.15700006       4.26611038E-11
  -3.15599990       4.18906784E-11
  -3.15499997       4.10851110E-11
  -3.15400004       4.02441899E-11
  -3.15300012       3.93677139E-11
  -3.15199995       3.84555027E-11
  -3.15100002       3.75073930E-11
  -3.15000010       3.65232358E-11
  -3.14899993       3.55028992E-11
  -3.14800000       3.44462618E-11
  -3.14700007       3.33532264E-11
  -3.14599991       3.22237133E-11
  -3.14499998       3.10576530E-11
  -3.14400005       2.98550039E-11