 -0.449999988       0.00000000    
 -0.446999997       0.00000000    
 -0.444000006       0.00000000    
 -0.441000015       0.00000000    
 -0.437999994       0.00000000    
 -0.435000002       0.00000000    
 -0.432000011       0.00000000    
 -0.428999990      -5.88704275E-26
 -0.425999999      -2.94475588E-25
 -0.423000008      -1.38520563E-24
 -0.419999987      -4.31822499E-24
 -0.416999996       8.98812141E-25
 -0.414000005       4.78723806E-23
 -0.411000013       1.22026899E-22
 -0.407999992      -1.66167349E-23
 -0.405000001      -6.99950298E-22
 -0.402000010      -1.34753699E-21
 -0.398999989       4.05853259E-22
 -0.395999998       6.16243700E-21
 -0.393000007       9.95875778E-21
 -0.389999986      -3.45233926E-21
 -0.386999995      -3.98620050E-20
 -0.384000003      -6.14676362E-20
 -0.381000012       1.26222987E-20
 -0.377999991       2.09705097E-19
 -0.375000000       3.47339938E-19
 -0.372000009       3.41301474E-20
 -0.368999988      -9.18441795E-19
 -0.365999997      -1.80047441E-18
 -0.363000005      -8.63168087E-19
 -0.360000014       3.18032024E-18
 -0.356999993       8.21540564E-18
 -0.354000002       7.27317910E-18
 -0.351000011      -6.98392810E-18
 -0.347999990      -3.10779267E-17
 -0.344999999      -4.16166444E-17
 -0.342000008      -4.69013144E-18
 -0.338999987       8.78625953E-17
 -0.335999995       1.76150454E-16
 -0.333000004       1.35763725E-16
 -0.330000013      -1.29264930E-16
 -0.326999992      -5.34414845E-16
 -0.324000001      -7.36659525E-16
 -0.321000010      -2.91071967E-16
 -0.317999989       9.37548794E-16
 -0.314999998       2.35639886E-15
 -0.312000006       2.65572019E-15
 -0.308999985       5.45386304E-16
 -0.305999994      -3.99540063E-15
 -0.303000003      -8.75369672E-15
 -0.300000012      -9.59839694E-15
 -0.296999991      -2.58831923E-15
 -0.294000000       1.26535109E-14
 -0.291000009       2.99812123E-14
 -0.287999988       3.66178476E-14
 -0.284999996       1.81191308E-14
 -0.282000005      -3.12632542E-14
 -0.279000014      -9.65164499E-14
 -0.275999993      -1.36806853E-13
 -0.273000002      -9.81757739E-14
 -0.270000011       5.16289011E-14
 -0.266999990       2.78458002E-13
 -0.263999999       4.58832137E-13
 -0.261000007       4.15429572E-13
 -0.257999986       2.25508241E-14
 -0.254999995      -6.59513243E-13
 -0.252000004      -1.31230259E-12
 -0.248999998      -1.44264863E-12
 -0.246000007      -6.43196596E-13
 -0.243000001       1.07188152E-12
 -0.239999995       3.05891033E-12
 -0.237000003       4.16362127E-12
 -0.233999997       3.22535249E-12
 -0.231000006      -1.99718117E-13
 -0.228000000      -5.25321366E-12
 -0.224999994      -9.72154735E-12
 -0.222000003      -1.07399359E-11
 -0.218999997      -6.14066263E-12
 -0.216000006       4.05006974E-12
 -0.213000000       1.67204167E-11
 -0.209999993       2.61016937E-11
 -0.207000002       2.57981917E-11
 -0.203999996       1.19336459E-11
 -0.201000005      -1.38672919E-11
 -0.197999999      -4.33129088E-11
 -0.194999993      -6.33002123E-11
 -0.192000002      -6.07427789E-11
 -0.188999996      -2.87714279E-11
 -0.186000004       2.83101667E-11
 -0.182999998       9.37916897E-11
 -0.180000007       1.42220402E-10
 -0.177000001       1.47322377E-10
 -0.173999995       9.20273718E-11
 -0.171000004      -2.23242917E-11
 -0.167999998      -1.70645831E-10
 -0.165000007      -3.05445697E-10
 -0.162000000      -3.66878916E-10
 -0.158999994      -3.01607905E-10
 -0.156000003      -8.70528025E-11
 -0.152999997       2.46776127E-10
 -0.150000006       6.08711470E-10
 -0.147000000       8.60899407E-10
 -0.143999994       8.59334270E-10
 -0.141000003       5.12310416E-10
 -0.137999997      -1.62754241E-10
 -0.135000005      -1.00963526E-09
 -0.131999999      -1.75228054E-09
 -0.128999993      -2.06906714E-09
 -0.126000002      -1.70697345E-09
 -0.123000003      -5.99305161E-10
 -0.119999997       1.05976727E-09
 -0.116999999       2.82327961E-09
 -0.114000000       4.09603640E-09
 -0.111000001       4.31383507E-09
 -0.108000003       3.14374971E-09
 -0.104999997       6.38130271E-10
 -0.101999998      -2.71416023E-09
  -9.89999995E-02  -6.06455508E-09
  -9.60000008E-02  -8.39644976E-09
  -9.30000022E-02  -8.78686368E-09
  -9.00000036E-02  -6.67659306E-09
  -8.69999975E-02  -2.08564765E-09
  -8.39999989E-02   4.28080371E-09
  -8.10000002E-02   1.10760290E-08
  -7.80000016E-02   1.65235949E-08
  -7.50000030E-02   1.87858245E-08
  -7.19999969E-02   1.64374505E-08
  -6.89999983E-02   8.94973962E-09
  -6.59999996E-02  -2.94372282E-09
  -6.30000010E-02  -1.71365464E-08
  -5.99999987E-02  -3.03971106E-08
  -5.70000000E-02  -3.89939174E-08
  -5.40000014E-02  -3.95992537E-08
  -5.09999990E-02  -3.02545224E-08
  -4.80000004E-02  -1.11189848E-08
  -4.50000018E-02   1.52397419E-08
  -4.19999994E-02   4.41205010E-08
  -3.90000008E-02   6.94610378E-08
  -3.59999985E-02   8.49124504E-08
  -3.29999998E-02   8.50000887E-08
  -2.99999993E-02   6.62289494E-08
  -2.70000007E-02   2.80709180E-08
  -2.40000002E-02  -2.62385313E-08
  -2.09999997E-02  -8.92836027E-08
  -1.79999992E-02  -1.49753248E-07
  -1.49999997E-02  -1.93747894E-07
  -1.20000001E-02  -2.07200500E-07
  -8.99999961E-03  -1.79103196E-07
  -6.00000005E-03  -1.04836559E-07
  -3.00000003E-03   1.12906742E-08
   5.55111512E-17   1.55073096E-07
   3.00000003E-03   3.03442931E-07
   6.00000005E-03   4.27496076E-07
   8.99999961E-03   4.97100643E-07
   1.20000001E-02   4.86389240E-07
   1.49999997E-02   3.79268556E-07
   1.79999992E-02   1.74039457E-07
   2.09999997E-02  -1.13686475E-07
   2.40000002E-02  -4.50385528E-07
   2.70000007E-02  -7.86721216E-07
   2.99999993E-02  -1.06253606E-06
   3.29999998E-02  -1.21470896E-06
   3.59999985E-02  -1.18742935E-06
   3.90000008E-02  -9.43673911E-07
   4.19999994E-02  -4.75764551E-07
   4.50000018E-02   1.87659495E-07
   4.80000004E-02   9.80475875E-07
   5.09999990E-02   1.80441259E-06
   5.40000014E-02   2.53962276E-06
   5.70000000E-02   3.05804383E-06
   5.99999987E-02   3.23742688E-06
   6.30000010E-02   2.97550309E-06
   6.59999996E-02   2.20508991E-06
   6.89999983E-02   9.10598430E-07
   7.19999969E-02  -8.55889368E-07
   7.50000030E-02  -2.96343774E-06
   7.80000016E-02  -5.20105004E-06
   8.10000002E-02  -7.28879286E-06
   8.39999989E-02  -8.89867806E-06
   8.69999975E-02  -9.67855885E-06
   9.00000036E-02  -9.27160454E-06
   9.30000022E-02  -7.32692661E-06
   9.60000008E-02  -3.50108303E-06
   9.89999995E-02   2.54794804E-06
  0.101999998       1.11747941E-05
  0.104999997       2.27735163E-05
  0.108000003       3.78255136E-05
  0.111000001       5.69760850E-05
  0.114000000       8.11431164E-05
  0.116999999       1.11656540E-04
  0.119999997       1.50426160E-04
  0.123000003       2.00138820E-04
  0.126000002       2.64491944E-04
  0.128999993       3.48477974E-04
  0.131999999       4.58738214E-04
  0.135000005       6.04009721E-04
  0.137999997       7.95694417E-04
  0.141000003       1.04859180E-03
  0.143999994       1.38184149E-03
  0.147000000       1.82013190E-03
  0.150000006       2.39523593E-03
  0.152999997       3.14794946E-03
  0.156000003       4.13052225E-03
  0.158999994       5.40971011E-03
  0.162000000       7.07058609E-03
  0.165000007       9.22133122E-03
  0.167999998       1.19992187E-02
  0.171000004       1.55780707E-02
  0.173999995       2.01774631E-02
  0.177000001       2.60739606E-02
  0.180000007       3.36148106E-02
  0.182999998       4.32346985E-02
  0.186000004       5.54762594E-02
  0.188999996       7.10151941E-02
  0.192000002       9.06906128E-02
  0.194999993      0.115541697    
  0.197999999      0.146851823    
  0.201000005      0.186201259    
  0.203999996      0.235530034    
  0.207000002      0.297212929    
  0.209999993      0.374148309    
  0.213000000      0.469863474    
  0.216000006      0.588637829    
  0.218999997      0.735648155    
  0.222000003      0.917138398    
  0.224999994       1.14061701    
  0.228000000       1.41508484    
  0.231000006       1.75129843    
  0.233999997       2.16207194    
  0.237000003       2.66262078    
  0.239999995       3.27095580    
  0.243000001       4.00832653    
  0.246000007       4.89972162    
  0.248999998       5.97442865    
  0.252000004       7.26665068    
  0.254999995       8.81619740    
  0.257999986       10.6692381    
  0.261000007       12.8791304    
  0.263999999       15.5073252    
  0.266999990       18.6243286    
  0.270000011       22.3107147    
  0.273000002       26.6581860    
  0.275999993       31.7707100    
  0.279000014       37.7656555    
  0.282000005       44.7749557    
  0.284999996       52.9462967    
  0.287999988       62.4442596    
  0.291000009       73.4513626    
  0.294000000       86.1689987    
  0.296999991       100.818230    
  0.300000012       117.640411    
  0.303000003       136.897537    
  0.305999994       158.872269    
  0.308999985       183.867554    
  0.312000006       212.205887    
  0.314999998       244.227936    
  0.317999989       280.290619    
  0.321000010       320.764465    
  0.324000001       366.030090    
  0.326999992       416.473755    
  0.330000013       472.482544    
  0.333000004       534.437561    
  0.335999995       602.707092    
  0.338999987       677.637207    
  0.342000008       759.543396    
  0.344999999       848.699280    
  0.347999990       945.324280    
  0.351000011       1049.57092    
  0.354000002       1161.51123    
  0.356999993       1281.12146    
  0.360000014       1408.26599    
  0.363000005       1542.68225    
  0.365999997       1683.96265    
  0.368999988       1831.54016    
  0.372000009       1984.67163    
  0.375000000       2142.42188    
  0.377999991       2303.65039    
  0.381000012       2466.99902    
  0.384000003       2630.88184    
  0.386999995       2793.47754    
  0.389999986       2952.72461    
  0.393000007       3106.32275    
  0.395999998       3251.73584    
  0.398999989       3386.20166    
  0.402000010       3506.74756    
  0.405000001       3610.20825    
  0.407999992       3693.25317    
  0.411000013       3752.41675    
  0.414000005       3784.14014    
  0.416999996       3784.81982    
  0.419999987       3750.85962    
  0.423000008       3678.72729    
  0.425999999       3565.01709    
  0.428999990       3406.51733    
  0.432000011       3200.28247    
  0.435000002       2943.71313    
  0.437999994       2634.63867    
  0.441000015       2271.39209    
  0.444000006       1852.88232    
  0.446999997       1378.66565    
  0.449999988       849.020264    
  0.453000009       265.014221    
  0.456000000      -371.441986    
  0.458999991      -1057.55432    
  0.462000012      -1789.61462    
  0.465000004      -2562.97925    
  0.467999995      -3372.06567    
  0.470999986      -4210.36475    
  0.474000007      -5070.47314    
  0.476999998      -5944.13867    
  0.479999989      -6822.33594    
  0.483000010      -7695.35596    
  0.486000001      -8552.90723    
  0.488999993      -9384.23242    
  0.492000014      -10178.2568    
  0.495000005      -10923.7422    
  0.497999996      -11609.4512    
  0.500999987      -12224.3320    
  0.504000008      -12757.6914    
  0.507000029      -13199.3936    
  0.509999990      -13540.0352    
  0.513000011      -13771.1289    
  0.515999973      -13885.2881    
  0.518999994      -13876.3994    
  0.522000015      -13739.7598    
  0.524999976      -13472.2070    
  0.527999997      -13072.2197    
  0.531000018      -12540.0156    
  0.533999979      -11877.6084    
  0.537000000      -11088.8174    
  0.540000021      -10179.2734    
  0.542999983      -9156.38086    
  0.546000004      -8029.24365    
  0.549000025      -6808.55420    
  0.551999986      -5506.46680    
  0.555000007      -4136.44336    
  0.558000028      -2713.06836    
  0.560999990      -1251.81958    
  0.564000010       231.166245    
  0.566999972       1719.33154    
  0.569999993       3195.93726    
  0.573000014       4644.31494    
  0.575999975       6048.13428    
  0.578999996       7391.66748    
  0.582000017       8660.04883    
  0.584999979       9839.48926    
  0.588000000       10917.4824    
  0.591000021       11882.9707    
  0.593999982       12726.5078    
  0.597000003       13440.4150    
  0.600000024       14018.8877    
  0.602999985       14458.0352    
  0.606000006       14755.8867    
  0.609000027       14912.3848    
  0.611999989       14929.3643    
  0.615000010       14810.4941    
  0.617999971       14561.1631    
  0.620999992       14188.3271    
  0.624000013       13700.3506    
  0.626999974       13106.8311    
  0.629999995       12418.4209    
  0.633000016       11646.6270    
  0.635999978       10803.5859    
  0.638999999       9901.83203    
  0.642000020       8954.08789    
  0.644999981       7973.05762    
  0.648000002       6971.25391    
  0.651000023       5960.79834    
  0.653999984       4953.23486    
  0.657000005       3959.36816    
  0.660000026       2989.15283    
  0.662999988       2051.60083    
  0.666000009       1154.69116    
  0.669000030       305.296356    
  0.671999991      -490.852325    
  0.675000012      -1229.15991    
  0.677999973      -1906.14795    
  0.680999994      -2519.42896    
  0.684000015      -3067.66431    
  0.686999977      -3550.51050    
  0.689999998      -3968.54199    
  0.693000019      -4323.15674    
  0.695999980      -4616.45312    
  0.699000001      -4851.11133    
  0.702000022      -5030.30029    
  0.704999983      -5157.59814    
  0.708000004      -5236.89795    
  0.711000025      -5272.29102    
  0.713999987      -5267.95801    
  0.717000008      -5228.07861    
  0.720000029      -5156.76025    
  0.722999990      -5057.97412    
  0.726000011      -4935.50391    
  0.728999972      -4792.90869    
  0.731999993      -4633.48926    
  0.735000014      -4460.25781    
  0.737999976      -4275.92285    
  0.740999997      -4082.87939    
  0.744000018      -3883.21997    
  0.746999979      -3678.74902    
  0.750000000      -3470.99829    
  0.753000021      -3261.24658    
  0.755999982      -3050.55054    
  0.759000003      -2839.77466    
  0.762000024      -2629.62329    
  0.764999986      -2420.67310    
  0.768000007      -2213.40601    
  0.771000028      -2008.22766    
  0.773999989      -1805.47949    
  0.777000010      -1605.46240    
  0.779999971      -1408.46973    
  0.782999992      -1214.81250    
  0.786000013      -1024.82703    
  0.788999975      -838.875854    
  0.791999996      -657.355835    
  0.795000017      -480.697815    
  0.797999978      -309.353516    
  0.800999999      -143.783493    
  0.804000020       15.5404539    
  0.806999981       168.130142    
  0.810000002       313.484650    
  0.813000023       451.100037    
  0.815999985       580.486572    
  0.819000006       701.197388    
  0.822000027       812.855408    
  0.824999988       915.154541    
  0.828000009       1007.83459    
  0.830999970       1090.66638    
  0.833999991       1163.46777    
  0.837000012       1226.13635    
  0.839999974       1278.66541    
  0.842999995       1321.13806    
  0.846000016       1353.70703    
  0.848999977       1376.57678    
  0.851999998       1389.99915    
  0.855000019       1394.27747    
  0.857999980       1389.77344    
  0.861000001       1376.90125    
  0.864000022       1356.11060    
  0.866999984       1327.87769    
  0.870000005       1292.70081    
  0.873000026       1251.09631    
  0.875999987       1203.58313    
  0.879000008       1150.66760    
  0.882000029       1092.84436    
  0.884999990       1030.61206    
  0.888000011       964.484741    
  0.890999973       894.978943    
  0.893999994       822.581238    
  0.897000015       747.728455    
  0.899999976       670.821350    
  0.902999997       592.260742    
  0.906000018       512.470764    
  0.908999979       431.886353    
  0.912000000       350.914215    
  0.915000021       269.906921    
  0.917999983       189.179581    
  0.921000004       109.056305    
  0.924000025       29.8996983    
  0.926999986      -47.9058037    
  0.930000007      -123.996101    
  0.933000028      -198.051270    
  0.935999990      -269.780731    
  0.939000010      -338.887878    
  0.941999972      -405.046814    
  0.944999993      -467.909668    
  0.948000014      -527.138367    
  0.950999975      -582.435120    
  0.953999996      -633.546875    
  0.957000017      -680.243103    
  0.959999979      -722.290527    
  0.963000000      -759.450928    
  0.966000021      -791.501038    
  0.968999982      -818.255859    
  0.972000003      -839.581238    
  0.975000024      -855.393921    
  0.977999985      -865.656311    
  0.981000006      -870.366333    
  0.984000027      -869.543884    
  0.986999989      -863.226135    
  0.990000010      -851.485229    
  0.992999971      -834.455688    
  0.995999992      -812.344604    
  0.999000013      -785.412842    
   1.00199997      -753.947876    
   1.00500000      -718.250793    
   1.00800002      -678.642273    
   1.01100004      -635.471924    
   1.01400006      -589.121155    
   1.01699996      -539.994690    
   1.01999998      -488.509003    
   1.02300000      -435.090118    
   1.02600002      -380.180145    
   1.02900004      -324.233765    
   1.03199995      -267.692963    
   1.03499997      -210.961594    
   1.03799999      -154.408951    
   1.04100001      -98.3936691    
   1.04400003      -43.2744789    
   1.04700005       10.6054783    
   1.04999995       62.9393005    
   1.05299997       113.461197    
   1.05599999       161.937790    
   1.05900002       208.160553    
   1.06200004       251.949448    
   1.06500006       293.167480    
   1.06799996       331.729828    
   1.07099998       367.590363    
   1.07400000       400.710815    
   1.07700002       431.044647    
   1.08000004       458.554016    
   1.08299994       483.238464    
   1.08599997       505.142700    
   1.08899999       524.336853    
   1.09200001       540.892029    
   1.09500003       554.871399    
   1.09800005       566.334595    
   1.10099995       575.342224    
   1.10399997       581.951111    
   1.10699999       586.204712    
   1.11000001       588.135803    
   1.11300004       587.783997    
   1.11600006       585.204468    
   1.11899996       580.446228    
   1.12199998       573.518616    
   1.12500000       564.385925    
   1.12800002       553.002441    
   1.13100004       539.350464    
   1.13399994       523.440674    
   1.13699996       505.273682    
   1.13999999       484.807617    
   1.14300001       461.965820    
   1.14600003       436.680267    
   1.14900005       408.930206    
   1.15199995       378.741547    
   1.15499997       346.151031    
   1.15799999       311.173645    
   1.16100001       273.809052    
   1.16400003       234.083115    
   1.16700006       192.082352    
   1.16999996       147.950089    
   1.17299998       101.856842    
   1.17600000       53.9840240    
   1.17900002       4.53641319    
   1.18200004      -46.2381363    
   1.18499994      -98.0440445    
   1.18799996      -150.544388    
   1.19099998      -203.364883    
   1.19400001      -256.097717    
   1.19700003      -308.314087    
   1.20000005      -359.578766    
   1.20299995      -409.448364    
   1.20599997      -457.452362    
   1.20899999      -503.079071    
   1.21200001      -545.789246    
   1.21500003      -585.055786    
   1.21800005      -620.403809    
   1.22099996      -651.421326    
   1.22399998      -677.731689    
   1.22700000      -698.954651    
   1.23000002      -714.700989    
   1.23300004      -724.616638    
   1.23599994      -728.440491    
   1.23899996      -726.022827    
   1.24199998      -717.293518    
   1.24500000      -702.224915    
   1.24800003      -680.832520    
   1.25100005      -653.204407    
   1.25399995      -619.524719    
   1.25699997      -580.072388    
   1.25999999      -535.206848    
   1.26300001      -485.352295    
   1.26600003      -430.987427    
   1.26900005      -372.644745    
   1.27199996      -310.913696    
   1.27499998      -246.436600    
   1.27800000      -179.894775    
   1.28100002      -112.002380    
   1.28400004      -43.5087242    
   1.28699994       24.8133564    
   1.28999996       92.2030640    
   1.29299998       157.940750    
   1.29600000       221.340424    
   1.29900002       281.723816    
   1.30200005       338.419800    
   1.30499995       390.797882    
   1.30799997       438.302856    
   1.31099999       480.462982    
   1.31400001       516.877441    
   1.31700003       547.205322    
   1.32000005       571.168823    
   1.32299995       588.569336    
   1.32599998       599.303101    
   1.32900000       603.362244    
   1.33200002       600.821045    
   1.33500004       591.821533    
   1.33800006       576.572693    
   1.34099996       555.359436    
   1.34399998       528.543884    
   1.34700000       496.551605    
   1.35000002       459.856140    
   1.35300004       418.979065    
   1.35599995       374.499237    
   1.35899997       327.044678    
   1.36199999       277.259094    
   1.36500001       225.769623    
   1.36800003       173.187668    
   1.37100005       120.135002    
   1.37399995       67.2629623    
   1.37699997       15.2410154    
   1.38000000      -35.2822304    
   1.38300002      -83.7240906    
   1.38600004      -129.587341    
   1.38900006      -172.433395    
   1.39199996      -211.834213    
   1.39499998      -247.359741    
   1.39800000      -278.622498    
   1.40100002      -305.330536    
   1.40400004      -327.294586    
   1.40699995      -344.394867    
   1.40999997      -356.551178    
   1.41299999      -363.716309    
   1.41600001      -365.886719    
   1.41900003      -363.124268    
   1.42200005      -355.576447    
   1.42499995      -343.472076    
   1.42799997      -327.086395    
   1.43099999      -306.710724    
   1.43400002      -282.657471    
   1.43700004      -255.282074    
   1.44000006      -224.988251    
   1.44299996      -192.213272    
   1.44599998      -157.413498    
   1.44900000      -121.056351    
   1.45200002      -83.6103745    
   1.45500004      -45.5377121    
   1.45799994      -7.29742098    
   1.46099997       30.6498356    
   1.46399999       67.8518829    
   1.46700001       103.883881    
   1.47000003       138.355759    
   1.47300005       170.905624    
   1.47599995       201.196533    
   1.47899997       228.925552    
   1.48199999       253.835007    
   1.48500001       275.716278    
   1.48800004       294.407013    
   1.49100006       309.786011    
   1.49399996       321.766754    
   1.49699998       330.297638    
   1.50000000       335.375732    
   1.50300002       337.061127    
   1.50600004       335.471436    
   1.50899994       330.753265    
   1.51199996       323.059540    
   1.51499999       312.554657    
   1.51800001       299.436584    
   1.52100003       283.950073    
   1.52400005       266.378387    
   1.52699995       247.022964    
   1.52999997       226.182831    
   1.53299999       204.142563    
   1.53600001       181.173904    
   1.53900003       157.547180    
   1.54200006       133.540054    
   1.54499996       109.434425    
   1.54799998       85.5040665    
   1.55100000       62.0006523    
   1.55400002       39.1432610    
   1.55700004       17.1155529    
   1.55999994      -3.92515588    
   1.56299996      -23.8309402    
   1.56599998      -42.4542847    
   1.56900001      -59.6616554    
   1.57200003      -75.3635330    
   1.57500005      -89.5323563    
   1.57799995      -102.184097    
   1.58099997      -113.333267    
   1.58399999      -122.963699    
   1.58700001      -131.048065    
   1.59000003      -137.600098    
   1.59300005      -142.706467    
   1.59599996      -146.503525    
   1.59899998      -149.120422    
   1.60200000      -150.643600    
   1.60500002      -151.133224    
   1.60800004      -150.666489    
   1.61099994      -149.359558    
   1.61399996      -147.349274    
   1.61699998      -144.761993    
   1.62000000      -141.702652    
   1.62300003      -138.266281    
   1.62600005      -134.549179    
   1.62899995      -130.647141    
   1.63199997      -126.647133    
   1.63499999      -122.622932    
   1.63800001      -118.636162    
   1.64100003      -114.739899    
   1.64400005      -110.979912    
   1.64699996      -107.390541    
   1.64999998      -103.989983    
   1.65300000      -100.785049    
   1.65600002      -97.7833099    
   1.65900004      -94.9952469    
   1.66199994      -92.4186020    
   1.66499996      -90.0238266    
   1.66799998      -87.7626495    
   1.67100000      -85.5920715    
   1.67400002      -83.4851761    
   1.67700005      -81.4177399    
   1.67999995      -79.3512421    
   1.68299997      -77.2353210    
   1.68599999      -75.0265121    
   1.68900001      -72.7003326    
   1.69200003      -70.2425003    
   1.69500005      -67.6291122    
   1.69799995      -64.8190308    
   1.70099998      -61.7706680    
   1.70400000      -58.4686699    
   1.70700002      -54.9314804    
   1.71000004      -51.1879921    
   1.71300006      -47.2484398    
   1.71599996      -43.1054649    
   1.71899998      -38.7648277    
   1.72200000      -34.2648849    
   1.72500002      -29.6578636    
   1.72800004      -24.9787273    
   1.73099995      -20.2436409    
   1.73399997      -15.4756660    
   1.73699999      -10.7181749    
   1.74000001      -6.01992083    
   1.74300003      -1.41785681    
   1.74600005       3.05920482    
   1.74899995       7.37780857    
   1.75199997       11.4996929    
   1.75500000       15.3949280    
   1.75800002       19.0537205    
   1.76100004       22.4851418    
   1.76400006       25.6992302    
   1.76699996       28.6823750    
   1.76999998       31.3925705    
   1.77300000       33.7920456    
   1.77600002       35.8909645    
   1.77900004       37.7498665    
   1.78199995       39.4281883    
   1.78499997       40.9313583    
   1.78799999       42.2151527    
   1.79100001       43.2424736    
   1.79400003       44.0315475    
   1.79700005       44.6481400    
   1.79999995       45.1541176    
   1.80299997       45.5643234    
   1.80599999       45.8503113    
   1.80900002       45.9826851    
   1.81200004       45.9685097    
   1.81500006       45.8479080    
   1.81799996       45.6582718    
   1.82099998       45.4083023    
   1.82400000       45.0876656    
   1.82700002       44.6918983    
   1.83000004       44.2281837    
   1.83299994       43.7015953    
   1.83599997       43.1100540    
   1.83899999       42.4568062    
   1.84200001       41.7570381    
   1.84500003       41.0238838    
   1.84800005       40.2522697    
   1.85099995       39.4235458    
   1.85399997       38.5253525    
   1.85699999       37.5638466    
   1.86000001       36.5572166    
   1.86300004       35.5176849    
   1.86600006       34.4373856    
   1.86899996       33.2922134    
   1.87199998       32.0633774    
   1.87500000       30.7549934    
   1.87800002       29.3857212    
   1.88100004       27.9626045    
   1.88399994       26.4693413    
   1.88699996       24.8848209    
   1.88999999       23.2110157    
   1.89300001       21.4776402    
   1.89600003       19.7154808    
   1.89900005       17.9240971    
   1.90199995       16.0704346    
   1.90499997       14.1267405    
   1.90799999       12.1110592    
   1.91100001       10.0840330    
   1.91400003       8.10243607    
   1.91700006       6.17975807    
   1.91999996       4.29371166    
   1.92299998       2.42635155    
   1.92600000      0.593461633    
   1.92900002      -1.15978253    
   1.93200004      -2.78619242    
   1.93499994      -4.26142168    
   1.93799996      -5.58644438    
   1.94099998      -6.76810265    
   1.94400001      -7.79996729    
   1.94700003      -8.66446304    
   1.95000005      -9.35000515    
   1.95299995      -9.85941982    
   1.95599997      -10.2022381    
   1.95899999      -10.3869791    
   1.96200001      -10.4251118    
   1.96500003      -10.3369894    
   1.96800005      -10.1467524    
   1.97099996      -9.87180519    
   1.97399998      -9.52338314    
   1.97700000      -9.12085152    
   1.98000002      -8.70254326    
   1.98300004      -8.31747913    
   1.98599994      -8.00454235    
   1.98899996      -7.78037405    
   1.99199998      -7.64726543    
   1.99500000      -7.61248970    
   1.99800003      -7.70218945    
   2.00099993      -7.95750666    
   2.00399995      -8.41254044    
   2.00699997      -9.07143116    
   2.00999999      -9.91029453    
   2.01300001      -10.9067059    
   2.01600003      -12.0632515    
   2.01900005      -13.3947773    
   2.02200007      -14.8964128    
   2.02500010      -16.5353146    
   2.02800012      -18.2745399    
   2.03099990      -20.0940704    
   2.03399992      -21.9827194    
   2.03699994      -23.9156132    
   2.03999996      -25.8461399    
   2.04299998      -27.7202587    
   2.04600000      -29.4982147    
   2.04900002      -31.1626167    
   2.05200005      -32.7021370    
   2.05500007      -34.0839767    
   2.05800009      -35.2469063    
   2.06100011      -36.1294823    
   2.06399989      -36.7042885    
   2.06699991      -36.9754715    
   2.06999993      -36.9387817    
   2.07299995      -36.5510826    
   2.07599998      -35.7458229    
   2.07900000      -34.4762917    
   2.08200002      -32.7381363    
   2.08500004      -30.5502357    
   2.08800006      -27.9193077    
   2.09100008      -24.8246117    
   2.09400010      -21.2320824    
   2.09699988      -17.1197910    
   2.09999990      -12.4927626    
   2.10299993      -7.37740326    
   2.10599995      -1.80172265    
   2.10899997       4.21922636    
   2.11199999       10.6758642    
   2.11500001       17.5428162    
   2.11800003       24.7715378    