 -0.449999988       0.00000000    
 -0.446999997       0.00000000    
 -0.444000006       0.00000000    
 -0.441000015       0.00000000    
 -0.437999994       0.00000000    
 -0.435000002       0.00000000    
 -0.432000011       0.00000000    
 -0.428999990      -4.29867940E-30
 -0.425999999      -1.68163205E-29
 -0.423000008       6.05099624E-29
 -0.419999987       6.67488945E-28
 -0.416999996       2.32117237E-27
 -0.414000005       2.75500793E-27
 -0.411000013      -8.45441260E-27
 -0.407999992      -4.18602044E-26
 -0.405000001      -5.87815143E-26
 -0.402000010       7.31639893E-26
 -0.398999989       4.15273489E-25
 -0.395999998       5.16744766E-25
 -0.393000007      -5.70343328E-25
 -0.389999986      -2.68168926E-24
 -0.386999995      -2.47250228E-24
 -0.384000003       4.14364297E-24
 -0.381000012       1.26799845E-23
 -0.377999991       5.43946494E-24
 -0.375000000      -2.81588633E-23
 -0.372000009      -5.26619591E-23
 -0.368999988       1.03787432E-23
 -0.365999997       1.75831214E-22
 -0.363000005       2.51360468E-22
 -0.360000014      -1.05186435E-22
 -0.356999993      -9.41582357E-22
 -0.354000002      -1.44333535E-21
 -0.351000011      -6.17066942E-23
 -0.347999990       3.91783515E-21
 -0.344999999       7.90703886E-21
 -0.342000008       5.24097638E-21
 -0.338999987      -1.03786303E-20
 -0.335999995      -3.45894556E-20
 -0.333000004      -4.33520545E-20
 -0.330000013      -4.80058641E-22
 -0.326999992       1.06233022E-19
 -0.324000001       2.14135812E-19
 -0.321000010       1.74308203E-19
 -0.317999989      -1.53265142E-19
 -0.314999998      -6.99182064E-19
 -0.312000006      -1.02709807E-18
 -0.308999985      -4.74457151E-19
 -0.305999994       1.27310562E-18
 -0.303000003       3.44748572E-18
 -0.300000012       4.02248130E-18
 -0.296999991       7.91414098E-19
 -0.294000000      -6.42823643E-18
 -0.291000009      -1.38695383E-17
 -0.287999988      -1.42970360E-17
 -0.284999996      -1.17459978E-18
 -0.282000005       2.46763726E-17
 -0.279000014       5.00141026E-17
 -0.275999993       5.11595856E-17
 -0.273000002       6.59768769E-18
 -0.270000011      -8.21299557E-17
 -0.266999990      -1.72441932E-16
 -0.263999999      -1.84255315E-16
 -0.261000007      -4.10435274E-17
 -0.257999986       2.56653630E-16
 -0.254999995       5.67138639E-16
 -0.252000004       6.23170874E-16
 -0.248999998       1.78543097E-16
 -0.246000007      -7.51217374E-16
 -0.243000001      -1.71145929E-15
 -0.239999995      -1.90468657E-15
 -0.237000003      -6.55633624E-16
 -0.233999997       1.93757326E-15
 -0.231000006       4.62027716E-15
 -0.228000000       5.33320997E-15
 -0.224999994       2.38811707E-15
 -0.222000003      -4.05704091E-15
 -0.218999997      -1.11878390E-14
 -0.216000006      -1.42383240E-14
 -0.213000000      -8.84014067E-15
 -0.209999993       5.84004357E-15
 -0.207000002       2.47772841E-14
 -0.203999996       3.73273088E-14
 -0.201000005       3.11594385E-14
 -0.197999999      -4.58900375E-16
 -0.194999993      -5.06612032E-14
 -0.192000002      -9.53063651E-14
 -0.188999996      -9.93294056E-14
 -0.186000004      -3.53579572E-14
 -0.182999998       9.13703927E-14
 -0.180000007       2.27084641E-13
 -0.177000001       2.80637899E-13
 -0.173999995       1.69129576E-13
 -0.171000004      -1.17806047E-13
 -0.167999998      -4.73756397E-13
 -0.165000007      -6.93596927E-13
 -0.162000000      -5.68670978E-13
 -0.158999994      -2.41854300E-14
 -0.156000003       7.78587373E-13
 -0.152999997       1.45477044E-12
 -0.150000006       1.55147184E-12
 -0.147000000       7.92756106E-13
 -0.143999994      -7.06412305E-13
 -0.141000003      -2.38571337E-12
 -0.137999997      -3.41062183E-12
 -0.135000005      -3.02948443E-12
 -0.131999999      -9.76965687E-13
 -0.128999993       2.26333188E-12
 -0.126000002       5.49424785E-12
 -0.123000003       7.18919325E-12
 -0.119999997       6.12218306E-12
 -0.116999999       1.99847170E-12
 -0.114000000      -4.21422489E-12
 -0.111000001      -1.04624278E-11
 -0.108000003      -1.42751271E-11
 -0.104999997      -1.36579012E-11
 -0.101999998      -7.83170837E-12
  -9.89999995E-02   2.45431648E-12
  -9.60000008E-02   1.50402399E-11
  -9.30000022E-02   2.66966432E-11
  -9.00000036E-02   3.35207972E-11
  -8.69999975E-02   3.14838260E-11
  -8.39999989E-02   1.74481297E-11
  -8.10000002E-02  -9.16864588E-12
  -7.80000016E-02  -4.44856756E-11
  -7.50000030E-02  -7.90844404E-11
  -7.19999969E-02  -9.90494978E-11
  -6.89999983E-02  -8.97761518E-11
  -6.59999996E-02  -4.19025231E-11
  -6.30000010E-02   4.25843354E-11
  -5.99999987E-02   1.46641491E-10
  -5.70000000E-02   2.39068321E-10
  -5.40000014E-02   2.81030671E-10
  -5.09999990E-02   2.37594916E-10
  -4.80000004E-02   9.18407433E-11
  -4.50000018E-02  -1.42614032E-10
  -4.19999994E-02  -4.15904144E-10
  -3.90000008E-02  -6.47629783E-10
  -3.59999985E-02  -7.45511319E-10
  -3.29999998E-02  -6.33439634E-10
  -2.99999993E-02  -2.80529433E-10
  -2.70000007E-02   2.78953555E-10
  -2.40000002E-02   9.42041223E-10
  -2.09999997E-02   1.55112068E-09
  -1.79999992E-02   1.92145677E-09
  -1.49999997E-02   1.87659110E-09
  -1.20000001E-02   1.28833000E-09
  -8.99999961E-03   1.20215921E-10
  -6.00000005E-03  -1.52905855E-09
  -3.00000003E-03  -3.39357564E-09
   5.55111512E-17  -5.03893460E-09
   3.00000003E-03  -5.91243321E-09
   6.00000005E-03  -5.45470469E-09
   8.99999961E-03  -3.26242100E-09
   1.20000001E-02   7.30912886E-10
   1.49999997E-02   6.10558581E-09
   1.79999992E-02   1.18926122E-08
   2.09999997E-02   1.66444725E-08
   2.40000002E-02   1.86658351E-08
   2.70000007E-02   1.63939440E-08
   2.99999993E-02   8.86980533E-09
   3.29999998E-02  -3.80655818E-09
   3.59999985E-02  -2.01695034E-08
   3.90000008E-02  -3.73477675E-08
   4.19999994E-02  -5.13535809E-08
   4.50000018E-02  -5.76898671E-08
   4.80000004E-02  -5.22045411E-08
   5.09999990E-02  -3.20900462E-08
   5.40000014E-02   3.09200332E-09
   5.70000000E-02   5.05197697E-08
   5.99999987E-02   1.03583787E-07
   6.30000010E-02   1.52018160E-07
   6.59999996E-02   1.82965096E-07
   6.89999983E-02   1.83078129E-07
   7.19999969E-02   1.41465463E-07
   7.50000030E-02   5.29479252E-08
   7.80000016E-02  -7.90964094E-08
   8.10000002E-02  -2.41016096E-07
   8.39999989E-02  -4.08815339E-07
   8.69999975E-02  -5.49984748E-07
   9.00000036E-02  -6.27274915E-07
   9.30000022E-02  -6.04291074E-07
   9.60000008E-02  -4.52565018E-07
   9.89999995E-02  -1.59385507E-07
  0.101999998       2.64839656E-07
  0.104999997       7.81340646E-07
  0.108000003       1.32159357E-06
  0.111000001       1.79107769E-06
  0.114000000       2.07861649E-06
  0.116999999       2.07071207E-06
  0.119999997       1.66939128E-06
  0.123000003       8.11488576E-07
  0.126000002      -5.13022883E-07
  0.128999993      -2.24614496E-06
  0.131999999      -4.25274629E-06
  0.135000005      -6.31905414E-06
  0.137999997      -8.15956992E-06
  0.141000003      -9.43181294E-06
  0.143999994      -9.75667626E-06
  0.147000000      -8.74079615E-06
  0.150000006      -5.99617488E-06
  0.152999997      -1.15170735E-06
  0.156000003       6.14919190E-06
  0.158999994       1.62705001E-05
  0.162000000       2.96298876E-05
  0.165000007       4.67726240E-05
  0.167999998       6.84740662E-05
  0.171000004       9.58703677E-05
  0.173999995       1.30617351E-04
  0.177000001       1.75079593E-04
  0.180000007       2.32556762E-04
  0.182999998       3.07559181E-04
  0.186000004       4.06149658E-04
  0.188999996       5.36371197E-04
  0.192000002       7.08784035E-04
  0.194999993       9.37141944E-04
  0.197999999       1.23925053E-03
  0.201000005       1.63806486E-03
  0.203999996       2.16309354E-03
  0.207000002       2.85219168E-03
  0.209999993       3.75383673E-03
  0.213000000       4.92999330E-03
  0.216000006       6.45970646E-03
  0.218999997       8.44356883E-03
  0.222000003       1.10092713E-02
  0.224999994       1.43184867E-02
  0.228000000       1.85753666E-02
  0.231000006       2.40370259E-02
  0.233999997       3.10263857E-02
  0.237000003       3.99479009E-02
  0.239999995       5.13066985E-02
  0.243000001       6.57318607E-02
  0.246000007       8.40046853E-02
  0.248999998      0.107092701    
  0.252000004      0.136190668    
  0.254999995      0.172769561    
  0.257999986      0.218635082    
  0.261000007      0.275997341    
  0.263999999      0.347553670    
  0.266999990      0.436586440    
  0.270000011      0.547077417    
  0.273000002      0.683842003    
  0.275999993      0.852685988    
  0.279000014       1.06058967    
  0.282000005       1.31591856    
  0.284999996       1.62866688    
  0.287999988       2.01073551    
  0.291000009       2.47625136    
  0.294000000       3.04193020    
  0.296999991       3.72748637    
  0.300000012       4.55609131    
  0.303000003       5.55488873    
  0.305999994       6.75556850    
  0.308999985       8.19499683    
  0.312000006       9.91590881    
  0.314999998       11.9676619    
  0.317999989       14.4070501    
  0.321000010       17.2991734    
  0.324000001       20.7183800    
  0.326999992       24.7492313    
  0.330000013       29.4875259    
  0.333000004       35.0413322    
  0.335999995       41.5320244    
  0.338999987       49.0953026    
  0.342000008       57.8821831    
  0.344999999       68.0599518    
  0.347999990       79.8129654    
  0.351000011       93.3433685    
  0.354000002       108.871498    
  0.356999993       126.636093    
  0.360000014       146.894287    
  0.363000005       169.921219    
  0.365999997       196.009186    
  0.368999988       225.466202    
  0.372000009       258.613922    
  0.375000000       295.785370    
  0.377999991       337.321350    
  0.381000012       383.566406    
  0.384000003       434.864227    
  0.386999995       491.550903    
  0.389999986       553.948608    
  0.393000007       622.357666    
  0.395999998       697.047485    
  0.398999989       778.246826    
  0.402000010       866.132202    
  0.405000001       960.816711    
  0.407999992       1062.33679    
  0.411000013       1170.63831    
  0.414000005       1285.56348    
  0.416999996       1406.83484    
  0.419999987       1534.04297    
  0.423000008       1666.62952    
  0.425999999       1803.87317    
  0.428999990       1944.87793    
  0.432000011       2088.56079    
  0.435000002       2233.64136    
  0.437999994       2378.63354    
  0.441000015       2521.83813    
  0.444000006       2661.34204    
  0.446999997       2795.01929    
  0.449999988       2920.53784    
  0.453000009       3035.36841    
  0.456000000       3136.80078    
  0.458999991       3221.96045    
  0.462000012       3287.83325    
  0.465000004       3331.30078    
  0.467999995       3349.17847    
  0.470999986       3338.26001    
  0.474000007       3295.36499    
  0.476999998       3217.38965    
  0.479999989       3101.36670    
  0.483000010       2944.53076    
  0.486000001       2744.38696    
  0.488999993       2498.77832    
  0.492000014       2205.95386    
  0.495000005       1864.63831    
  0.497999996       1474.10168    
  0.500999987       1034.22766    
  0.504000008       545.572083    
  0.507000029       9.41190147    
  0.509999990      -572.210083    
  0.513000011      -1196.44714    
  0.515999973      -1859.62146    
  0.518999994      -2557.21094    
  0.522000015      -3283.85742    
  0.524999976      -4033.38770    
  0.527999997      -4798.85303    
  0.531000018      -5572.57227    
  0.533999979      -6346.20117    
  0.537000000      -7110.81787    
  0.540000021      -7857.03125    
  0.542999983      -8575.10254    
  0.546000004      -9255.07715    
  0.549000025      -9886.92383    
  0.551999986      -10460.6807    
  0.555000007      -10966.6318    
  0.558000028      -11395.4746    
  0.560999990      -11738.4863    
  0.564000010      -11987.6924    
  0.566999972      -12136.0352    
  0.569999993      -12177.5244    
  0.573000014      -12107.3818    
  0.575999975      -11922.1494    
  0.578999996      -11619.7988    
  0.582000017      -11199.8389    
  0.584999979      -10663.3887    
  0.588000000      -10013.2148    
  0.591000021      -9253.72363    
  0.593999982      -8390.91504    
  0.597000003      -7432.33643    
  0.600000024      -6387.02148    
  0.602999985      -5265.39648    
  0.606000006      -4079.15405    
  0.609000027      -2841.06934    
  0.611999989      -1564.79919    
  0.615000010      -264.678375    
  0.617999971       1044.47913    
  0.620999992       2347.59424    
  0.624000013       3629.56274    
  0.626999974       4875.50928    
  0.629999995       6071.03760    
  0.633000016       7202.45215    
  0.635999978       8256.96875    
  0.638999999       9222.90039    
  0.642000020       10089.8457    
  0.644999981       10848.8525    
  0.648000002       11492.5527    
  0.651000023       12015.2705    
  0.653999984       12413.0928    
  0.657000005       12683.8955    
  0.660000026       12827.3506    
  0.662999988       12844.8965    
  0.666000009       12739.6865    
  0.669000030       12516.5127    
  0.671999991       12181.6904    
  0.675000012       11742.9160    
  0.677999973       11209.0947    
  0.680999994       10590.1602    
  0.684000015       9896.88770    
  0.686999977       9140.70410    
  0.689999998       8333.48535    
  0.693000019       7487.34375    
  0.695999980       6614.40918    
  0.699000001       5726.62646    
  0.702000022       4835.57275    
  0.704999983       3952.29614    
  0.708000004       3087.16406    
  0.711000025       2249.72095    
  0.713999987       1448.56677    
  0.717000008       691.255188    
  0.720000029      -15.7733374    
  0.722999990      -667.235229    
  0.726000011      -1259.02502    
  0.728999972      -1788.21545    
  0.731999993      -2253.03491    
  0.735000014      -2652.83179    
  0.737999976      -2988.01929    
  0.740999997      -3259.99756    
  0.744000018      -3471.04736    
  0.746999979      -3624.22290    
  0.750000000      -3723.25342    
  0.753000021      -3772.45264    
  0.755999982      -3776.60205    
  0.759000003      -3740.81665    
  0.762000024      -3670.39844    
  0.764999986      -3570.71753    
  0.768000007      -3447.12354    
  0.771000028      -3304.87476    
  0.773999989      -3149.05322    
  0.777000010      -2984.46289    
  0.779999971      -2815.52734    
  0.782999992      -2646.22583    
  0.786000013      -2480.07422    
  0.788999975      -2320.12109    
  0.791999996      -2168.93677    
  0.795000017      -2028.57996    
  0.797999978      -1900.56873    
  0.800999999      -1785.88440    
  0.804000020      -1685.01550    
  0.806999981      -1598.02100    
  0.810000002      -1524.57910    
  0.813000023      -1464.01318    
  0.815999985      -1415.31104    
  0.819000006      -1377.16626    
  0.822000027      -1348.04871    
  0.824999988      -1326.28296    
  0.828000009      -1310.10168    
  0.830999970      -1297.67883    
  0.833999991      -1287.16956    
  0.837000012      -1276.76965    
  0.839999974      -1264.77173    
  0.842999995      -1249.60181    
  0.846000016      -1229.84229    
  0.848999977      -1204.24939    
  0.851999998      -1171.76941    
  0.855000019      -1131.55701    
  0.857999980      -1083.00024    
  0.861000001      -1025.74011    
  0.864000022      -959.666565    
  0.866999984      -884.892334    
  0.870000005      -801.726440    
  0.873000026      -710.663879    
  0.875999987      -612.382935    
  0.879000008      -507.736542    
  0.882000029      -397.735992    
  0.884999990      -283.522491    
  0.888000011      -166.323654    
  0.890999973      -47.4080429    
  0.893999994       71.9374695    
  0.897000015       190.406769    
  0.899999976       306.677917    
  0.902999997       419.441010    
  0.906000018       527.439575    
  0.908999979       629.502930    
  0.912000000       724.563171    
  0.915000021       811.661865    
  0.917999983       889.950623    
  0.921000004       958.693237    
  0.924000025       1017.27911    
  0.926999986       1065.24097    
  0.930000007       1102.26062    
  0.933000028       1128.15540    
  0.935999990       1142.86475    
  0.939000010       1146.45142    
  0.941999972       1139.10962    
  0.944999993       1121.16467    
  0.948000014       1093.06531    
  0.950999975       1055.36902    
  0.953999996       1008.72058    
  0.957000017       953.823914    
  0.959999979       891.427917    
  0.963000000       822.333923    
  0.966000021       747.408386    
  0.968999982       667.578613    
  0.972000003       583.810730    
  0.975000024       497.078644    
  0.977999985       408.330078    
  0.981000006       318.468567    
  0.984000027       228.367462    
  0.986999989       138.896027    
  0.990000010       50.9137344    
  0.992999971      -34.7726669    
  0.995999992      -117.440727    
  0.999000013      -196.439911    
   1.00199997      -271.164276    
   1.00500000      -341.056061    
   1.00800002      -405.639038    
   1.01100004      -464.544525    
   1.01400006      -517.503113    
   1.01699996      -564.310181    
   1.01999998      -604.797119    
   1.02300000      -638.840576    
   1.02600002      -666.404907    
   1.02900004      -687.569946    
   1.03199995      -702.501465    
   1.03499997      -711.391113    
   1.03799999      -714.431824    
   1.04100001      -711.849060    
   1.04400003      -703.940735    
   1.04700005      -691.070984    
   1.04999995      -673.622192    
   1.05299997      -651.953308    
   1.05599999      -626.401611    
   1.05900002      -597.317261    
   1.06200004      -565.085510    
   1.06500006      -530.105164    
   1.06799996      -492.742096    
   1.07099998      -453.307220    
   1.07400000      -412.080109    
   1.07700002      -369.344055    
   1.08000004      -325.386292    
   1.08299994      -280.465698    
   1.08599997      -234.789795    
   1.08899999      -188.529556    
   1.09200001      -141.852737    
   1.09500003      -94.9373627    
   1.09800005      -47.9540558    
   1.10099995      -1.04325318    
   1.10399997       45.6837120    
   1.10699999       92.1203308    
   1.11000001       138.144409    
   1.11300004       183.619919    
   1.11600006       228.411087    
   1.11899996       272.384003    
   1.12199998       315.389801    
   1.12500000       357.252319    
   1.12800002       397.781433    
   1.13100004       436.796967    
   1.13399994       474.126709    
   1.13699996       509.574066    
   1.13999999       542.896606    
   1.14300001       573.827576    
   1.14600003       602.117615    
   1.14900005       627.547241    
   1.15199995       649.903137    
   1.15499997       668.952576    
   1.15799999       684.445129    
   1.16100001       696.140015    
   1.16400003       703.832397    
   1.16700006       707.357117    
   1.16999996       706.569275    
   1.17299998       701.326538    
   1.17600000       691.500916    
   1.17900002       677.007141    
   1.18200004       657.817871    
   1.18499994       633.952454    
   1.18799996       605.461609    
   1.19099998       572.424744    
   1.19400001       534.955933    
   1.19700003       493.211334    
   1.20000005       447.394440    
   1.20299995       397.757355    
   1.20599997       344.596497    
   1.20899999       288.248230    
   1.21200001       229.088211    
   1.21500003       167.526031    
   1.21800005       103.995247    
   1.22099996       38.9525146    
   1.22399998      -27.1123028    
   1.22700000      -93.6767273    
   1.23000002      -160.208923    
   1.23300004      -226.189270    
   1.23599994      -291.102386    
   1.23899996      -354.410919    
   1.24199998      -415.550079    
   1.24500000      -473.957916    
   1.24800003      -529.116272    
   1.25100005      -580.564636    
   1.25399995      -627.879150    
   1.25699997      -670.644104    
   1.25999999      -708.449646    
   1.26300001      -740.921448    
   1.26600003      -767.754211    
   1.26900005      -788.717407    
   1.27199996      -803.633301    
   1.27499998      -812.357727    
   1.27800000      -814.788330    
   1.28100002      -810.893250    
   1.28400004      -800.727478    
   1.28699994      -784.415161    
   1.28999996      -762.118652    
   1.29299998      -734.030823    
   1.29600000      -700.397583    
   1.29900002      -661.541931    
   1.30200005      -617.861023    
   1.30499995      -569.802063    
   1.30799997      -517.841187    
   1.31099999      -462.478729    
   1.31400001      -404.242828    
   1.31700003      -343.689453    
   1.32000005      -281.393341    
   1.32299995      -217.940613    
   1.32599998      -153.933304    
   1.32900000      -89.9954071    
   1.33200002      -26.7602997    
   1.33500004       35.1620407    
   1.33800006       95.2083893    
   1.34099996       152.854721    
   1.34399998       207.592575    
   1.34700000       258.922058    
   1.35000002       306.372498    
   1.35300004       349.533539    
   1.35599995       388.068909    
   1.35899997       421.702515    
   1.36199999       450.192291    
   1.36500001       473.327301    
   1.36800003       490.960541    
   1.37100005       503.045227    
   1.37399995       509.628510    
   1.37699997       510.806244    
   1.38000000       506.692230    
   1.38300002       497.438477    
   1.38600004       483.279633    
   1.38900006       464.546509    
   1.39199996       441.631775    
   1.39499998       414.947388    
   1.39800000       384.915863    
   1.40100002       351.995819    
   1.40400004       316.702362    
   1.40699995       279.594910    
   1.40999997       241.241013    
   1.41299999       202.186707    
   1.41600001       162.955627    
   1.41900003       124.070007    
   1.42200005       86.0668640    
   1.42499995       49.4859848    
   1.42799997       14.8341169    
   1.43099999      -17.4448318    
   1.43400002      -46.9719124    
   1.43700004      -73.4163284    
   1.44000006      -96.4821930    
   1.44299996      -115.909424    
   1.44599998      -131.486191    
   1.44900000      -143.068207    
   1.45200002      -150.594345    
   1.45500004      -154.083115    
   1.45799994      -153.608887    
   1.46099997      -149.278107    
   1.46399999      -141.227997    
   1.46700001      -129.647537    
   1.47000003      -114.801483    
   1.47300005      -97.0329056    
   1.47599995      -76.7324066    
   1.47899997      -54.2916336    
   1.48199999      -30.0824108    
   1.48500001      -4.48193598    
   1.48800004       22.0877457    
   1.49100006       49.1569023    
   1.49399996       76.2494583    
   1.49699998       102.927299    
   1.50000000       128.800400    
   1.50300002       153.505692    
   1.50600004       176.683609    
   1.50899994       197.976807    
   1.51199996       217.053177    
   1.51499999       233.635696    
   1.51800001       247.515564    
   1.52100003       258.541809    
   1.52400005       266.600433    
   1.52699995       271.600525    
   1.52999997       273.475281    
   1.53299999       272.198914    
   1.53600001       267.808990    
   1.53900003       260.415588    
   1.54200006       250.181335    
   1.54499996       237.284653    
   1.54799998       221.897720    
   1.55100000       204.200485    
   1.55400002       184.416382    
   1.55700004       162.832626    
   1.55999994       139.778671    
   1.56299996       115.575737    
   1.56599998       90.5025940    
   1.56900001       64.8110504    
   1.57200003       38.7737122    
   1.57500005       12.7099981    
   1.57799995      -13.0442257    
   1.58099997      -38.1972466    
   1.58399999      -62.5304909    
   1.58700001      -85.8664474    
   1.59000003      -108.014488    
   1.59300005      -128.758072    
   1.59599996      -147.896057    
   1.59899998      -165.287567    
   1.60200000      -180.853760    
   1.60500002      -194.546814    
   1.60800004      -206.325653    
   1.61099994      -216.155258    
   1.61399996      -224.019424    
   1.61699998      -229.935059    
   1.62000000      -233.959381    
   1.62300003      -236.181229    
   1.62600005      -236.700912    
   1.62899995      -235.617661    
   1.63199997      -233.033447    
   1.63499999      -229.060959    
   1.63800001      -223.826981    
   1.64100003      -217.474106    
   1.64400005      -210.159424    
   1.64699996      -202.039444    
   1.64999998      -193.249466    
   1.65300000      -183.901413    
   1.65600002      -174.105316    
   1.65900004      -163.988007    
   1.66199994      -153.685074    
   1.66499996      -143.314102    
   1.66799998      -132.954803    
   1.67100000      -122.654839    
   1.67400002      -112.459648    
   1.67700005      -102.440598    
   1.67999995      -92.6885223    
   1.68299997      -83.2716522    
   1.68599999      -74.2025604    
   1.68900001      -65.4550858    
   1.69200003      -57.0146751    
   1.69500005      -48.9058304    
   1.69799995      -41.1704712    
   1.70099998      -33.8273392    
   1.70400000      -26.8557930    
   1.70700002      -20.2144375    
   1.71000004      -13.8723946    
   1.71300006      -7.82698441    
   1.71599996      -2.09629750    
   1.71899998       3.30589509    
   1.72200000       8.39110565    
   1.72500002       13.1932144    
   1.72800004       17.7438583    
   1.73099995       22.0499153    
   1.73399997       26.0936775    
   1.73699999       29.8530083    
   1.74000001       33.3231468    
   1.74300003       36.5246429    
   1.74600005       39.4913216    
   1.74899995       42.2431870    
   1.75199997       44.7641068    
   1.75500000       47.0093346    
   1.75800002       48.9438057    
   1.76100004       50.5767136    
   1.76400006       51.9570351    
   1.76699996       53.1336365    
   1.76999998       54.1170959    
   1.77300000       54.8754349    
   1.77600002       55.3659096    
   1.77900004       55.5774727    
   1.78199995       55.5481262    
   1.78499997       55.3388367    
   1.78799999       54.9860878    
   1.79100001       54.4805870    
   1.79400003       53.7938080    
   1.79700005       52.9229164    
   1.79999995       51.9079819    
   1.80299997       50.8083038    
   1.80599999       49.6642265    
   1.80900002       48.4790878    
   1.81200004       47.2347984    
   1.81500006       45.9251518    
   1.81799996       44.5764771    
   1.82099998       43.2388382    
   1.82400000       41.9601402    
   1.82700002       40.7675934    
   1.83000004       39.6654472    
   1.83299994       38.6419144    
   1.83599997       37.6812134    
   1.83899999       36.7810097    
   1.84200001       35.9653854    
   1.84500003       35.2759781    
   1.84800005       34.7416687    
   1.85099995       34.3526230    
   1.85399997       34.0647850    
   1.85699999       33.8324318    
   1.86000001       33.6389847    
   1.86300004       33.4969177    
   1.86600006       33.4161758    
   1.86899996       33.3719749    
   1.87199998       33.3069839    
   1.87500000       33.1683159    
   1.87800002       32.9396706    
   1.88100004       32.6308556    
   1.88399994       32.2357025    
   1.88699996       31.7076855    
   1.88999999       30.9815865    
   1.89300001       30.0151386    
   1.89600003       28.8049927    
   1.89900005       27.3657169    
   1.90199995       25.7004051    
   1.90499997       23.7934704    
   1.90799999       21.6279049    
   1.91100001       19.2050152    
   1.91400003       16.5444508    
   1.91700006       13.6660786    
   1.91999996       10.5793352    
   1.92299998       7.29759455    
   1.92600000       3.85830379    
   1.92900002      0.315866172    
   1.93200004      -3.28839684    
   1.93499994      -6.93801880    
   1.93799996      -10.6163559    
   1.94099998      -14.2787485    
   1.94400001      -17.8614140    
   1.94700003      -21.3176727    
   1.95000005      -24.6367188    
   1.95299995      -27.8212700    
   1.95599997      -30.8483315    
   1.95899999      -33.6587372    
   1.96200001      -36.1934700    
   1.96500003      -38.4414024    
   1.96800005      -40.4416962    
   1.97099996      -42.2308731    
   1.97399998      -43.7936211    
   1.97700000      -45.0777016    
   1.98000002      -46.0567856    
   1.98300004      -46.7658310    
   1.98599994      -47.2686043    
   1.98899996      -47.5982666    
   1.99199998      -47.7389984    
   1.99500000      -47.6643677    
   1.99800003      -47.3843536    
   2.00099993      -46.9484558    
   2.00399995      -46.4045677    
   2.00699997      -45.7619629    
   2.00999999      -44.9985123    
   2.01300001      -44.1004219    
   2.01600003      -43.0874786    
   2.01900005      -41.9966621    
   2.02200007      -40.8457146    
   2.02500010      -39.6187439    
   2.02800012      -38.2877769    
   2.03099990      -36.8420067    
   2.03399992      -35.2902794    
   2.03699994      -33.6378212    
   2.03999996      -31.8692436    
   2.04299998      -29.9571056    
   2.04600000      -27.8795586    
   2.04900002      -25.6224842    
   2.05200005      -23.1679173    
   2.05500007      -20.4888077    
   2.05800009      -17.5570984    
   2.06100011      -14.3520947    
   2.06399989      -10.8567972    
   2.06699991      -7.04690790    
   2.06999993      -2.88869309    
   2.07299995       1.64640653    
   2.07599998       6.56543398    
   2.07900000       11.8605757    
   2.08200002       17.5376053    
   2.08500004       23.6297245    
   2.08800006       30.1699886    
   2.09100008       37.1485443    
   2.09400010       44.5064850    
   2.09699988       52.1764870    
   2.09999990       60.1241417    
   2.10299993       68.3442383    
   2.10599995       76.8178406    
   2.10899997       85.4756546    
   2.11199999       94.2021408    
   2.11500001       102.872055    
   2.11800003       111.381058    