  -2.50000004E-02   0.00000000    
  -2.25000009E-02   0.00000000    
  -1.99999996E-02   0.00000000    
  -1.75000001E-02   0.00000000    
  -1.49999997E-02  -2.51086538E-25
  -1.25000002E-02  -1.71263990E-24
  -9.99999978E-03  -6.96347006E-24
  -7.49999983E-03  -2.15154775E-23
  -4.99999989E-03  -5.57706358E-23
  -2.49999994E-03  -1.27560904E-22
   0.00000000      -2.65500819E-22
   2.49999994E-03  -5.13079727E-22
   4.99999989E-03  -9.33710611E-22
   7.49999983E-03  -1.61664605E-21
   9.99999978E-03  -2.68396037E-21
   1.25000002E-02  -4.29849373E-21
   1.49999997E-02  -6.67293466E-21
   1.75000001E-02  -1.00799171E-20
   1.99999996E-02  -1.48632869E-20
   2.25000009E-02  -2.14503895E-20
   2.50000004E-02  -3.03655159E-20
   2.74999999E-02  -4.22443368E-20
   2.99999993E-02  -5.78494125E-20
   3.24999988E-02  -7.80865801E-20
   3.50000001E-02  -1.04022363E-19
   3.75000015E-02  -1.36902101E-19
   3.99999991E-02  -1.78168849E-19
   4.25000004E-02  -2.29482856E-19
   4.50000018E-02  -2.92741674E-19
   4.74999994E-02  -3.70100458E-19
   5.00000007E-02  -4.63992644E-19
   5.24999984E-02  -5.77150590E-19
   5.49999997E-02  -7.12626179E-19
   5.75000010E-02  -8.73811265E-19
   5.99999987E-02  -1.06445696E-18
   6.25000000E-02  -1.28869342E-18
   6.49999976E-02  -1.55104781E-18
   6.75000027E-02  -1.85646130E-18
   7.00000003E-02  -2.21030497E-18
   7.24999979E-02  -2.61839370E-18
   7.50000030E-02  -3.08699855E-18
   7.75000006E-02  -3.62285670E-18
   7.99999982E-02  -4.23318033E-18
   8.25000033E-02  -4.92565913E-18
   8.50000009E-02  -5.70846522E-18
   8.74999985E-02  -6.59025092E-18
   9.00000036E-02  -7.58014417E-18
   9.25000012E-02  -8.68773983E-18
   9.49999988E-02  -9.92308858E-18
   9.74999964E-02  -1.12966791E-17
  0.100000001      -1.28194160E-17
  0.102499999      -1.45025970E-17
  0.104999997      -1.63578821E-17
  0.107500002      -1.83972462E-17
  0.109999999      -2.06329550E-17
  0.112499997      -2.30775003E-17
  0.115000002      -2.57435580E-17
  0.117500000      -2.86439246E-17
  0.119999997      -3.17914395E-17
  0.122500002      -3.51989240E-17
  0.125000000      -3.88791068E-17
  0.127499998      -4.28445180E-17
  0.129999995      -4.71074065E-17
  0.132499993      -5.16796506E-17
  0.135000005      -5.65726225E-17
  0.137500003      -6.17970754E-17
  0.140000001      -6.73630678E-17
  0.142499998      -7.32797650E-17
  0.144999996      -7.95553461E-17
  0.147499993      -8.61968587E-17
  0.150000006      -9.32100400E-17
  0.152500004      -1.00599165E-16
  0.155000001      -1.08366927E-16
  0.157499999      -1.16514213E-16
  0.159999996      -1.25039943E-16
  0.162499994      -1.33940883E-16
  0.165000007      -1.43211474E-16
  0.167500004      -1.52843601E-16
  0.170000002      -1.62826467E-16
  0.172499999      -1.73146266E-16
  0.174999997      -1.83786125E-16
  0.177499995      -1.94725767E-16
  0.180000007      -2.05941331E-16
  0.182500005      -2.17405207E-16
  0.185000002      -2.29085805E-16
  0.187500000      -2.40947257E-16
  0.189999998      -2.52949264E-16
  0.192499995      -2.65046853E-16
  0.194999993      -2.77190235E-16
  0.197500005      -2.89324485E-16
  0.200000003      -3.01389384E-16
  0.202500001      -3.13319208E-16
  0.204999998      -3.25042435E-16
  0.207499996      -3.36481800E-16
  0.209999993      -3.47553765E-16
  0.212500006      -3.58168570E-16
  0.215000004      -3.68229971E-16
  0.217500001      -3.77635161E-16
  0.219999999      -3.86274473E-16
  0.222499996      -3.94031336E-16
  0.224999994      -4.00782268E-16
  0.227500007      -4.06396217E-16
  0.230000004      -4.10735435E-16
  0.232500002      -4.13654469E-16
  0.234999999      -4.15000696E-16
  0.237499997      -4.14613840E-16
  0.239999995      -4.12326321E-16
  0.242500007      -4.07962805E-16
  0.245000005      -4.01340992E-16
  0.247500002      -3.92271043E-16
  0.250000000      -3.80555651E-16
  0.252499998      -3.65990257E-16
  0.254999995      -3.48363608E-16
  0.257499993      -3.27457193E-16
  0.259999990      -3.03045916E-16
  0.262499988      -2.74898164E-16
  0.264999986      -2.42775948E-16
  0.267500013      -2.06435495E-16
  0.270000011      -1.65627353E-16
  0.272500008      -1.20096725E-16
  0.275000006      -6.95843853E-17
  0.277500004      -1.38260609E-17
  0.280000001       4.74464347E-17
  0.282499999       1.14504375E-16
  0.284999996       1.87622033E-16
  0.287499994       2.67076370E-16
  0.289999992       3.53145559E-16
  0.292499989       4.46109119E-16
  0.294999987       5.46246254E-16
  0.297500014       6.53836538E-16
  0.300000012       7.69157638E-16
  0.302500010       8.92485582E-16
  0.305000007       1.02409290E-15
  0.307500005       1.16424795E-15
  0.310000002       1.31321521E-15
  0.312500000       1.47125187E-15
  0.314999998       1.63860948E-15
  0.317499995       1.81553063E-15
  0.319999993       2.00224930E-15
  0.322499990       2.19898795E-15
  0.324999988       2.40595791E-15
  0.327499986       2.62335845E-15
  0.330000013       2.85137379E-15
  0.332500011       3.09017207E-15
  0.335000008       3.33990660E-15
  0.337500006       3.60070995E-15
  0.340000004       3.87269647E-15
  0.342500001       4.15595869E-15
  0.344999999       4.45056691E-15
  0.347499996       4.75656645E-15
  0.349999994       5.07397808E-15
  0.352499992       5.40279542E-15
  0.354999989       5.74298121E-15
  0.357499987       6.09446982E-15
  0.360000014       6.45716340E-15
  0.362500012       6.83092981E-15
  0.365000010       7.21560009E-15
  0.367500007       7.61097135E-15
  0.370000005       8.01680262E-15
  0.372500002       8.43280845E-15
  0.375000000       8.85866528E-15
  0.377499998       9.29400549E-15
  0.379999995       9.73841742E-15
  0.382499993       1.01914411E-14
  0.384999990       1.06525684E-14
  0.387499988       1.11212444E-14
  0.389999986       1.15968611E-14
  0.392500013       1.20787584E-14
  0.395000011       1.25662217E-14
  0.397500008       1.30584842E-14
  0.400000006       1.35547176E-14
  0.402500004       1.40540410E-14
  0.405000001       1.45555107E-14
  0.407499999       1.50581265E-14
  0.409999996       1.55608236E-14
  0.412499994       1.60624772E-14
  0.414999992       1.65618997E-14
  0.417499989       1.70578392E-14
  0.419999987       1.75489794E-14
  0.422500014       1.80339379E-14
  0.425000012       1.85112681E-14
  0.427500010       1.89794571E-14
  0.430000007       1.94369260E-14
  0.432500005       1.98820300E-14
  0.435000002       2.03130546E-14
  0.437500000       2.07282227E-14
  0.439999998       2.11256912E-14
  0.442499995       2.15035458E-14
  0.444999993       2.18598146E-14
  0.447499990       2.21924546E-14
  0.449999988       2.24993635E-14
  0.452499986       2.27783711E-14
  0.455000013       2.30272514E-14
  0.457500011       2.32437140E-14
  0.460000008       2.34254111E-14
  0.462500006       2.35699369E-14
  0.465000004       2.36748318E-14
  0.467500001       2.37375817E-14
  0.469999999       2.37556201E-14
  0.472499996       2.37263331E-14
  0.474999994       2.36470609E-14
  0.477499992       2.35151017E-14
  0.479999989       2.33277109E-14
  0.482499987       2.30821069E-14
  0.485000014       2.27754793E-14
  0.487500012       2.24049837E-14
  0.490000010       2.19677504E-14
  0.492500007       2.14608841E-14
  0.495000005       2.08814814E-14
  0.497500002       2.02266182E-14
  0.500000000       1.94933638E-14
  0.502499998       1.86787875E-14
  0.504999995       1.77799585E-14
  0.507499993       1.67939545E-14
  0.509999990       1.57178585E-14
  0.512499988       1.45487870E-14
  0.514999986       1.32838669E-14
  0.517499983       1.19202676E-14
  0.519999981       1.04551911E-14
  0.522499979       8.88588468E-15
  0.524999976       7.20964714E-15
  0.527499974       5.42383826E-15
  0.529999971       3.52588073E-15
  0.532500029       1.51326534E-15
  0.535000026      -6.16419386E-16
  0.537500024      -2.86551119E-15
  0.540000021      -5.23623910E-15
  0.542500019      -7.73073927E-15
  0.545000017      -1.03510213E-14
  0.547500014      -1.30989800E-14
  0.550000012      -1.59763763E-14
  0.552500010      -1.89848340E-14
  0.555000007      -2.21258220E-14
  0.557500005      -2.54006563E-14
  0.560000002      -2.88104806E-14
  0.562500000      -3.23562723E-14
  0.564999998      -3.60388057E-14
  0.567499995      -3.98586735E-14
  0.569999993      -4.38162622E-14
  0.572499990      -4.79117410E-14
  0.574999988      -5.21450559E-14
  0.577499986      -5.65159017E-14
  0.579999983      -6.10237636E-14
  0.582499981      -6.56678488E-14
  0.584999979      -7.04471000E-14
  0.587499976      -7.53602096E-14
  0.589999974      -8.04055647E-14
  0.592499971      -8.55812816E-14
  0.595000029      -9.08851716E-14
  0.597500026      -9.63146934E-14
  0.600000024      -1.01867062E-13
  0.602500021      -1.07539120E-13
  0.605000019      -1.13327391E-13
  0.607500017      -1.19228032E-13
  0.610000014      -1.25236843E-13
  0.612500012      -1.31349291E-13
  0.615000010      -1.37560495E-13
  0.617500007      -1.43865117E-13
  0.620000005      -1.50257492E-13
  0.622500002      -1.56731575E-13
  0.625000000      -1.63280901E-13
  0.627499998      -1.69898587E-13
  0.629999995      -1.76577367E-13
  0.632499993      -1.83309544E-13
  0.634999990      -1.90087028E-13
  0.637499988      -1.96901265E-13
  0.639999986      -2.03743299E-13
  0.642499983      -2.10603751E-13
  0.644999981      -2.17472768E-13
  0.647499979      -2.24340105E-13
  0.649999976      -2.31195027E-13
  0.652499974      -2.38026423E-13
  0.654999971      -2.44822690E-13
  0.657500029      -2.51571794E-13
  0.660000026      -2.58261240E-13
  0.662500024      -2.64878180E-13
  0.665000021      -2.71409224E-13
  0.667500019      -2.77840603E-13
  0.670000017      -2.84158087E-13
  0.672500014      -2.90347065E-13
  0.675000012      -2.96392441E-13
  0.677500010      -3.02278791E-13
  0.680000007      -3.07990178E-13
  0.682500005      -3.13510313E-13
  0.685000002      -3.18822551E-13
  0.687500000      -3.23909817E-13
  0.689999998      -3.28754629E-13
  0.692499995      -3.33339205E-13
  0.694999993      -3.37645385E-13
  0.697499990      -3.41654683E-13
  0.699999988      -3.45348262E-13
  0.702499986      -3.48707012E-13
  0.704999983      -3.51711471E-13
  0.707499981      -3.54341963E-13
  0.709999979      -3.56578509E-13
  0.712499976      -3.58400945E-13
  0.714999974      -3.59788805E-13
  0.717499971      -3.60721462E-13
  0.720000029      -3.61178074E-13
  0.722500026      -3.61137742E-13
  0.725000024      -3.60579324E-13
  0.727500021      -3.59481596E-13
  0.730000019      -3.57823309E-13
  0.732500017      -3.55583103E-13
  0.735000014      -3.52739566E-13
  0.737500012      -3.49271366E-13
  0.740000010      -3.45157090E-13
  0.742500007      -3.40375514E-13
  0.745000005      -3.34905389E-13
  0.747500002      -3.28725653E-13
  0.750000000      -3.21815328E-13
  0.752499998      -3.14153759E-13
  0.754999995      -3.05720347E-13
  0.757499993      -2.96494925E-13
  0.759999990      -2.86457517E-13
  0.762499988      -2.75588444E-13
  0.764999986      -2.63868517E-13
  0.767499983      -2.51278924E-13
  0.769999981      -2.37801207E-13
  0.772499979      -2.23417503E-13
  0.774999976      -2.08110452E-13
  0.777499974      -1.91863249E-13
  0.779999971      -1.74659766E-13
  0.782500029      -1.56484417E-13
  0.785000026      -1.37322459E-13
  0.787500024      -1.17159781E-13
  0.790000021      -9.59831241E-14
  0.792500019      -7.37800595E-14
  0.795000017      -5.05390306E-14
  0.797500014      -2.62493579E-14
  0.800000012      -9.01438191E-16
  0.802500010       2.55134303E-14
  0.805000007       5.30028021E-14
  0.807500005       8.15731895E-14
  0.810000002       1.11229839E-13
  0.812500000       1.41976911E-13
  0.814999998       1.73817327E-13
  0.817499995       2.06752597E-13
  0.819999993       2.40783061E-13
  0.822499990       2.75907498E-13
  0.824999988       3.12123401E-13
  0.827499986       3.49426705E-13
  0.829999983       3.87811799E-13
  0.832499981       4.27271608E-13
  0.834999979       4.67797405E-13
  0.837499976       5.09378835E-13
  0.839999974       5.52003809E-13
  0.842499971       5.95658451E-13
  0.845000029       6.40327255E-13
  0.847500026       6.85992821E-13
  0.850000024       7.32635849E-13
  0.852500021       7.80235251E-13
  0.855000019       8.28767990E-13
  0.857500017       8.78208964E-13
  0.860000014       9.28531232E-13
  0.862500012       9.79705791E-13
  0.865000010       1.03170120E-12
  0.867500007       1.08448450E-12
  0.870000005       1.13802034E-12
  0.872500002       1.19227111E-12
  0.875000000       1.24719712E-12
  0.877499998       1.30275651E-12
  0.879999995       1.35890528E-12
  0.882499993       1.41559681E-12
  0.884999990       1.47278272E-12
  0.887499988       1.53041186E-12
  0.889999986       1.58843121E-12
  0.892499983       1.64678514E-12
  0.894999981       1.70541565E-12
  0.897499979       1.76426278E-12
  0.899999976       1.82326398E-12
  0.902499974       1.88235408E-12
  0.904999971       1.94146630E-12
  0.907500029       2.00053060E-12
  0.910000026       2.05947542E-12
  0.912500024       2.11822638E-12
  0.915000021       2.17670717E-12
  0.917500019       2.23483840E-12
  0.920000017       2.29253921E-12
  0.922500014       2.34972632E-12
  0.925000012       2.40631365E-12
  0.927500010       2.46221338E-12
  0.930000007       2.51733552E-12
  0.932500005       2.57158747E-12
  0.935000002       2.62487514E-12
  0.937500000       2.67710160E-12
  0.939999998       2.72816860E-12
  0.942499995       2.77797490E-12
  0.944999993       2.82641814E-12
  0.947499990       2.87339423E-12
  0.949999988       2.91879650E-12
  0.952499986       2.96251652E-12
  0.954999983       3.00444457E-12
  0.957499981       3.04446941E-12
  0.959999979       3.08247763E-12
  0.962499976       3.11835453E-12
  0.964999974       3.15198388E-12
  0.967499971       3.18324859E-12
  0.970000029       3.21202938E-12
  0.972500026       3.23820701E-12
  0.975000024       3.26166047E-12
  0.977500021       3.28226769E-12
  0.980000019       3.29990592E-12
  0.982500017       3.31445179E-12
  0.985000014       3.32578127E-12
  0.987500012       3.33376989E-12
  0.990000010       3.33829232E-12
  0.992500007       3.33922386E-12
  0.995000005       3.33643876E-12
  0.997500002       3.32981212E-12
   1.00000000       3.31921881E-12
   1.00250006       3.30453373E-12
   1.00500000       3.28563327E-12
   1.00750005       3.26239383E-12
   1.00999999       3.23469224E-12
   1.01250005       3.20240666E-12
   1.01499999       3.16541715E-12
   1.01750004       3.12360402E-12
   1.01999998       3.07684954E-12
   1.02250004       3.02503769E-12
   1.02499998       2.96805419E-12
   1.02750003       2.90578716E-12
   1.02999997       2.83812687E-12
   1.03250003       2.76496599E-12
   1.03499997       2.68620000E-12
   1.03750002       2.60172743E-12
   1.03999996       2.51144916E-12
   1.04250002       2.41527046E-12
   1.04499996       2.31309980E-12
   1.04750001       2.20484915E-12
   1.04999995       2.09043481E-12
   1.05250001       1.96977677E-12
   1.05499995       1.84280043E-12
   1.05750000       1.70943522E-12
   1.05999994       1.56961542E-12
   1.06250000       1.42328066E-12
   1.06500006       1.27037627E-12
   1.06750000       1.11085251E-12
   1.07000005       9.44666329E-13
   1.07249999       7.71780155E-13
   1.07500005       5.92162821E-13
   1.07749999       4.05790039E-13
   1.08000004       2.12643759E-13
   1.08249998       1.27135622E-14
   1.08500004      -1.94004006E-13
   1.08749998      -4.07504732E-13
   1.09000003      -6.27777127E-13
   1.09249997      -8.54801418E-13
   1.09500003      -1.08854982E-12
   1.09749997      -1.32898597E-12
   1.10000002      -1.57606502E-12
   1.10249996      -1.82973363E-12
   1.10500002      -2.08992892E-12
   1.10749996      -2.35657956E-12
   1.11000001      -2.62960465E-12
   1.11249995      -2.90891400E-12
   1.11500001      -3.19440633E-12
   1.11749995      -3.48597214E-12
   1.12000000      -3.78349132E-12
   1.12249994      -4.08683330E-12
   1.12500000      -4.39585781E-12
   1.12750006      -4.71041348E-12
   1.13000000      -5.03033899E-12
   1.13250005      -5.35546130E-12
   1.13499999      -5.68559826E-12
   1.13750005      -6.02055558E-12
   1.13999999      -6.36012770E-12
   1.14250004      -6.70409995E-12
   1.14499998      -7.05224377E-12
   1.14750004      -7.40432195E-12
   1.14999998      -7.76008598E-12
   1.15250003      -8.11927435E-12
   1.15499997      -8.48161472E-12
   1.15750003      -8.84682518E-12
   1.15999997      -9.21460998E-12
   1.16250002      -9.58466639E-12
   1.16499996      -9.95667611E-12
   1.16750002      -1.03303130E-11
   1.16999996      -1.07052379E-11
   1.17250001      -1.10811022E-11
   1.17499995      -1.14575467E-11
   1.17750001      -1.18341994E-11
   1.17999995      -1.22106804E-11
   1.18250000      -1.25865967E-11
   1.18499994      -1.29615485E-11
   1.18750000      -1.33351221E-11
   1.19000006      -1.37068985E-11
   1.19250000      -1.40764440E-11
   1.19500005      -1.44433198E-11
   1.19749999      -1.48070740E-11
   1.20000005      -1.51672511E-11
   1.20249999      -1.55233812E-11
   1.20500004      -1.58749923E-11
   1.20749998      -1.62215935E-11
   1.21000004      -1.65626991E-11
   1.21249998      -1.68978095E-11
   1.21500003      -1.72264182E-11
   1.21749997      -1.75480134E-11
   1.22000003      -1.78620747E-11
   1.22249997      -1.81680782E-11
   1.22500002      -1.84654948E-11
   1.22749996      -1.87537867E-11
   1.23000002      -1.90324145E-11
   1.23249996      -1.93008352E-11
   1.23500001      -1.95584989E-11
   1.23749995      -1.98048574E-11
   1.24000001      -2.00393539E-11
   1.24249995      -2.02614332E-11
   1.24500000      -2.04705367E-11
   1.24749994      -2.06661077E-11
   1.25000000      -2.08475823E-11
   1.25250006      -2.10144038E-11
   1.25500000      -2.11660134E-11
   1.25750005      -2.13018526E-11
   1.25999999      -2.14213664E-11
   1.26250005      -2.15239996E-11
   1.26499999      -2.16092023E-11
   1.26750004      -2.16764297E-11
   1.26999998      -2.17251338E-11
   1.27250004      -2.17547837E-11
   1.27499998      -2.17648434E-11
   1.27750003      -2.17547872E-11
   1.27999997      -2.17241017E-11
   1.28250003      -2.16722716E-11
   1.28499997      -2.15987991E-11
   1.28750002      -2.15031881E-11
   1.28999996      -2.13849598E-11
   1.29250002      -2.12436423E-11
   1.29499996      -2.10787741E-11
   1.29750001      -2.08899096E-11
   1.29999995      -2.06766132E-11
   1.30250001      -2.04384652E-11
   1.30499995      -2.01750578E-11
   1.30750000      -1.98860043E-11
   1.30999994      -1.95709265E-11
   1.31250000      -1.92294687E-11
   1.31500006      -1.88612910E-11
   1.31750000      -1.84660724E-11
   1.32000005      -1.80435111E-11
   1.32249999      -1.75933244E-11
   1.32500005      -1.71152502E-11
   1.32749999      -1.66090509E-11
   1.33000004      -1.60745046E-11
   1.33249998      -1.55114185E-11
   1.33500004      -1.49196194E-11
   1.33749998      -1.42989587E-11
   1.34000003      -1.36493117E-11
   1.34249997      -1.29705803E-11
   1.34500003      -1.22626909E-11
   1.34749997      -1.15255973E-11
   1.35000002      -1.07592780E-11
   1.35249996      -9.96373990E-12
   1.35500002      -9.13901593E-12
   1.35749996      -8.28516856E-12
   1.36000001      -7.40228625E-12
   1.36249995      -6.49048653E-12
   1.36500001      -5.54991556E-12
   1.36749995      -4.58074897E-12
   1.37000000      -3.58318952E-12
   1.37249994      -2.55746834E-12
   1.37500000      -1.50384739E-12
   1.37750006      -4.22614092E-13
   1.38000000       6.85914812E-13
   1.38250005       1.82139113E-12
   1.38499999       2.98344314E-12
   1.38750005       4.17167212E-12
   1.38999999       5.38564809E-12
   1.39250004       6.62491850E-12
   1.39499998       7.88900369E-12
   1.39750004       9.17740016E-12
   1.39999998       1.04895771E-11
   1.40250003       1.18249828E-11
   1.40499997       1.31830397E-11
   1.40750003       1.45631528E-11
   1.40999997       1.59647035E-11
   1.41250002       1.73870571E-11
   1.41499996       1.88295542E-11
   1.41750002       2.02915237E-11
   1.41999996       2.17722750E-11
   1.42250001       2.32711055E-11
   1.42499995       2.47873007E-11
   1.42750001       2.63201318E-11
   1.42999995       2.78688583E-11
   1.43250000       2.94327340E-11
   1.43499994       3.10110028E-11
   1.43750000       3.26029100E-11
   1.44000006       3.42076888E-11
   1.44250000       3.58245690E-11
   1.44500005       3.74527909E-11
   1.44749999       3.90915876E-11
   1.45000005       4.07401925E-11
   1.45249999       4.23978491E-11
   1.45500004       4.40638047E-11
   1.45749998       4.57373132E-11
   1.46000004       4.74176358E-11
   1.46249998       4.91040507E-11
   1.46500003       5.07958328E-11
   1.46749997       5.24922918E-11
   1.47000003       5.41927267E-11
   1.47249997       5.58964749E-11
   1.47500002       5.76028669E-11
   1.47749996       5.93112642E-11
   1.48000002       6.10210493E-11
   1.48249996       6.27316046E-11
   1.48500001       6.44423404E-11
   1.48749995       6.61526944E-11
   1.49000001       6.78621048E-11
   1.49249995       6.95700442E-11
   1.49500000       7.12759921E-11
   1.49749994       7.29794419E-11
   1.50000000       7.46799150E-11
   1.50250006       7.63769326E-11
   1.50500000       7.80700365E-11
   1.50750005       7.97587760E-11
   1.50999999       8.14427137E-11
   1.51250005       8.31214195E-11
   1.51499999       8.47944562E-11
   1.51750004       8.64614005E-11
   1.51999998       8.81218223E-11
   1.52250004       8.97752706E-11
   1.52499998       9.14213219E-11
   1.52750003       9.30594976E-11
   1.52999997       9.46893258E-11
   1.53250003       9.63103000E-11
   1.53499997       9.79218998E-11
   1.53750002       9.95235283E-11
   1.53999996       1.01114610E-10
   1.54250002       1.02694478E-10
   1.54499996       1.04262432E-10
   1.54750001       1.05817702E-10
   1.54999995       1.07359455E-10
   1.55250001       1.08886788E-10
   1.55499995       1.10398725E-10
   1.55750000       1.11894188E-10
   1.55999994       1.13371999E-10
   1.56250000       1.14830888E-10
   1.56500006       1.16269459E-10
   1.56750000       1.17686208E-10
   1.57000005       1.19079510E-10
   1.57249999       1.20447582E-10
   1.57500005       1.21788496E-10
   1.57749999       1.23100183E-10
   1.58000004       1.24380409E-10
   1.58249998       1.25626759E-10
   1.58500004       1.26836652E-10
   1.58749998       1.28007313E-10
   1.59000003       1.29135758E-10
   1.59249997       1.30218850E-10
   1.59500003       1.31253175E-10
   1.59749997       1.32235167E-10
   1.60000002       1.33161010E-10
   1.60249996       1.34026665E-10
   1.60500002       1.34827843E-10
   1.60749996       1.35560063E-10
   1.61000001       1.36218550E-10
   1.61249995       1.36798337E-10
   1.61500001       1.37294176E-10
   1.61749995       1.37700587E-10
   1.62000000       1.38011838E-10
   1.62249994       1.38221962E-10
   1.62500000       1.38324727E-10
   1.62750006       1.38313680E-10
   1.63000000       1.38182105E-10
   1.63250005       1.37923062E-10
   1.63499999       1.37529377E-10
   1.63750005       1.36993653E-10
   1.63999999       1.36308298E-10
   1.64250004       1.35465458E-10
   1.64499998       1.34457168E-10
   1.64750004       1.33275196E-10
   1.64999998       1.31911190E-10
   1.65250003       1.30356628E-10
   1.65499997       1.28602851E-10
   1.65750003       1.26641059E-10
   1.65999997       1.24462357E-10
   1.66250002       1.22057794E-10
   1.66499996       1.19418295E-10
   1.66750002       1.16534823E-10
   1.66999996       1.13398242E-10
   1.67250001       1.09999489E-10
   1.67499995       1.06329515E-10
   1.67750001       1.02379327E-10
   1.67999995       9.81400308E-11
   1.68250000       9.36028755E-11
   1.68499994       8.87592361E-11
   1.68750000       8.36006958E-11
   1.69000006       7.81190668E-11
   1.69250000       7.23064109E-11
   1.69500005       6.61550884E-11
   1.69749999       5.96577926E-11
   1.70000005       5.28076055E-11
   1.70249999       4.55980045E-11
   1.70500004       3.80229286E-11
   1.70749998       3.00768091E-11
   1.71000004       2.17546241E-11
   1.71249998       1.30519207E-11
   1.71500003       3.96486750E-12
   1.71749997      -5.50968125E-12
   1.72000003      -1.53741742E-11
   1.72249997      -2.56302896E-11
   1.72500002      -3.62789208E-11
   1.72749996      -4.73200992E-11
   1.73000002      -5.87529608E-11
   1.73249996      -7.05756911E-11
   1.73500001      -8.27855146E-11
   1.73749995      -9.53786147E-11
   1.74000001      -1.08350107E-10
   1.74249995      -1.21693947E-10
   1.74500000      -1.35402953E-10
   1.74749994      -1.49468743E-10
   1.75000000      -1.63881672E-10
   1.75250006      -1.78630791E-10
   1.75500000      -1.93703831E-10
   1.75750005      -2.09087164E-10
   1.75999999      -2.24765664E-10
   1.76250005      -2.40722858E-10
   1.76499999      -2.56940719E-10
   1.76750004      -2.73399747E-10
   1.76999998      -2.90078850E-10
   1.77250004      -3.06955433E-10
   1.77499998      -3.24005212E-10
   1.77750003      -3.41202372E-10
   1.77999997      -3.58519325E-10
   1.78250003      -3.75926956E-10
   1.78499997      -3.93394428E-10
   1.78750002      -4.10889239E-10
   1.78999996      -4.28377167E-10
   1.79250002      -4.45822379E-10
   1.79499996      -4.63187322E-10
   1.79750001      -4.80432860E-10
   1.79999995      -4.97518027E-10
   1.80250001      -5.14400578E-10
   1.80499995      -5.31036326E-10
   1.80750000      -5.47379753E-10
   1.80999994      -5.63383840E-10
   1.81250000      -5.79000070E-10
   1.81500006      -5.94178484E-10
   1.81750000      -6.08867956E-10
   1.82000005      -6.23016083E-10
   1.82249999      -6.36569297E-10
   1.82500005      -6.49472975E-10
   1.82749999      -6.61671551E-10
   1.83000004      -6.73108680E-10
   1.83249998      -6.83727297E-10
   1.83500004      -6.93469893E-10
   1.83749998      -7.02278402E-10
   1.84000003      -7.10094705E-10
   1.84249997      -7.16860460E-10
   1.84500003      -7.22517490E-10
   1.84749997      -7.27008065E-10
   1.85000002      -7.30274785E-10
   1.85249996      -7.32261085E-10
   1.85500002      -7.32911343E-10
   1.85749996      -7.32171213E-10
   1.86000001      -7.29987681E-10
   1.86249995      -7.26309624E-10
   1.86500001      -7.21087745E-10
   1.86749995      -7.14274973E-10
   1.87000000      -7.05826897E-10
   1.87249994      -6.95701941E-10
   1.87500000      -6.83861467E-10
   1.87750006      -6.70270561E-10
   1.88000000      -6.54897692E-10
   1.88250005      -6.37715603E-10
   1.88499999      -6.18701368E-10
   1.88750005      -5.97836614E-10
   1.88999999      -5.75107961E-10
   1.89250004      -5.50507306E-10
   1.89499998      -5.24032151E-10
   1.89750004      -4.95685826E-10
   1.89999998      -4.65477740E-10
   1.90250003      -4.33423825E-10
   1.90499997      -3.99546646E-10
   1.90750003      -3.63875680E-10
   1.90999997      -3.26447591E-10
   1.91250002      -2.87306429E-10
   1.91499996      -2.46503817E-10
   1.91750002      -2.04099099E-10
   1.91999996      -1.60159538E-10
   1.92250001      -1.14760430E-10
   1.92499995      -6.79851592E-11
   1.92750001      -1.99253010E-11
   1.92999995       2.93193386E-11
   1.93250000       7.96407454E-11
   1.93499994       1.30922745E-10
   1.93750000       1.83041013E-10
   1.94000006       2.35863273E-10
   1.94250000       2.89249374E-10
   1.94500005       3.43051532E-10
   1.94749999       3.97114425E-10
   1.95000005       4.51275711E-10
   1.95249999       5.05366193E-10
   1.95500004       5.59210123E-10
   1.95749998       6.12625617E-10
   1.96000004       6.65425326E-10
   1.96249998       7.17416571E-10
   1.96500003       7.68402175E-10
   1.96749997       8.18180856E-10
   1.97000003       8.66547833E-10
   1.97249997       9.13295606E-10
   1.97500002       9.58214397E-10
   1.97749996       1.00109321E-09
   1.98000002       1.04172027E-09
   1.98249996       1.07988363E-09
   1.98500001       1.11537268E-09
   1.98749995       1.14797838E-09
   1.99000001       1.17749399E-09
   1.99249995       1.20371624E-09
   1.99500000       1.22644628E-09
   1.99749994       1.24549004E-09
   2.00000000       1.26065958E-09
   2.00250006       1.27177380E-09
   2.00500011       1.27865929E-09
   2.00749993       1.28115074E-09
   2.00999999       1.27909228E-09
   2.01250005       1.27233857E-09
   2.01500010       1.26075461E-09
   2.01749992       1.24421695E-09
   2.01999998       1.22261457E-09
   2.02250004       1.19584898E-09
   2.02500010       1.16383547E-09
   2.02749991       1.12650311E-09
   2.02999997       1.08379539E-09
   2.03250003       1.03567044E-09
   2.03500009       9.82101844E-10
   2.03749990       9.23078280E-10
   2.03999996       8.58604132E-10
   2.04250002       7.88699384E-10
   2.04500008       7.13399673E-10
   2.04749990       6.32756236E-10
   2.04999995       5.46835854E-10
   2.05250001       4.55720406E-10
   2.05500007       3.59506674E-10
   2.05749989       2.58305988E-10
   2.05999994       1.52243579E-10
   2.06250000       4.14581702E-11
   2.06500006      -7.38987899E-11
   2.06750011      -1.93663793E-10
   2.06999993      -3.17662119E-10
   2.07249999      -4.45708581E-10
   2.07500005      -5.77608517E-10
   2.07750010      -7.13158976E-10
   2.07999992      -8.52149129E-10
   2.08249998      -9.94361926E-10
   2.08500004      -1.13957488E-09
   2.08750010      -1.28756117E-09
   2.08999991      -1.43809087E-09
   2.09249997      -1.59093161E-09
   2.09500003      -1.74585024E-09
   2.09750009      -1.90261362E-09
   2.09999990      -2.06098916E-09
   2.10249996      -2.22074648E-09
   2.10500002      -2.38165776E-09
   2.10750008      -2.54349874E-09
   2.10999990      -2.70604938E-09
   2.11249995      -2.86909430E-09
   2.11500001      -3.03242342E-09