  -2.50000004E-02   0.00000000    
  -2.25000009E-02   0.00000000    
  -1.99999996E-02   0.00000000    
  -1.75000001E-02  -5.02173075E-23
  -1.49999997E-02  -3.42527999E-22
  -1.25000002E-02  -1.34247687E-21
  -9.99999978E-03  -3.96056783E-21
  -7.49999983E-03  -9.76143482E-21
  -4.99999989E-03  -2.12090870E-20
  -2.49999994E-03  -4.19460316E-20
   0.00000000      -7.71037603E-20
   2.49999994E-03  -1.33641962E-19
   4.99999989E-03  -2.20713242E-19
   7.49999983E-03  -3.50049859E-19
   9.99999978E-03  -5.36369397E-19
   1.25000002E-02  -7.97794659E-19
   1.49999997E-02  -1.15628445E-18
   1.75000001E-02  -1.63807021E-18
   1.99999996E-02  -2.27409404E-18
   2.25000009E-02  -3.10044582E-18
   2.50000004E-02  -4.15879032E-18
   2.74999999E-02  -5.49677854E-18
   2.99999993E-02  -7.16844645E-18
   3.24999988E-02  -9.23458894E-18
   3.50000001E-02  -1.17631022E-17
   3.75000015E-02  -1.48292920E-17
   3.99999991E-02  -1.85161468E-17
   4.25000004E-02  -2.29145623E-17
   4.50000018E-02  -2.81235188E-17
   4.74999994E-02  -3.42501974E-17
   5.00000007E-02  -4.14100280E-17
   5.24999984E-02  -4.97267103E-17
   5.49999997E-02  -5.93321102E-17
   5.75000010E-02  -7.03661173E-17
   5.99999987E-02  -8.29764195E-17
   6.25000000E-02  -9.73181696E-17
   6.49999976E-02  -1.13553581E-16
   6.75000027E-02  -1.31851412E-16
   7.00000003E-02  -1.52386429E-16
   7.24999979E-02  -1.75338639E-16
   7.50000030E-02  -2.00892551E-16
   7.75000006E-02  -2.29236232E-16
   7.99999982E-02  -2.60560331E-16
   8.25000033E-02  -2.95056913E-16
   8.50000009E-02  -3.32918306E-16
   8.74999985E-02  -3.74335703E-16
   9.00000036E-02  -4.19497726E-16
   9.25000012E-02  -4.68588844E-16
   9.49999988E-02  -5.21787754E-16
   9.74999964E-02  -5.79265557E-16
  0.100000001      -6.41183877E-16
  0.102499999      -7.07693063E-16
  0.104999997      -7.78929645E-16
  0.107500002      -8.55014539E-16
  0.109999999      -9.36050710E-16
  0.112499997      -1.02212069E-15
  0.115000002      -1.11328410E-15
  0.117500000      -1.20957512E-15
  0.119999997      -1.31099980E-15
  0.122500002      -1.41753357E-15
  0.125000000      -1.52911862E-15
  0.127499998      -1.64566093E-15
  0.129999995      -1.76702698E-15
  0.132499993      -1.89304219E-15
  0.135000005      -2.02348569E-15
  0.137500003      -2.15809045E-15
  0.140000001      -2.29653798E-15
  0.142499998      -2.43845666E-15
  0.144999996      -2.58341894E-15
  0.147499993      -2.73093756E-15
  0.150000006      -2.88046344E-15
  0.152500004      -3.03138205E-15
  0.155000001      -3.18301281E-15
  0.157499999      -3.33460566E-15
  0.159999996      -3.48533729E-15
  0.162499994      -3.63431006E-15
  0.165000007      -3.78054987E-15
  0.167500004      -3.92300345E-15
  0.170000002      -4.06053788E-15
  0.172499999      -4.19193599E-15
  0.174999997      -4.31589841E-15
  0.177499995      -4.43104068E-15
  0.180000007      -4.53589235E-15
  0.182500005      -4.62889487E-15
  0.185000002      -4.70840331E-15
  0.187500000      -4.77268464E-15
  0.189999998      -4.81991944E-15
  0.192499995      -4.84819975E-15
  0.194999993      -4.85553082E-15
  0.197500005      -4.83983361E-15
  0.200000003      -4.79894394E-15
  0.202500001      -4.73061633E-15
  0.204999998      -4.63252314E-15
  0.207499996      -4.50226091E-15
  0.209999993      -4.33734952E-15
  0.212500006      -4.13523857E-15
  0.215000004      -3.89331240E-15
  0.217500001      -3.60888933E-15
  0.219999999      -3.27922749E-15
  0.222499996      -2.90153444E-15
  0.224999994      -2.47296944E-15
  0.227500007      -1.99064940E-15
  0.230000004      -1.45165756E-15
  0.232500002      -8.53045717E-16
  0.234999999      -1.91847086E-16
  0.237499997       5.34915653E-16
  0.239999995       1.33022575E-15
  0.242500007       2.19705778E-15
  0.245000005       3.13837438E-15
  0.247500002       4.15711489E-15
  0.250000000       5.25618037E-15
  0.252499998       6.43842660E-15
  0.254999995       7.70665050E-15
  0.257499993       9.06357780E-15
  0.259999990       1.05118551E-14
  0.262499988       1.20540319E-14
  0.264999986       1.36925459E-14
  0.267500013       1.54297148E-14
  0.270000011       1.72677204E-14
  0.272500008       1.92085897E-14
  0.275000006       2.12541912E-14
  0.277500004       2.34062020E-14
  0.280000001       2.56661080E-14
  0.282499999       2.80351778E-14
  0.284999996       3.05144568E-14
  0.287499994       3.31047378E-14
  0.289999992       3.58065594E-14
  0.292499989       3.86201826E-14
  0.294999987       4.15455600E-14
  0.297500014       4.45823425E-14
  0.300000012       4.77298424E-14
  0.302500010       5.09870331E-14
  0.305000007       5.43525152E-14
  0.307500005       5.78245202E-14
  0.310000002       6.14008762E-14
  0.312500000       6.50789847E-14
  0.314999998       6.88558436E-14
  0.317499995       7.27279632E-14
  0.319999993       7.66914269E-14
  0.322499990       8.07418029E-14
  0.324999988       8.48741921E-14
  0.327499986       8.90831801E-14
  0.330000013       9.33628175E-14
  0.332500011       9.77066125E-14
  0.335000008       1.02107525E-13
  0.337500006       1.06557971E-13
  0.340000004       1.11049760E-13
  0.342500001       1.15574122E-13
  0.344999999       1.20121686E-13
  0.347499996       1.24682464E-13
  0.349999994       1.29245871E-13
  0.352499992       1.33800685E-13
  0.354999989       1.38335049E-13
  0.357499987       1.42836467E-13
  0.360000014       1.47291820E-13
  0.362500012       1.51687324E-13
  0.365000010       1.56008561E-13
  0.367500007       1.60240460E-13
  0.370000005       1.64367272E-13
  0.372500002       1.68372667E-13
  0.375000000       1.72239610E-13
  0.377499998       1.75950495E-13
  0.379999995       1.79487027E-13
  0.382499993       1.82830327E-13
  0.384999990       1.85960907E-13
  0.387499988       1.88858654E-13
  0.389999986       1.91502887E-13
  0.392500013       1.93872370E-13
  0.395000011       1.95945297E-13
  0.397500008       1.97699360E-13
  0.400000006       1.99111696E-13
  0.402500004       2.00158968E-13
  0.405000001       2.00817404E-13
  0.407499999       2.01062799E-13
  0.409999996       2.00870502E-13
  0.412499994       2.00215549E-13
  0.414999992       1.99072597E-13
  0.417499989       1.97415990E-13
  0.419999987       1.95219817E-13
  0.422500014       1.92457974E-13
  0.425000012       1.89104131E-13
  0.427500010       1.85131844E-13
  0.430000007       1.80514566E-13
  0.432500005       1.75225746E-13
  0.435000002       1.69238782E-13
  0.437500000       1.62527191E-13
  0.439999998       1.55064533E-13
  0.442499995       1.46824610E-13
  0.444999993       1.37781429E-13
  0.447499990       1.27909293E-13
  0.449999988       1.17182875E-13
  0.452499986       1.05577277E-13
  0.455000013       9.30680771E-14
  0.457500011       7.96313834E-14
  0.460000008       6.52439664E-14
  0.462500006       4.98833390E-14
  0.465000004       3.35277528E-14
  0.467500001       1.61562810E-14
  0.469999999      -2.25098328E-15
  0.472499996      -2.17130018E-14
  0.474999994      -4.22476792E-14
  0.477499992      -6.38716578E-14
  0.479999989      -8.66003436E-14
  0.482499987      -1.10447831E-13
  0.485000014      -1.35426772E-13
  0.487500012      -1.61548292E-13
  0.490000010      -1.88821953E-13
  0.492500007      -2.17255630E-13
  0.495000005      -2.46855433E-13
  0.497500002      -2.77625525E-13
  0.500000000      -3.09568153E-13
  0.502499998      -3.42683537E-13
  0.504999995      -3.76969885E-13
  0.507499993      -4.12422971E-13
  0.509999990      -4.49036479E-13
  0.512499988      -4.86801517E-13
  0.514999986      -5.25706757E-13
  0.517499983      -5.65738428E-13
  0.519999981      -6.06879998E-13
  0.522499979      -6.49112166E-13
  0.524999976      -6.92412924E-13
  0.527499974      -7.36757389E-13
  0.529999971      -7.82117481E-13
  0.532500029      -8.28462353E-13
  0.535000026      -8.75757800E-13
  0.537500024      -9.23966524E-13
  0.540000021      -9.73048031E-13
  0.542500019      -1.02295830E-12
  0.545000017      -1.07365028E-12
  0.547500014      -1.12507312E-12
  0.550000012      -1.17717240E-12
  0.552500010      -1.22989043E-12
  0.555000007      -1.28316563E-12
  0.557500005      -1.33693295E-12
  0.560000002      -1.39112354E-12
  0.562500000      -1.44566488E-12
  0.564999998      -1.50048073E-12
  0.567499995      -1.55549076E-12
  0.569999993      -1.61061106E-12
  0.572499990      -1.66575401E-12
  0.574999988      -1.72082802E-12
  0.577499986      -1.77573743E-12
  0.579999983      -1.83038307E-12
  0.582499981      -1.88466170E-12
  0.584999979      -1.93846631E-12
  0.587499976      -1.99168633E-12
  0.589999974      -2.04420682E-12
  0.592499971      -2.09591003E-12
  0.595000029      -2.14667368E-12
  0.597500026      -2.19637199E-12
  0.600000024      -2.24487616E-12
  0.602500021      -2.29205305E-12
  0.605000019      -2.33776648E-12
  0.607500017      -2.38187725E-12
  0.610000014      -2.42424201E-12
  0.612500012      -2.46471506E-12
  0.615000010      -2.50314721E-12
  0.617500007      -2.53938667E-12
  0.620000005      -2.57327818E-12
  0.622500002      -2.60466431E-12
  0.625000000      -2.63338461E-12
  0.627499998      -2.65927710E-12
  0.629999995      -2.68217675E-12
  0.632499993      -2.70191638E-12
  0.634999990      -2.71832752E-12
  0.637499988      -2.73123906E-12
  0.639999986      -2.74047972E-12
  0.642499983      -2.74587579E-12
  0.644999981      -2.74725295E-12
  0.647499979      -2.74443576E-12
  0.649999976      -2.73724793E-12
  0.652499974      -2.72551361E-12
  0.654999971      -2.70905585E-12
  0.657500029      -2.68769859E-12
  0.660000026      -2.66126596E-12
  0.662500024      -2.62958210E-12
  0.665000021      -2.59247268E-12
  0.667500019      -2.54976487E-12
  0.670000017      -2.50128650E-12
  0.672500014      -2.44686801E-12
  0.675000012      -2.38634156E-12
  0.677500010      -2.31954234E-12
  0.680000007      -2.24630774E-12
  0.682500005      -2.16647837E-12
  0.685000002      -2.07989875E-12
  0.687500000      -1.98641732E-12
  0.689999998      -1.88588641E-12
  0.692499995      -1.77816290E-12
  0.694999993      -1.66310845E-12
  0.697499990      -1.54059057E-12
  0.699999988      -1.41048208E-12
  0.702499986      -1.27266221E-12
  0.704999983      -1.12701634E-12
  0.707499981      -9.73437043E-13
  0.709999979      -8.11823536E-13
  0.712499976      -6.42083500E-13
  0.714999974      -4.64132042E-13
  0.717499971      -2.77892726E-13
  0.720000029      -8.32982975E-14
  0.722500026       1.19709581E-13
  0.725000024       3.31179664E-13
  0.727500021       5.51150271E-13
  0.730000019       7.79649728E-13
  0.732500017       1.01669519E-12
  0.735000014       1.26229279E-12
  0.737500012       1.51643726E-12
  0.740000010       1.77911115E-12
  0.742500007       2.05028486E-12
  0.745000005       2.32991577E-12
  0.747500002       2.61794818E-12
  0.750000000       2.91431267E-12
  0.752499998       3.21892751E-12
  0.754999995       3.53169555E-12
  0.757499993       3.85250512E-12
  0.759999990       4.18123001E-12
  0.762499988       4.51772907E-12
  0.764999986       4.86184574E-12
  0.767499983       5.21340696E-12
  0.769999981       5.57222541E-12
  0.772499979       5.93809507E-12
  0.774999976       6.31079564E-12
  0.777499974       6.69008945E-12
  0.779999971       7.07572109E-12
  0.782500029       7.46741731E-12
  0.785000026       7.86489016E-12
  0.787500024       8.26783086E-12
  0.790000021       8.67591502E-12
  0.792500019       9.08880003E-12
  0.795000017       9.50612419E-12
  0.797500014       9.92750847E-12
  0.800000012       1.03525556E-11
  0.802500010       1.07808510E-11
  0.805000007       1.12119584E-11
  0.807500005       1.16454268E-11
  0.810000002       1.20807843E-11
  0.812500000       1.25175417E-11
  0.814999998       1.29551916E-11
  0.817499995       1.33932075E-11
  0.819999993       1.38310439E-11
  0.822499990       1.42681396E-11
  0.824999988       1.47039134E-11
  0.827499986       1.51377660E-11
  0.829999983       1.55690825E-11
  0.832499981       1.59972278E-11
  0.834999979       1.64215516E-11
  0.837499976       1.68413859E-11
  0.839999974       1.72560456E-11
  0.842499971       1.76648262E-11
  0.845000029       1.80670132E-11
  0.847500026       1.84618709E-11
  0.850000024       1.88486535E-11
  0.852500021       1.92265943E-11
  0.855000019       1.95949160E-11
  0.857500017       1.99528224E-11
  0.860000014       2.02995086E-11
  0.862500012       2.06341576E-11
  0.865000010       2.09559332E-11
  0.867500007       2.12639940E-11
  0.870000005       2.15574815E-11
  0.872500002       2.18355299E-11
  0.875000000       2.20972615E-11
  0.877499998       2.23417899E-11
  0.879999995       2.25682164E-11
  0.882499993       2.27756442E-11
  0.884999990       2.29631557E-11
  0.887499988       2.31298401E-11
  0.889999986       2.32747693E-11
  0.892499983       2.33970187E-11
  0.894999981       2.34956568E-11
  0.897499979       2.35697468E-11
  0.899999976       2.36183521E-11
  0.902499974       2.36405357E-11
  0.904999971       2.36353610E-11
  0.907500029       2.36018895E-11
  0.910000026       2.35391880E-11
  0.912500024       2.34463247E-11
  0.915000021       2.33223701E-11
  0.917500019       2.31664063E-11
  0.920000017       2.29775123E-11
  0.922500014       2.27547859E-11
  0.925000012       2.24973252E-11
  0.927500010       2.22042471E-11
  0.930000007       2.18746722E-11
  0.932500005       2.15077400E-11
  0.935000002       2.11026006E-11
  0.937500000       2.06584246E-11
  0.939999998       2.01743934E-11
  0.942499995       1.96497107E-11
  0.944999993       1.90836062E-11
  0.947499990       1.84753220E-11
  0.949999988       1.78241293E-11
  0.952499986       1.71293205E-11
  0.954999983       1.63902208E-11
  0.957499981       1.56061778E-11
  0.959999979       1.47765723E-11
  0.962499976       1.39008163E-11
  0.964999974       1.29783519E-11
  0.967499971       1.20086632E-11
  0.970000029       1.09912643E-11
  0.972500026       9.92571303E-12
  0.975000024       8.81160596E-12
  0.977500021       7.64858229E-12
  0.980000019       6.43632500E-12
  0.982500017       5.17456304E-12
  0.985000014       3.86307392E-12
  0.987500012       2.50168441E-12
  0.990000010       1.09027490E-12
  0.992500007      -3.71221256E-13
  0.995000005      -1.88281747E-12
  0.997500002      -3.44446889E-12
   1.00000000      -5.05606971E-12
   1.00250006      -6.71745472E-12
   1.00500000      -8.42839513E-12
   1.00750005      -1.01885956E-11
   1.00999999      -1.19976945E-11
   1.01250005      -1.38552650E-11
   1.01499999      -1.57608059E-11
   1.01750004      -1.77137454E-11
   1.01999998      -1.97134392E-11
   1.02250004      -2.17591674E-11
   1.02499998      -2.38501302E-11
   1.02750003      -2.59854499E-11
   1.02999997      -2.81641672E-11
   1.03250003      -3.03852464E-11
   1.03499997      -3.26475652E-11
   1.03750002      -3.49499180E-11
   1.03999996      -3.72910106E-11
   1.04250002      -3.96694587E-11
   1.04499996      -4.20838017E-11
   1.04750001      -4.45324749E-11
   1.04999995      -4.70138338E-11
   1.05250001      -4.95261367E-11
   1.05499995      -5.20675586E-11
   1.05750000      -5.46361775E-11
   1.05999994      -5.72299742E-11
   1.06250000      -5.98468289E-11
   1.06500006      -6.24845592E-11
   1.06750000      -6.51408510E-11
   1.07000005      -6.78133175E-11
   1.07249999      -7.04994813E-11
   1.07500005      -7.31967473E-11
   1.07749999      -7.59024649E-11
   1.08000004      -7.86138515E-11
   1.08249998      -8.13280623E-11
   1.08500004      -8.40421482E-11
   1.08749998      -8.67530700E-11
   1.09000003      -8.94577051E-11
   1.09249997      -9.21528340E-11
   1.09500003      -9.48351606E-11
   1.09749997      -9.75012987E-11
   1.10000002      -1.00147786E-10
   1.10249996      -1.02771076E-10
   1.10500002      -1.05367548E-10
   1.10749996      -1.07933495E-10
   1.11000001      -1.10465144E-10
   1.11249995      -1.12958642E-10
   1.11500001      -1.15410077E-10
   1.11749995      -1.17815480E-10
   1.12000000      -1.20170818E-10
   1.12249994      -1.22471963E-10
   1.12500000      -1.24714794E-10
   1.12750006      -1.26895092E-10
   1.13000000      -1.29008609E-10
   1.13250005      -1.31051059E-10
   1.13499999      -1.33018097E-10
   1.13750005      -1.34905379E-10
   1.13999999      -1.36708492E-10
   1.14250004      -1.38423009E-10
   1.14499998      -1.40044490E-10
   1.14750004      -1.41568479E-10
   1.14999998      -1.42990508E-10
   1.15250003      -1.44306095E-10
   1.15499997      -1.45510770E-10
   1.15750003      -1.46600052E-10
   1.15999997      -1.47569484E-10
   1.16250002      -1.48414628E-10
   1.16499996      -1.49131041E-10
   1.16750002      -1.49714338E-10
   1.16999996      -1.50160134E-10
   1.17250001      -1.50464127E-10
   1.17499995      -1.50622001E-10
   1.17750001      -1.50629550E-10
   1.17999995      -1.50482571E-10
   1.18250000      -1.50176968E-10
   1.18499994      -1.49708690E-10
   1.18750000      -1.49073753E-10
   1.19000006      -1.48268273E-10
   1.19250000      -1.47288431E-10
   1.19500005      -1.46130524E-10
   1.19749999      -1.44790929E-10
   1.20000005      -1.43266135E-10
   1.20249999      -1.41552728E-10
   1.20500004      -1.39647446E-10
   1.20749998      -1.37547126E-10
   1.21000004      -1.35248729E-10
   1.21249998      -1.32749381E-10
   1.21500003      -1.30046293E-10
   1.21749997      -1.27136898E-10
   1.22000003      -1.24018740E-10
   1.22249997      -1.20689528E-10
   1.22500002      -1.17147139E-10
   1.22749996      -1.13389617E-10
   1.23000002      -1.09415213E-10
   1.23249996      -1.05222331E-10
   1.23500001      -1.00809590E-10
   1.23749995      -9.61757826E-11
   1.24000001      -9.13199169E-11
   1.24249995      -8.62412225E-11
   1.24500000      -8.09391235E-11
   1.24749994      -7.54132728E-11
   1.25000000      -6.96635596E-11
   1.25250006      -6.36900879E-11
   1.25500000      -5.74932081E-11
   1.25750005      -5.10735100E-11
   1.25999999      -4.44318402E-11
   1.26250005      -3.75692984E-11
   1.26499999      -3.04872343E-11
   1.26750004      -2.31872681E-11
   1.26999998      -1.56712889E-11
   1.27250004      -7.94145218E-12
   1.27499998      -1.97583762E-16
   1.27750003       8.14974650E-12
   1.27999997       1.65053735E-11
   1.28250003       2.50633906E-11
   1.28499997       3.38202140E-11
   1.28750002       4.27719492E-11
   1.28999996       5.19144276E-11
   1.29250002       6.12431564E-11
   1.29499996       7.07533407E-11
   1.29750001       8.04398909E-11
   1.29999995       9.02974154E-11
   1.30250001       1.00320210E-10
   1.30499995       1.10502253E-10
   1.30750000       1.20837215E-10
   1.30999994       1.31318512E-10
   1.31250000       1.41939210E-10
   1.31500006       1.52692067E-10
   1.31750000       1.63569561E-10
   1.32000005       1.74563905E-10
   1.32249999       1.85666982E-10
   1.32500005       1.96870395E-10
   1.32749999       2.08165499E-10
   1.33000004       2.19543370E-10
   1.33249998       2.30994765E-10
   1.33500004       2.42510290E-10
   1.33749998       2.54080257E-10
   1.34000003       2.65694688E-10
   1.34249997       2.77343509E-10
   1.34500003       2.89016339E-10
   1.34749997       3.00702657E-10
   1.35000002       3.12391751E-10
   1.35249996       3.24072741E-10
   1.35500002       3.35734635E-10
   1.35749996       3.47366275E-10
   1.36000001       3.58956448E-10
   1.36249995       3.70493747E-10
   1.36500001       3.81966847E-10
   1.36749995       3.93364286E-10
   1.37000000       4.04674599E-10
   1.37249994       4.15886353E-10
   1.37500000       4.26988112E-10
   1.37750006       4.37968550E-10
   1.38000000       4.48816373E-10
   1.38250005       4.59520366E-10
   1.38499999       4.70069539E-10
   1.38750005       4.80453066E-10
   1.38999999       4.90660290E-10
   1.39250004       5.00680719E-10
   1.39499998       5.10504194E-10
   1.39750004       5.20120724E-10
   1.39999998       5.29520872E-10
   1.40250003       5.38695311E-10
   1.40499997       5.47635159E-10
   1.40750003       5.56331980E-10
   1.40999997       5.64777614E-10
   1.41250002       5.72964620E-10
   1.41499996       5.80885784E-10
   1.41750002       5.88534499E-10
   1.41999996       5.95904714E-10
   1.42250001       6.02990879E-10
   1.42499995       6.09787998E-10
   1.42750001       6.16291740E-10
   1.42999995       6.22498331E-10
   1.43250000       6.28404662E-10
   1.43499994       6.34008179E-10
   1.43750000       6.39306996E-10
   1.44000006       6.44299891E-10
   1.44250000       6.48986309E-10
   1.44500005       6.53366306E-10
   1.44749999       6.57440657E-10
   1.45000005       6.61210697E-10
   1.45249999       6.64678368E-10
   1.45500004       6.67846278E-10
   1.45749998       6.70717648E-10
   1.46000004       6.73296308E-10
   1.46249998       6.75586531E-10
   1.46500003       6.77593148E-10
   1.46749997       6.79321488E-10
   1.47000003       6.80777323E-10
   1.47249997       6.81966650E-10
   1.47500002       6.82896018E-10
   1.47749996       6.83572199E-10
   1.48000002       6.84002244E-10
   1.48249996       6.84193202E-10
   1.48500001       6.84152235E-10
   1.48749995       6.83886558E-10
   1.49000001       6.83403445E-10
   1.49249995       6.82709833E-10
   1.49500000       6.81812384E-10
   1.49749994       6.80717482E-10
   1.50000000       6.79431122E-10
   1.50250006       6.77958634E-10
   1.50500000       6.76304845E-10
   1.50750005       6.74473533E-10
   1.50999999       6.72467915E-10
   1.51250005       6.70289990E-10
   1.51499999       6.67940814E-10
   1.51750004       6.65419941E-10
   1.51999998       6.62725819E-10
   1.52250004       6.59855115E-10
   1.52499998       6.56803112E-10
   1.52750003       6.53563204E-10
   1.52999997       6.50126952E-10
   1.53250003       6.46483811E-10
   1.53499997       6.42621178E-10
   1.53750002       6.38524178E-10
   1.53999996       6.34175545E-10
   1.54250002       6.29555519E-10
   1.54499996       6.24641616E-10
   1.54750001       6.19408747E-10
   1.54999995       6.13828932E-10
   1.55250001       6.07871309E-10
   1.55499995       6.01501904E-10
   1.55750000       5.94683691E-10
   1.55999994       5.87376536E-10
   1.56250000       5.79536974E-10
   1.56500006       5.71118375E-10
   1.56750000       5.62070723E-10
   1.57000005       5.52340562E-10
   1.57249999       5.41871326E-10
   1.57500005       5.30602895E-10
   1.57749999       5.18471932E-10
   1.58000004       5.05411712E-10
   1.58249998       4.91352292E-10
   1.58500004       4.76220730E-10
   1.58749998       4.59940752E-10
   1.59000003       4.42433284E-10
   1.59249997       4.23616364E-10
   1.59500003       4.03405309E-10
   1.59749997       3.81712884E-10
   1.60000002       3.58449631E-10
   1.60249996       3.33523820E-10
   1.60500002       3.06841913E-10
   1.60749996       2.78308709E-10
   1.61000001       2.47827675E-10
   1.61249995       2.15301124E-10
   1.61500001       1.80630635E-10
   1.61749995       1.43717385E-10
   1.62000000       1.04462480E-10
   1.62249994       6.27673122E-11
   1.62500000       1.85340406E-11
   1.62750006      -2.83341406E-11
   1.63000000      -7.79323966E-11
   1.63250005      -1.30353922E-10
   1.63499999      -1.85689450E-10
   1.63750005      -2.44026799E-10
   1.63999999      -3.05450276E-10
   1.64250004      -3.70040248E-10
   1.64499998      -4.37872710E-10
   1.64750004      -5.09018550E-10
   1.64999998      -5.83543103E-10
   1.65250003      -6.61505850E-10
   1.65499997      -7.42959416E-10
   1.65750003      -8.27949265E-10
   1.65999997      -9.16513310E-10
   1.66250002      -1.00868103E-09
   1.66499996      -1.10447318E-09
   1.66750002      -1.20390098E-09
   1.66999996      -1.30696576E-09
   1.67250001      -1.41365830E-09
   1.67499995      -1.52395874E-09
   1.67750001      -1.63783520E-09
   1.67999995      -1.75524373E-09
   1.68250000      -1.87612836E-09
   1.68499994      -2.00041916E-09
   1.68750000      -2.12803331E-09
   1.69000006      -2.25887375E-09
   1.69250000      -2.39282905E-09
   1.69500005      -2.52977284E-09
   1.69749999      -2.66956346E-09
   1.70000005      -2.81204349E-09
   1.70249999      -2.95703906E-09
   1.70500004      -3.10436077E-09
   1.70749998      -3.25380189E-09
   1.71000004      -3.40513839E-09
   1.71249998      -3.55812957E-09
   1.71500003      -3.71251674E-09
   1.71749997      -3.86802324E-09
   1.72000003      -4.02435552E-09
   1.72249997      -4.18120116E-09
   1.72500002      -4.33822933E-09
   1.72749996      -4.49509185E-09
   1.73000002      -4.65142058E-09
   1.73249996      -4.80683138E-09
   1.73500001      -4.96092012E-09
   1.73749995      -5.11326492E-09
   1.74000001      -5.26342570E-09
   1.74249995      -5.41094591E-09
   1.74500000      -5.55534907E-09
   1.74749994      -5.69614356E-09
   1.75000000      -5.83281867E-09
   1.75250006      -5.96484950E-09
   1.75500000      -6.09169293E-09
   1.75750005      -6.21279161E-09
   1.75999999      -6.32757180E-09
   1.76250005      -6.43544773E-09
   1.76499999      -6.53581811E-09
   1.76750004      -6.62807009E-09
   1.76999998      -6.71157840E-09
   1.77250004      -6.78570888E-09
   1.77499998      -6.84981583E-09
   1.77750003      -6.90324686E-09
   1.77999997      -6.94534164E-09
   1.78250003      -6.97543445E-09
   1.78499997      -6.99285696E-09
   1.78750002      -6.99693814E-09
   1.78999996      -6.98700697E-09
   1.79250002      -6.96239466E-09
   1.79499996      -6.92243551E-09
   1.79750001      -6.86647050E-09
   1.79999995      -6.79384948E-09
   1.80250001      -6.70393430E-09
   1.80499995      -6.59610055E-09
   1.80750000      -6.46973941E-09
   1.80999994      -6.32426422E-09
   1.81250000      -6.15911011E-09
   1.81500006      -5.97373973E-09
   1.81750000      -5.76764503E-09
   1.82000005      -5.54035262E-09
   1.82249999      -5.29142508E-09
   1.82500005      -5.02046804E-09
   1.82749999      -4.72713069E-09
   1.83000004      -4.41111458E-09
   1.83249998      -4.07217238E-09
   1.83500004      -3.71011599E-09
   1.83749998      -3.32481931E-09
   1.84000003      -2.91622393E-09
   1.84249997      -2.48434207E-09
   1.84500003      -2.02926187E-09
   1.84749997      -1.55115187E-09
   1.85000002      -1.05026499E-09
   1.85249996      -5.26943211E-10
   1.85500002       1.83782677E-11
   1.85749996       5.85167248E-10
   1.86000001       1.17278998E-09
   1.86249995       1.78050830E-09
   1.86500001       2.40747511E-09
   1.86749995       3.05273251E-09
   1.87000000       3.71520703E-09
   1.87249994       4.39370851E-09
   1.87500000       5.08692777E-09
   1.87750006       5.79343418E-09
   1.88000000       6.51167520E-09
   1.88250005       7.23997351E-09
   1.88499999       7.97653055E-09
   1.88750005       8.71942341E-09
   1.88999999       9.46660705E-09
   1.89250004       1.02159143E-08
   1.89499998       1.09650609E-08
   1.89750004       1.17116468E-08
   1.89999998       1.24531603E-08
   1.90250003       1.31869804E-08
   1.90499997       1.39103848E-08
   1.90750003       1.46205554E-08
   1.90999997       1.53145834E-08
   1.91250002       1.59894764E-08
   1.91499996       1.66421703E-08
   1.91750002       1.72695369E-08
   1.91999996       1.78683930E-08
   1.92250001       1.84355109E-08
   1.92499995       1.89676292E-08
   1.92750001       1.94614689E-08
   1.92999995       1.99137471E-08
   1.93250000       2.03211812E-08
   1.93499994       2.06805151E-08
   1.93750000       2.09885265E-08
   1.94000006       2.12420446E-08
   1.94250000       2.14379678E-08
   1.94500005       2.15732801E-08
   1.94749999       2.16450626E-08
   1.95000005       2.16505178E-08
   1.95249999       2.15869775E-08
   1.95500004       2.14519300E-08
   1.95749998       2.12430322E-08
   1.96000004       2.09581223E-08
   1.96249998       2.05952499E-08
   1.96500003       2.01526742E-08
   1.96749997       1.96288923E-08
   1.97000003       1.90226537E-08
   1.97249997       1.83329654E-08
   1.97500002       1.75591204E-08
   1.97749996       1.67006959E-08
   1.98000002       1.57575730E-08
   1.98249996       1.47299470E-08
   1.98500001       1.36183322E-08
   1.98749995       1.24235733E-08
   1.99000001       1.11468514E-08
   1.99249995       9.78968728E-09
   1.99500000       8.35394331E-09
   1.99749994       6.84182533E-09
   2.00000000       5.25588195E-09
   2.00250006       3.59900199E-09
   2.00500011       1.87440863E-09
   2.00749993       8.56538035E-11
   2.00999999      -1.76339265E-09
   2.01250005      -3.66855368E-09
   2.01500010      -5.62535751E-09
   2.01749992      -7.62905294E-09
   2.01999998      -9.67463087E-09
   2.02250004      -1.17568373E-08
   2.02500010      -1.38701983E-08
   2.02749991      -1.60090430E-08
   2.02999997      -1.81675333E-08
   2.03250003      -2.03396819E-08
   2.03500009      -2.25193890E-08
   2.03749990      -2.47004657E-08
   2.03999996      -2.68766698E-08
   2.04250002      -2.90417415E-08
   2.04500008      -3.11894226E-08
   2.04749990      -3.33135048E-08
   2.04999995      -3.54078580E-08
   2.05250001      -3.74664637E-08
   2.05500007      -3.94834458E-08
   2.05749989      -4.14531165E-08
   2.05999994      -4.33699903E-08
   2.06250000      -4.52288305E-08
   2.06500006      -4.70246775E-08
   2.06750011      -4.87528702E-08
   2.06999993      -5.04090814E-08
   2.07249999      -5.19893355E-08
   2.07500005      -5.34900337E-08
   2.07750010      -5.49079751E-08
   2.07999992      -5.62403635E-08
   2.08249998      -5.74848329E-08
   2.08500004      -5.86394400E-08
   2.08750010      -5.97026784E-08
   2.08999991      -6.06734787E-08
   2.09249997      -6.15511979E-08
   2.09500003      -6.23356087E-08
   2.09750009      -6.30268886E-08
   2.09999990      -6.36255990E-08
   2.10249996      -6.41326636E-08
   2.10500002      -6.45493259E-08
   2.10750008      -6.48771206E-08
   2.10999990      -6.51178311E-08
   2.11249995      -6.52734471E-08
   2.11500001      -6.53461001E-08