  -2.50000004E-02   0.00000000    
  -2.25000009E-02   0.00000000    
  -1.99999996E-02   0.00000000    
  -1.75000001E-02  -5.02173075E-23
  -1.49999997E-02  -3.42527999E-22
  -1.25000002E-02  -1.34247687E-21
  -9.99999978E-03  -3.96056783E-21
  -7.49999983E-03  -9.76143401E-21
  -4.99999989E-03  -2.12090870E-20
  -2.49999994E-03  -4.19460316E-20
   0.00000000      -7.71037603E-20
   2.49999994E-03  -1.33641962E-19
   4.99999989E-03  -2.20713268E-19
   7.49999983E-03  -3.50049988E-19
   9.99999978E-03  -5.36369552E-19
   1.25000002E-02  -7.97794763E-19
   1.49999997E-02  -1.15628476E-18
   1.75000001E-02  -1.63807073E-18
   1.99999996E-02  -2.27409466E-18
   2.25000009E-02  -3.10044623E-18
   2.50000004E-02  -4.15879032E-18
   2.74999999E-02  -5.49677895E-18
   2.99999993E-02  -7.16844810E-18
   3.24999988E-02  -9.23459225E-18
   3.50000001E-02  -1.17631072E-17
   3.75000015E-02  -1.48292970E-17
   3.99999991E-02  -1.85161502E-17
   4.25000004E-02  -2.29145639E-17
   4.50000018E-02  -2.81235188E-17
   4.74999994E-02  -3.42501941E-17
   5.00000007E-02  -4.14100280E-17
   5.24999984E-02  -4.97267169E-17
   5.49999997E-02  -5.93321235E-17
   5.75000010E-02  -7.03661371E-17
   5.99999987E-02  -8.29764394E-17
   6.25000000E-02  -9.73181895E-17
   6.49999976E-02  -1.13553607E-16
   6.75000027E-02  -1.31851465E-16
   7.00000003E-02  -1.52386481E-16
   7.24999979E-02  -1.75338719E-16
   7.50000030E-02  -2.00892631E-16
   7.75000006E-02  -2.29236312E-16
   7.99999982E-02  -2.60560437E-16
   8.25000033E-02  -2.95057045E-16
   8.50000009E-02  -3.32918465E-16
   8.74999985E-02  -3.74335861E-16
   9.00000036E-02  -4.19497885E-16
   9.25000012E-02  -4.68589003E-16
   9.49999988E-02  -5.21787913E-16
   9.74999964E-02  -5.79265716E-16
  0.100000001      -6.41184036E-16
  0.102499999      -7.07693116E-16
  0.104999997      -7.78929751E-16
  0.107500002      -8.55014750E-16
  0.109999999      -9.36051028E-16
  0.112499997      -1.02212101E-15
  0.115000002      -1.11328441E-15
  0.117500000      -1.20957522E-15
  0.119999997      -1.31099969E-15
  0.122500002      -1.41753346E-15
  0.125000000      -1.52911851E-15
  0.127499998      -1.64566082E-15
  0.129999995      -1.76702688E-15
  0.132499993      -1.89304156E-15
  0.135000005      -2.02348505E-15
  0.137500003      -2.15808960E-15
  0.140000001      -2.29653714E-15
  0.142499998      -2.43845602E-15
  0.144999996      -2.58341809E-15
  0.147499993      -2.73093650E-15
  0.150000006      -2.88046132E-15
  0.152500004      -3.03137972E-15
  0.155000001      -3.18301048E-15
  0.157499999      -3.33460312E-15
  0.159999996      -3.48533496E-15
  0.162499994      -3.63430752E-15
  0.165000007      -3.78054691E-15
  0.167500004      -3.92300048E-15
  0.170000002      -4.06053449E-15
  0.172499999      -4.19193387E-15
  0.174999997      -4.31589714E-15
  0.177499995      -4.43103983E-15
  0.180000007      -4.53589108E-15
  0.182500005      -4.62889403E-15
  0.185000002      -4.70840247E-15
  0.187500000      -4.77268422E-15
  0.189999998      -4.81991986E-15
  0.192499995      -4.84820017E-15
  0.194999993      -4.85553124E-15
  0.197500005      -4.83983403E-15
  0.200000003      -4.79894436E-15
  0.202500001      -4.73061591E-15
  0.204999998      -4.63252314E-15
  0.207499996      -4.50226175E-15
  0.209999993      -4.33735037E-15
  0.212500006      -4.13523941E-15
  0.215000004      -3.89331325E-15
  0.217500001      -3.60889187E-15
  0.219999999      -3.27923152E-15
  0.222499996      -2.90153910E-15
  0.224999994      -2.47297495E-15
  0.227500007      -1.99065554E-15
  0.230000004      -1.45166391E-15
  0.232500002      -8.53053657E-16
  0.234999999      -1.91856668E-16
  0.237499997       5.34904536E-16
  0.239999995       1.33021135E-15
  0.242500007       2.19704189E-15
  0.245000005       3.13835829E-15
  0.247500002       4.15710006E-15
  0.250000000       5.25616724E-15
  0.252499998       6.43841390E-15
  0.254999995       7.70663779E-15
  0.257499993       9.06356509E-15
  0.259999990       1.05118407E-14
  0.262499988       1.20540149E-14
  0.264999986       1.36925273E-14
  0.267500013       1.54296962E-14
  0.270000011       1.72677001E-14
  0.272500008       1.92085710E-14
  0.275000006       2.12541691E-14
  0.277500004       2.34061749E-14
  0.280000001       2.56660758E-14
  0.282499999       2.80351422E-14
  0.284999996       3.05144161E-14
  0.287499994       3.31047005E-14
  0.289999992       3.58065221E-14
  0.292499989       3.86201420E-14
  0.294999987       4.15455159E-14
  0.297500014       4.45822951E-14
  0.300000012       4.77297950E-14
  0.302500010       5.09869856E-14
  0.305000007       5.43524678E-14
  0.307500005       5.78244795E-14
  0.310000002       6.14008288E-14
  0.312500000       6.50789440E-14
  0.314999998       6.88557962E-14
  0.317499995       7.27279226E-14
  0.319999993       7.66913795E-14
  0.322499990       8.07417623E-14
  0.324999988       8.48741514E-14
  0.327499986       8.90831327E-14
  0.330000013       9.33627700E-14
  0.332500011       9.77065718E-14
  0.335000008       1.02107484E-13
  0.337500006       1.06557931E-13
  0.340000004       1.11049719E-13
  0.342500001       1.15574068E-13
  0.344999999       1.20121618E-13
  0.347499996       1.24682396E-13
  0.349999994       1.29245803E-13
  0.352499992       1.33800604E-13
  0.354999989       1.38334968E-13
  0.357499987       1.42836386E-13
  0.360000014       1.47291725E-13
  0.362500012       1.51687229E-13
  0.365000010       1.56008453E-13
  0.367500007       1.60240338E-13
  0.370000005       1.64367150E-13
  0.372500002       1.68372532E-13
  0.375000000       1.72239488E-13
  0.377499998       1.75950359E-13
  0.379999995       1.79486878E-13
  0.382499993       1.82830164E-13
  0.384999990       1.85960730E-13
  0.387499988       1.88858464E-13
  0.389999986       1.91502684E-13
  0.392500013       1.93872167E-13
  0.395000011       1.95945094E-13
  0.397500008       1.97699143E-13
  0.400000006       1.99111466E-13
  0.402500004       2.00158737E-13
  0.405000001       2.00817187E-13
  0.407499999       2.01062582E-13
  0.409999996       2.00870299E-13
  0.412499994       2.00215346E-13
  0.414999992       1.99072394E-13
  0.417499989       1.97415801E-13
  0.419999987       1.95219641E-13
  0.422500014       1.92457812E-13
  0.425000012       1.89104009E-13
  0.427500010       1.85131749E-13
  0.430000007       1.80514539E-13
  0.432500005       1.75225733E-13
  0.435000002       1.69238823E-13
  0.437500000       1.62527259E-13
  0.439999998       1.55064641E-13
  0.442499995       1.46824772E-13
  0.444999993       1.37781672E-13
  0.447499990       1.27909632E-13
  0.449999988       1.17183322E-13
  0.452499986       1.05577825E-13
  0.455000013       9.30687005E-14
  0.457500011       7.96321017E-14
  0.460000008       6.52447931E-14
  0.462500006       4.98842538E-14
  0.465000004       3.35287963E-14
  0.467500001       1.61574804E-14
  0.469999999      -2.24968139E-15
  0.472499996      -2.17116245E-14
  0.474999994      -4.22461782E-14
  0.477499992      -6.38700044E-14
  0.479999989      -8.65985614E-14
  0.482499987      -1.10445947E-13
  0.485000014      -1.35424752E-13
  0.487500012      -1.61546151E-13
  0.490000010      -1.88819731E-13
  0.492500007      -2.17253312E-13
  0.495000005      -2.46852994E-13
  0.497500002      -2.77622895E-13
  0.500000000      -3.09565416E-13
  0.502499998      -3.42680745E-13
  0.504999995      -3.76966985E-13
  0.507499993      -4.12420044E-13
  0.509999990      -4.49033470E-13
  0.512499988      -4.86798427E-13
  0.514999986      -5.25703667E-13
  0.517499983      -5.65735338E-13
  0.519999981      -6.06876799E-13
  0.522499979      -6.49109022E-13
  0.524999976      -6.92409780E-13
  0.527499974      -7.36754353E-13
  0.529999971      -7.82114553E-13
  0.532500029      -8.28459480E-13
  0.535000026      -8.75755143E-13
  0.537500024      -9.23964030E-13
  0.540000021      -9.73045754E-13
  0.542500019      -1.02295635E-12
  0.545000017      -1.07364855E-12
  0.547500014      -1.12507161E-12
  0.550000012      -1.17717110E-12
  0.552500010      -1.22988945E-12
  0.555000007      -1.28316487E-12
  0.557500005      -1.33693263E-12
  0.560000002      -1.39112376E-12
  0.562500000      -1.44566553E-12
  0.564999998      -1.50048181E-12
  0.567499995      -1.55549250E-12
  0.569999993      -1.61061355E-12
  0.572499990      -1.66575716E-12
  0.574999988      -1.72083170E-12
  0.577499986      -1.77574188E-12
  0.579999983      -1.83038805E-12
  0.582499981      -1.88466734E-12
  0.584999979      -1.93847282E-12
  0.587499976      -1.99169327E-12
  0.589999974      -2.04421462E-12
  0.592499971      -2.09591849E-12
  0.595000029      -2.14668279E-12
  0.597500026      -2.19638197E-12
  0.600000024      -2.24488679E-12
  0.602500021      -2.29206454E-12
  0.605000019      -2.33777884E-12
  0.607500017      -2.38189004E-12
  0.610000014      -2.42425546E-12
  0.612500012      -2.46472916E-12
  0.615000010      -2.50316196E-12
  0.617500007      -2.53940185E-12
  0.620000005      -2.57329379E-12
  0.622500002      -2.60468036E-12
  0.625000000      -2.63340131E-12
  0.627499998      -2.65929401E-12
  0.629999995      -2.68219388E-12
  0.632499993      -2.70193373E-12
  0.634999990      -2.71834465E-12
  0.637499988      -2.73125663E-12
  0.639999986      -2.74049707E-12
  0.642499983      -2.74589314E-12
  0.644999981      -2.74726986E-12
  0.647499979      -2.74445223E-12
  0.649999976      -2.73726419E-12
  0.652499974      -2.72552922E-12
  0.654999971      -2.70907103E-12
  0.657500029      -2.68771290E-12
  0.660000026      -2.66127940E-12
  0.662500024      -2.62959446E-12
  0.665000021      -2.59248395E-12
  0.667500019      -2.54977484E-12
  0.670000017      -2.50129474E-12
  0.672500014      -2.44687452E-12
  0.675000012      -2.38634655E-12
  0.677500010      -2.31954538E-12
  0.680000007      -2.24630882E-12
  0.682500005      -2.16647750E-12
  0.685000002      -2.07989593E-12
  0.687500000      -1.98641234E-12
  0.689999998      -1.88587904E-12
  0.692499995      -1.77815282E-12
  0.694999993      -1.66309577E-12
  0.697499990      -1.54057518E-12
  0.699999988      -1.41046398E-12
  0.702499986      -1.27264128E-12
  0.704999983      -1.12699260E-12
  0.707499981      -9.73410263E-13
  0.709999979      -8.11793991E-13
  0.712499976      -6.42051028E-13
  0.714999974      -4.64096209E-13
  0.717499971      -2.77853858E-13
  0.720000029      -8.32563930E-14
  0.722500026       1.19754507E-13
  0.725000024       3.31227206E-13
  0.727500021       5.51200253E-13
  0.730000019       7.79701878E-13
  0.732500017       1.01674962E-12
  0.735000014       1.26234938E-12
  0.737500012       1.51649548E-12
  0.740000010       1.77917099E-12
  0.742500007       2.05034600E-12
  0.745000005       2.32997757E-12
  0.747500002       2.61801084E-12
  0.750000000       2.91437686E-12
  0.752499998       3.21899278E-12
  0.754999995       3.53176082E-12
  0.757499993       3.85257017E-12
  0.759999990       4.18129463E-12
  0.762499988       4.51779282E-12
  0.764999986       4.86190819E-12
  0.767499983       5.21346855E-12
  0.769999981       5.57228439E-12
  0.772499979       5.93815275E-12
  0.774999976       6.31085071E-12
  0.777499974       6.69014020E-12
  0.779999971       7.07576792E-12
  0.782500029       7.46746068E-12
  0.785000026       7.86492833E-12
  0.787500024       8.26786382E-12
  0.790000021       8.67594278E-12
  0.792500019       9.08882171E-12
  0.795000017       9.50613980E-12
  0.797500014       9.92751801E-12
  0.800000012       1.03525600E-11
  0.802500010       1.07808476E-11
  0.805000007       1.12119472E-11
  0.807500005       1.16454077E-11
  0.810000002       1.20807565E-11
  0.812500000       1.25175061E-11
  0.814999998       1.29551482E-11
  0.817499995       1.33931555E-11
  0.819999993       1.38309841E-11
  0.822499990       1.42680711E-11
  0.824999988       1.47038371E-11
  0.827499986       1.51376810E-11
  0.829999983       1.55689888E-11
  0.832499981       1.59971255E-11
  0.834999979       1.64214406E-11
  0.837499976       1.68412662E-11
  0.839999974       1.72559189E-11
  0.842499971       1.76646944E-11
  0.845000029       1.80668761E-11
  0.847500026       1.84617287E-11
  0.850000024       1.88485044E-11
  0.852500021       1.92264381E-11
  0.855000019       1.95947546E-11
  0.857500017       1.99526576E-11
  0.860000014       2.02993438E-11
  0.862500012       2.06339893E-11
  0.865000010       2.09557649E-11
  0.867500007       2.12638240E-11
  0.870000005       2.15573115E-11
  0.872500002       2.18353599E-11
  0.875000000       2.20970915E-11
  0.877499998       2.23416216E-11
  0.879999995       2.25680533E-11
  0.882499993       2.27754864E-11
  0.884999990       2.29630065E-11
  0.887499988       2.31296978E-11
  0.889999986       2.32746357E-11
  0.892499983       2.33968955E-11
  0.894999981       2.34955441E-11
  0.897499979       2.35696445E-11
  0.899999976       2.36182619E-11
  0.902499974       2.36404594E-11
  0.904999971       2.36353003E-11
  0.907500029       2.36018444E-11
  0.910000026       2.35391585E-11
  0.912500024       2.34463126E-11
  0.915000021       2.33223788E-11
  0.917500019       2.31664323E-11
  0.920000017       2.29775591E-11
  0.922500014       2.27548536E-11
  0.925000012       2.24974171E-11
  0.927500010       2.22043616E-11
  0.930000007       2.18748093E-11
  0.932500005       2.15079014E-11
  0.935000002       2.11027845E-11
  0.937500000       2.06586311E-11
  0.939999998       2.01746224E-11
  0.942499995       1.96499657E-11
  0.944999993       1.90838820E-11
  0.947499990       1.84756221E-11
  0.949999988       1.78244502E-11
  0.952499986       1.71296640E-11
  0.954999983       1.63905851E-11
  0.957499981       1.56065612E-11
  0.959999979       1.47769748E-11
  0.962499976       1.39012343E-11
  0.964999974       1.29787864E-11
  0.967499971       1.20091116E-11
  0.970000029       1.09917275E-11
  0.972500026       9.92618834E-12
  0.975000024       8.81209168E-12
  0.977500021       7.64907495E-12
  0.980000019       6.43682243E-12
  0.982500017       5.17506264E-12
  0.985000014       3.86357439E-12
  0.987500012       2.50218401E-12
  0.990000010       1.09076951E-12
  0.992500007      -3.70737376E-13
  0.995000005      -1.88234844E-12
  0.997500002      -3.44401786E-12
   1.00000000      -5.05563820E-12
   1.00250006      -6.71704402E-12
   1.00500000      -8.42800916E-12
   1.00750005      -1.01882383E-11
   1.00999999      -1.19973718E-11
   1.01250005      -1.38549788E-11
   1.01499999      -1.57605613E-11
   1.01750004      -1.77135459E-11
   1.01999998      -1.97132866E-11
   1.02250004      -2.17590616E-11
   1.02499998      -2.38500782E-11
   1.02750003      -2.59854534E-11
   1.02999997      -2.81642296E-11
   1.03250003      -3.03853748E-11
   1.03499997      -3.26477595E-11
   1.03750002      -3.49501747E-11
   1.03999996      -3.72913367E-11
   1.04250002      -3.96698542E-11
   1.04499996      -4.20842701E-11
   1.04750001      -4.45330162E-11
   1.04999995      -4.70144514E-11
   1.05250001      -4.95268340E-11
   1.05499995      -5.20683323E-11
   1.05750000      -5.46370206E-11
   1.05999994      -5.72308902E-11
   1.06250000      -5.98478211E-11
   1.06500006      -6.24856208E-11
   1.06750000      -6.51419821E-11
   1.07000005      -6.78145110E-11
   1.07249999      -7.05007372E-11
   1.07500005      -7.31980726E-11
   1.07749999      -7.59038526E-11
   1.08000004      -7.86152948E-11
   1.08249998      -8.13295611E-11
   1.08500004      -8.40436956E-11
   1.08749998      -8.67546590E-11
   1.09000003      -8.94593288E-11
   1.09249997      -9.21544854E-11
   1.09500003      -9.48368328E-11
   1.09749997      -9.75029918E-11
   1.10000002      -1.00149493E-10
   1.10249996      -1.02772783E-10
   1.10500002      -1.05369241E-10
   1.10749996      -1.07935161E-10
   1.11000001      -1.10466768E-10
   1.11249995      -1.12960225E-10
   1.11500001      -1.15411604E-10
   1.11749995      -1.17816937E-10
   1.12000000      -1.20172192E-10
   1.12249994      -1.22473268E-10
   1.12500000      -1.24716001E-10
   1.12750006      -1.26896202E-10
   1.13000000      -1.29009622E-10
   1.13250005      -1.31051947E-10
   1.13499999      -1.33018846E-10
   1.13750005      -1.34905975E-10
   1.13999999      -1.36708922E-10
   1.14250004      -1.38423273E-10
   1.14499998      -1.40044573E-10
   1.14750004      -1.41568382E-10
   1.14999998      -1.42990217E-10
   1.15250003      -1.44305595E-10
   1.15499997      -1.45510062E-10
   1.15750003      -1.46599136E-10
   1.15999997      -1.47568346E-10
   1.16250002      -1.48413240E-10
   1.16499996      -1.49129417E-10
   1.16750002      -1.49712479E-10
   1.16999996      -1.50158053E-10
   1.17250001      -1.50461796E-10
   1.17499995      -1.50619447E-10
   1.17750001      -1.50626747E-10
   1.17999995      -1.50479532E-10
   1.18250000      -1.50173693E-10
   1.18499994      -1.49705179E-10
   1.18750000      -1.49070006E-10
   1.19000006      -1.48264304E-10
   1.19250000      -1.47284254E-10
   1.19500005      -1.46126139E-10
   1.19749999      -1.44786350E-10
   1.20000005      -1.43261361E-10
   1.20249999      -1.41547787E-10
   1.20500004      -1.39642353E-10
   1.20749998      -1.37541895E-10
   1.21000004      -1.35243372E-10
   1.21249998      -1.32743927E-10
   1.21500003      -1.30040770E-10
   1.21749997      -1.27131319E-10
   1.22000003      -1.24013119E-10
   1.22249997      -1.20683893E-10
   1.22500002      -1.17141505E-10
   1.22749996      -1.13384031E-10
   1.23000002      -1.09409690E-10
   1.23249996      -1.05216905E-10
   1.23500001      -1.00804282E-10
   1.23749995      -9.61706201E-11
   1.24000001      -9.13149417E-11
   1.24249995      -8.62364485E-11
   1.24500000      -8.09345854E-11
   1.24749994      -7.54090054E-11
   1.25000000      -6.96595906E-11
   1.25250006      -6.36864519E-11
   1.25500000      -5.74899468E-11
   1.25750005      -5.10706616E-11
   1.25999999      -4.44294358E-11
   1.26250005      -3.75673659E-11
   1.26499999      -3.04858083E-11
   1.26750004      -2.31863730E-11
   1.26999998      -1.56709524E-11
   1.27250004      -7.94171586E-12
   1.27499998      -1.09368481E-15
   1.27750003       8.14819913E-12
   1.27999997       1.65031547E-11
   1.28250003       2.50604763E-11
   1.28499997       3.38165780E-11
   1.28750002       4.27675881E-11
   1.28999996       5.19093102E-11
   1.29250002       6.12372722E-11
   1.29499996       7.07466793E-11
   1.29750001       8.04324454E-11
   1.29999995       9.02891720E-11
   1.30250001       1.00311162E-10
   1.30499995       1.10492407E-10
   1.30750000       1.20826599E-10
   1.30999994       1.31307118E-10
   1.31250000       1.41927012E-10
   1.31500006       1.52679105E-10
   1.31750000       1.63555863E-10
   1.32000005       1.74549472E-10
   1.32249999       1.85651841E-10
   1.32500005       1.96854560E-10
   1.32749999       2.08149026E-10
   1.33000004       2.19526244E-10
   1.33249998       2.30977085E-10
   1.33500004       2.42492082E-10
   1.33749998       2.54061550E-10
   1.34000003       2.65675593E-10
   1.34249997       2.77324025E-10
   1.34500003       2.88996549E-10
   1.34749997       3.00682618E-10
   1.35000002       3.12371573E-10
   1.35249996       3.24052507E-10
   1.35500002       3.35714401E-10
   1.35749996       3.47346124E-10
   1.36000001       3.58936436E-10
   1.36249995       3.70473985E-10
   1.36500001       3.81947390E-10
   1.36749995       3.93345245E-10
   1.37000000       4.04656059E-10
   1.37249994       4.15868423E-10
   1.37500000       4.26970903E-10
   1.37750006       4.37952119E-10
   1.38000000       4.48800830E-10
   1.38250005       4.59505850E-10
   1.38499999       4.70056161E-10
   1.38750005       4.80440909E-10
   1.38999999       4.90649410E-10
   1.39250004       5.00671282E-10
   1.39499998       5.10496201E-10
   1.39750004       5.20114396E-10
   1.39999998       5.29516209E-10
   1.40250003       5.38692480E-10
   1.40499997       5.47634216E-10
   1.40750003       5.56332980E-10
   1.40999997       5.64780722E-10
   1.41250002       5.72969838E-10
   1.41499996       5.80893167E-10
   1.41750002       5.88544158E-10
   1.41999996       5.95916760E-10
   1.42250001       6.03005312E-10
   1.42499995       6.09804873E-10
   1.42750001       6.16311169E-10
   1.42999995       6.22520369E-10
   1.43250000       6.28429253E-10
   1.43499994       6.34035324E-10
   1.43750000       6.39336695E-10
   1.44000006       6.44332143E-10
   1.44250000       6.49021115E-10
   1.44500005       6.53403665E-10
   1.44749999       6.57480514E-10
   1.45000005       6.61252997E-10
   1.45249999       6.64723054E-10
   1.45500004       6.67893352E-10
   1.45749998       6.70767109E-10
   1.46000004       6.73347988E-10
   1.46249998       6.75640266E-10
   1.46500003       6.77648881E-10
   1.46749997       6.79379053E-10
   1.47000003       6.80836554E-10
   1.47249997       6.82027546E-10
   1.47500002       6.82958357E-10
   1.47749996       6.83635870E-10
   1.48000002       6.84066914E-10
   1.48249996       6.84258705E-10
   1.48500001       6.84218460E-10
   1.48749995       6.83953338E-10
   1.49000001       6.83470502E-10
   1.49249995       6.82776891E-10
   1.49500000       6.81879220E-10
   1.49749994       6.80783818E-10
   1.50000000       6.79496681E-10
   1.50250006       6.78023193E-10
   1.50500000       6.76368073E-10
   1.50750005       6.74535205E-10
   1.50999999       6.72527756E-10
   1.51250005       6.70347666E-10
   1.51499999       6.67995992E-10
   1.51750004       6.65472399E-10
   1.51999998       6.62775168E-10
   1.52250004       6.59901134E-10
   1.52499998       6.56845467E-10
   1.52750003       6.53601617E-10
   1.52999997       6.50161092E-10
   1.53250003       6.46513454E-10
   1.53499997       6.42645992E-10
   1.53750002       6.38543940E-10
   1.53999996       6.34189978E-10
   1.54250002       6.29564290E-10
   1.54499996       6.24644558E-10
   1.54750001       6.19405582E-10
   1.54999995       6.13819384E-10
   1.55250001       6.07855266E-10
   1.55499995       6.01479144E-10
   1.55750000       5.94654048E-10
   1.55999994       5.87339843E-10
   1.56250000       5.79493065E-10
   1.56500006       5.71067138E-10
   1.56750000       5.62011992E-10
   1.57000005       5.52274393E-10
   1.57249999       5.41797551E-10
   1.57500005       5.30521571E-10
   1.57749999       5.18383003E-10
   1.58000004       5.05315234E-10
   1.58249998       4.91248431E-10
   1.58500004       4.76109485E-10
   1.58749998       4.59822264E-10
   1.59000003       4.42307718E-10
   1.59249997       4.23483915E-10
   1.59500003       4.03266170E-10
   1.59749997       3.81567333E-10
   1.60000002       3.58297919E-10
   1.60249996       3.33366279E-10
   1.60500002       3.06678877E-10
   1.60749996       2.78140566E-10
   1.61000001       2.47654841E-10
   1.61249995       2.15124002E-10
   1.61500001       1.80449711E-10
   1.61749995       1.43533171E-10
   1.62000000       1.04275505E-10
   1.62249994       6.25781371E-11
   1.62500000       1.83432367E-11
   1.62750006      -2.85259299E-11
   1.63000000      -7.81245693E-11
   1.63250005      -1.30545838E-10
   1.63499999      -1.85880408E-10
   1.63750005      -2.44216120E-10
   1.63999999      -3.05637210E-10
   1.64250004      -3.70224129E-10
   1.64499998      -4.38052733E-10
   1.64750004      -5.09193909E-10
   1.64999998      -5.83713078E-10
   1.65250003      -6.61669664E-10
   1.65499997      -7.43116291E-10
   1.65750003      -8.28098423E-10
   1.65999997      -9.16653919E-10
   1.66250002      -1.00881248E-09
   1.66499996      -1.10459464E-09
   1.66750002      -1.20401156E-09
   1.66999996      -1.30706490E-09
   1.67250001      -1.41374545E-09
   1.67499995      -1.52403301E-09
   1.67750001      -1.63789582E-09
   1.67999995      -1.75529025E-09
   1.68250000      -1.87615989E-09
   1.68499994      -2.00043537E-09
   1.68750000      -2.12803353E-09
   1.69000006      -2.25885755E-09
   1.69250000      -2.39279596E-09
   1.69500005      -2.52972265E-09
   1.69749999      -2.66949574E-09
   1.70000005      -2.81195778E-09
   1.70249999      -2.95693536E-09
   1.70500004      -3.10423864E-09
   1.70749998      -3.25366090E-09
   1.71000004      -3.40497874E-09
   1.71249998      -3.55795104E-09
   1.71500003      -3.71231956E-09
   1.71749997      -3.86780830E-09
   1.72000003      -4.02412237E-09
   1.72249997      -4.18094981E-09
   1.72500002      -4.33796066E-09
   1.72749996      -4.49480586E-09
   1.73000002      -4.65111860E-09
   1.73249996      -4.80651297E-09
   1.73500001      -4.96058616E-09
   1.73749995      -5.11291631E-09
   1.74000001      -5.26306376E-09
   1.74249995      -5.41057021E-09
   1.74500000      -5.55496138E-09
   1.74749994      -5.69574521E-09
   1.75000000      -5.83241055E-09
   1.75250006      -5.96443250E-09
   1.75500000      -6.09126793E-09
   1.75750005      -6.21235996E-09
   1.75999999      -6.32713526E-09
   1.76250005      -6.43500719E-09
   1.76499999      -6.53537535E-09
   1.76750004      -6.62762734E-09
   1.76999998      -6.71113698E-09
   1.77250004      -6.78526968E-09
   1.77499998      -6.84938106E-09
   1.77750003      -6.90281787E-09
   1.77999997      -6.94491975E-09
   1.78250003      -6.97502145E-09
   1.78499997      -6.99245462E-09
   1.78750002      -6.99654779E-09
   1.78999996      -6.98663083E-09
   1.79250002      -6.96203362E-09
   1.79499996      -6.92209134E-09
   1.79750001      -6.86614543E-09
   1.79999995      -6.79354528E-09
   1.80250001      -6.70365230E-09
   1.80499995      -6.59584121E-09
   1.80750000      -6.46950538E-09
   1.80999994      -6.32405639E-09
   1.81250000      -6.15893025E-09
   1.81500006      -5.97358873E-09
   1.81750000      -5.76752424E-09
   1.82000005      -5.54026292E-09
   1.82249999      -5.29136734E-09
   1.82500005      -5.02044317E-09
   1.82749999      -4.72714001E-09
   1.83000004      -4.41115855E-09
   1.83249998      -4.07225142E-09
   1.83500004      -3.71023101E-09
   1.83749998      -3.32497074E-09
   1.84000003      -2.91641200E-09
   1.84249997      -2.48456677E-09
   1.84500003      -2.02952322E-09
   1.84749997      -1.55144964E-09
   1.85000002      -1.05059894E-09
   1.85249996      -5.27312805E-10
   1.85500002       1.79738221E-11
   1.85749996       5.84728654E-10
   1.86000001       1.17231824E-09
   1.86249995       1.78000437E-09
   1.86500001       2.40694042E-09
   1.86749995       3.05216785E-09
   1.87000000       3.71461439E-09
   1.87249994       4.39308989E-09
   1.87500000       5.08628473E-09
   1.87750006       5.79276893E-09
   1.88000000       6.51098953E-09
   1.88250005       7.23926918E-09
   1.88499999       7.97581023E-09
   1.88750005       8.71868888E-09
   1.88999999       9.46586187E-09
   1.89250004       1.02151612E-08
   1.89499998       1.09643015E-08
   1.89750004       1.17108838E-08
   1.89999998       1.24523956E-08
   1.90250003       1.31862183E-08
   1.90499997       1.39096281E-08
   1.90750003       1.46198076E-08
   1.90999997       1.53138462E-08
   1.91250002       1.59887552E-08
   1.91499996       1.66414669E-08
   1.91750002       1.72688548E-08
   1.91999996       1.78677340E-08
   1.92250001       1.84348767E-08
   1.92499995       1.89670253E-08
   1.92750001       1.94608987E-08
   1.92999995       1.99132106E-08
   1.93250000       2.03206838E-08
   1.93499994       2.06800568E-08
   1.93750000       2.09881108E-08
   1.94000006       2.12416769E-08
   1.94250000       2.14376481E-08
   1.94500005       2.15730100E-08
   1.94749999       2.16448459E-08
   1.95000005       2.16503526E-08
   1.95249999       2.15868674E-08
   1.95500004       2.14518767E-08
   1.95749998       2.12430358E-08
   1.96000004       2.09581863E-08
   1.96249998       2.05953725E-08
   1.96500003       2.01528572E-08
   1.96749997       1.96291339E-08
   1.97000003       1.90229503E-08
   1.97249997       1.83333206E-08
   1.97500002       1.75595343E-08
   1.97749996       1.67011649E-08
   1.98000002       1.57580970E-08
   1.98249996       1.47305235E-08
   1.98500001       1.36189602E-08
   1.98749995       1.24242518E-08
   1.99000001       1.11475789E-08
   1.99249995       9.79046000E-09
   1.99500000       8.35475866E-09
   1.99749994       6.84267976E-09
   2.00000000       5.25677235E-09
   2.00250006       3.59992547E-09
   2.00500011       1.87536142E-09
   2.00749993       8.66317504E-11
   2.00999999      -1.76239368E-09
   2.01250005      -3.66753761E-09
   2.01500010      -5.62432900E-09
   2.01749992      -7.62801822E-09
   2.01999998      -9.67359259E-09
   2.02250004      -1.17557999E-08
   2.02500010      -1.38691663E-08
   2.02749991      -1.60080251E-08
   2.02999997      -1.81665314E-08
   2.03250003      -2.03387014E-08
   2.03500009      -2.25184351E-08
   2.03749990      -2.46995455E-08
   2.03999996      -2.68757887E-08
   2.04250002      -2.90409030E-08
   2.04500008      -3.11886339E-08
   2.04749990      -3.33127694E-08
   2.04999995      -3.54071759E-08
   2.05250001      -3.74658384E-08
   2.05500007      -3.94828845E-08
   2.05749989      -4.14526191E-08
   2.05999994      -4.33695604E-08
   2.06250000      -4.52284716E-08
   2.06500006      -4.70243968E-08
   2.06750011      -4.87526677E-08
   2.06999993      -5.04089606E-08
   2.07249999      -5.19893000E-08
   2.07500005      -5.34900870E-08
   2.07750010      -5.49081172E-08
   2.07999992      -5.62405980E-08
   2.08249998      -5.74851562E-08
   2.08500004      -5.86398556E-08
   2.08750010      -5.97031828E-08
   2.08999991      -6.06740755E-08
   2.09249997      -6.15518871E-08
   2.09500003      -6.23363832E-08
   2.09750009      -6.30277484E-08
   2.09999990      -6.36265440E-08
   2.10249996      -6.41336939E-08
   2.10500002      -6.45504343E-08
   2.10750008      -6.48783072E-08
   2.10999990      -6.51190888E-08
   2.11249995      -6.52747758E-08
   2.11500001      -6.53474856E-08