  -2.50000004E-02   0.00000000    
  -2.25000009E-02   0.00000000    
  -1.99999996E-02   0.00000000    
  -1.75000001E-02   0.00000000    
  -1.49999997E-02  -4.76888541E-30
  -1.25000002E-02  -3.24690664E-29
  -9.99999978E-03  -1.29478741E-28
  -7.49999983E-03  -3.75696162E-28
  -4.99999989E-03  -8.66679838E-28
  -2.49999994E-03  -1.76328535E-27
   0.00000000      -3.38557106E-27
   2.49999994E-03  -6.07120410E-27
   4.99999989E-03  -1.01202611E-26
   7.49999983E-03  -1.59531695E-26
   9.99999978E-03  -2.48672515E-26
   1.25000002E-02  -3.73649792E-26
   1.49999997E-02  -5.48663175E-26
   1.75000001E-02  -7.92636406E-26
   1.99999996E-02  -1.12716797E-25
   2.25000009E-02  -1.56866889E-25
   2.50000004E-02  -2.11450369E-25
   2.74999999E-02  -2.69819149E-25
   2.99999993E-02  -3.24196786E-25
   3.24999988E-02  -3.61518140E-25
   3.50000001E-02  -3.48275754E-25
   3.75000015E-02  -2.47428737E-25
   3.99999991E-02  -2.01094492E-27
   4.25000004E-02   4.62902494E-25
   4.50000018E-02   1.23913216E-24
   4.74999994E-02   2.46000810E-24
   5.00000007E-02   4.27922607E-24
   5.24999984E-02   6.85696516E-24
   5.49999997E-02   1.03791912E-23
   5.75000010E-02   1.50635309E-23
   5.99999987E-02   2.11540814E-23
   6.25000000E-02   2.88433642E-23
   6.49999976E-02   3.83598698E-23
   6.75000027E-02   4.99108571E-23
   7.00000003E-02   6.36341970E-23
   7.24999979E-02   7.95086532E-23
   7.50000030E-02   9.76232788E-23
   7.75000006E-02   1.17882754E-22
   7.99999982E-02   1.40029690E-22
   8.25000033E-02   1.63679235E-22
   8.50000009E-02   1.88222919E-22
   8.74999985E-02   2.12950692E-22
   9.00000036E-02   2.36883646E-22
   9.25000012E-02   2.58972155E-22
   9.49999988E-02   2.77776504E-22
   9.74999964E-02   2.91742548E-22
  0.100000001       2.98911211E-22
  0.102499999       2.97449231E-22
  0.104999997       2.85262100E-22
  0.107500002       2.60401521E-22
  0.109999999       2.20691929E-22
  0.112499997       1.63872474E-22
  0.115000002       8.70317736E-23
  0.117500000      -1.19128307E-23
  0.119999997      -1.35255226E-22
  0.122500002      -2.84693640E-22
  0.125000000      -4.62192317E-22
  0.127499998      -6.68948999E-22
  0.129999995      -9.05617166E-22
  0.132499993      -1.17258466E-21
  0.135000005      -1.46971002E-21
  0.137500003      -1.79592664E-21
  0.140000001      -2.14957120E-21
  0.142499998      -2.52794796E-21
  0.144999996      -2.92911117E-21
  0.147499993      -3.34899480E-21
  0.150000006      -3.78239079E-21
  0.152500004      -4.22334187E-21
  0.155000001      -4.66397185E-21
  0.157499999      -5.09722386E-21
  0.159999996      -5.51398233E-21
  0.162499994      -5.90469229E-21
  0.165000007      -6.25941706E-21
  0.167500004      -6.57001974E-21
  0.170000002      -6.82364713E-21
  0.172499999      -7.00942350E-21
  0.174999997      -7.11496173E-21
  0.177499995      -7.12902137E-21
  0.180000007      -7.03894835E-21
  0.182500005      -6.83148435E-21
  0.185000002      -6.49881759E-21
  0.187500000      -6.02966320E-21
  0.189999998      -5.41305943E-21
  0.192499995      -4.64132859E-21
  0.194999993      -3.71050201E-21
  0.197500005      -2.61570080E-21
  0.200000003      -1.35696132E-21
  0.202500001       6.34652356E-23
  0.204999998       1.64081130E-21
  0.207499996       3.36402985E-21
  0.209999993       5.21995920E-21
  0.212500006       7.18721159E-21
  0.215000004       9.23983928E-21
  0.217500001       1.13480924E-20
  0.219999999       1.34753578E-20
  0.222499996       1.55764798E-20
  0.224999994       1.76008299E-20
  0.227500007       1.94920749E-20
  0.230000004       2.11863056E-20
  0.232500002       2.26103487E-20
  0.234999999       2.36797269E-20
  0.237499997       2.43048735E-20
  0.239999995       2.43895496E-20
  0.242500007       2.38308990E-20
  0.245000005       2.25154508E-20
  0.247500002       2.03271218E-20
  0.250000000       1.71385021E-20
  0.252499998       1.28185797E-20
  0.254999995       7.23030819E-21
  0.257499993       2.27700522E-22
  0.259999990      -8.33399331E-21
  0.262499988      -1.86036490E-20
  0.264999986      -3.07325741E-20
  0.267500013      -4.48707710E-20
  0.270000011      -6.11648558E-20
  0.272500008      -7.97626225E-20
  0.275000006      -1.00797696E-19
  0.277500004      -1.24399111E-19
  0.280000001      -1.50685786E-19
  0.282499999      -1.79766471E-19
  0.284999996      -2.11732762E-19
  0.287499994      -2.46658615E-19
  0.289999992      -2.84596298E-19
  0.292499989      -3.25577695E-19
  0.294999987      -3.69608260E-19
  0.297500014      -4.16664445E-19
  0.300000012      -4.66690028E-19
  0.302500010      -5.19593553E-19
  0.305000007      -5.75246213E-19
  0.307500005      -6.33480814E-19
  0.310000002      -6.94086993E-19
  0.312500000      -7.56807808E-19
  0.314999998      -8.21340304E-19
  0.317499995      -8.87328741E-19
  0.319999993      -9.54371729E-19
  0.322499990      -1.02201163E-18
  0.324999988      -1.08973374E-18
  0.327499986      -1.15697111E-18
  0.330000013      -1.22310048E-18
  0.332500011      -1.28744241E-18
  0.335000008      -1.34926279E-18
  0.337500006      -1.40776483E-18
  0.340000004      -1.46211235E-18
  0.342500001      -1.51140777E-18
  0.344999999      -1.55471222E-18
  0.347499996      -1.59103807E-18
  0.349999994      -1.61935277E-18
  0.352499992      -1.63860416E-18
  0.354999989      -1.64768195E-18
  0.357499987      -1.64547431E-18
  0.360000014      -1.63084396E-18
  0.362500012      -1.60263607E-18
  0.365000010      -1.55970560E-18
  0.367500007      -1.50091260E-18
  0.370000005      -1.42513128E-18
  0.372500002      -1.33125166E-18
  0.375000000      -1.21819943E-18
  0.377499998      -1.08496328E-18
  0.379999995      -9.30594526E-19
  0.382499993      -7.54218836E-19
  0.384999990      -5.55041138E-19
  0.387499988      -3.32366185E-19
  0.389999986      -8.56177687E-20
  0.392500013       1.85671287E-19
  0.395000011       4.81817766E-19
  0.397500008       8.02977928E-19
  0.400000006       1.14913895E-18
  0.402500004       1.52010361E-18
  0.405000001       1.91547526E-18
  0.407499999       2.33462133E-18
  0.409999996       2.77670015E-18
  0.412499994       3.24062046E-18
  0.414999992       3.72507264E-18
  0.417499989       4.22845134E-18
  0.419999987       4.74892992E-18
  0.422500014       5.28433167E-18
  0.425000012       5.83224536E-18
  0.427500010       6.38993921E-18
  0.430000007       6.95442753E-18
  0.432500005       7.52239290E-18
  0.435000002       8.09020855E-18
  0.437500000       8.65404960E-18
  0.439999998       9.20973299E-18
  0.442499995       9.75277623E-18
  0.444999993       1.02784313E-17
  0.447499990       1.07817128E-17
  0.449999988       1.12573681E-17
  0.452499986       1.16999288E-17
  0.455000013       1.21037567E-17
  0.457500011       1.24629913E-17
  0.460000008       1.27716223E-17
  0.462500006       1.30234335E-17
  0.465000004       1.32121241E-17
  0.467500001       1.33313539E-17
  0.469999999       1.33747255E-17
  0.472499996       1.33358604E-17
  0.474999994       1.32084010E-17
  0.477499992       1.29861070E-17
  0.479999989       1.26628630E-17
  0.482499987       1.22327299E-17
  0.485000014       1.16900167E-17
  0.487500012       1.10293384E-17
  0.490000010       1.02456195E-17
  0.492500007       9.33422450E-18
  0.495000005       8.29094708E-18
  0.497500002       7.11216095E-18
  0.500000000       5.79473768E-18
  0.502499998       4.33625241E-18
  0.504999995       2.73495151E-18
  0.507499993       9.89862741E-19
  0.509999990      -8.99261752E-19
  0.512499988      -2.93168215E-18
  0.514999986      -5.10582858E-18
  0.517499983      -7.41905653E-18
  0.519999981      -9.86772869E-18
  0.522499979      -1.24471599E-17
  0.524999976      -1.51514590E-17
  0.527499974      -1.79736189E-17
  0.529999971      -2.09054101E-17
  0.532500029      -2.39372901E-17
  0.535000026      -2.70585419E-17
  0.537500024      -3.02571286E-17
  0.540000021      -3.35196447E-17
  0.542500019      -3.68314278E-17
  0.545000017      -4.01764502E-17
  0.547500014      -4.35373777E-17
  0.550000012      -4.68956317E-17
  0.552500010      -5.02313070E-17
  0.555000007      -5.35232575E-17
  0.557500005      -5.67491097E-17
  0.560000002      -5.98853352E-17
  0.562500000      -6.29073040E-17
  0.564999998      -6.57893336E-17
  0.567499995      -6.85047756E-17
  0.569999993      -7.10261081E-17
  0.572499990      -7.33250548E-17
  0.574999988      -7.53725849E-17
  0.577499986      -7.71391979E-17
  0.579999983      -7.85949034E-17
  0.582499981      -7.97093738E-17
  0.584999979      -8.04522018E-17
  0.587499976      -8.07928546E-17
  0.589999974      -8.07009449E-17
  0.592499971      -8.01463236E-17
  0.595000029      -7.90994769E-17
  0.597500026      -7.75313013E-17
  0.600000024      -7.54136859E-17
  0.602500021      -7.27194130E-17
  0.605000019      -6.94225424E-17
  0.607500017      -6.54984572E-17
  0.610000014      -6.09241616E-17
  0.612500012      -5.56783873E-17
  0.615000010      -4.97417418E-17
  0.617500007      -4.30970562E-17
  0.620000005      -3.57293221E-17
  0.622500002      -2.76261070E-17
  0.625000000      -1.87776186E-17
  0.627499998      -9.17691046E-18
  0.629999995       1.18024601E-18
  0.632499993       1.22948429E-17
  0.634999990       2.41646555E-17
  0.637499988       3.67841064E-17
  0.639999986       5.01444530E-17
  0.642499983       6.42331488E-17
  0.644999981       7.90343547E-17
  0.647499979       9.45287909E-17
  0.649999976       1.10693488E-16
  0.652499974       1.27501911E-16
  0.654999971       1.44924386E-16
  0.657500029       1.62927859E-16
  0.660000026       1.81475949E-16
  0.662500024       2.00529187E-16
  0.665000021       2.20045184E-16
  0.667500019       2.39979072E-16
  0.670000017       2.60283351E-16
  0.672500014       2.80908418E-16
  0.675000012       3.01803265E-16
  0.677500010       3.22914926E-16
  0.680000007       3.44189800E-16
  0.682500005       3.65573623E-16
  0.685000002       3.87012504E-16
  0.687500000       4.08452575E-16
  0.689999998       4.29841454E-16
  0.692499995       4.51128530E-16
  0.694999993       4.72265337E-16
  0.697499990       4.93206745E-16
  0.699999988       5.13911618E-16
  0.702499986       5.34342741E-16
  0.704999983       5.54468932E-16
  0.707499981       5.74265310E-16
  0.709999979       5.93714033E-16
  0.712499976       6.12805467E-16
  0.714999974       6.31538925E-16
  0.717499971       6.49924251E-16
  0.720000029       6.67982199E-16
  0.722500026       6.85745222E-16
  0.725000024       7.03259586E-16
  0.727500021       7.20585063E-16
  0.730000019       7.37796931E-16
  0.732500017       7.54987359E-16
  0.735000014       7.72265190E-16
  0.737500012       7.89758062E-16
  0.740000010       8.07613093E-16
  0.742500007       8.25998102E-16
  0.745000005       8.45102559E-16
  0.747500002       8.65138488E-16
  0.750000000       8.86341735E-16
  0.752499998       9.08972761E-16
  0.754999995       9.33317229E-16
  0.757499993       9.59686635E-16
  0.759999990       9.88420110E-16
  0.762499988       1.01988474E-15
  0.764999986       1.05447650E-15
  0.767499983       1.09261999E-15
  0.769999981       1.13476993E-15
  0.772499979       1.18141117E-15
  0.774999976       1.23305868E-15
  0.777499974       1.29025776E-15
  0.779999971       1.35358533E-15
  0.782500029       1.42364861E-15
  0.785000026       1.50108585E-15
  0.787500024       1.58656640E-15
  0.790000021       1.68078939E-15
  0.792500019       1.78448327E-15
  0.795000017       1.89840666E-15
  0.797500014       2.02334572E-15
  0.800000012       2.16011422E-15
  0.802500010       2.30955307E-15
  0.805000007       2.47252708E-15
  0.807500005       2.64992606E-15
  0.810000002       2.84266142E-15
  0.812500000       3.05166510E-15
  0.814999998       3.27788791E-15
  0.817499995       3.52229630E-15
  0.819999993       3.78587136E-15
  0.822499990       4.06960537E-15
  0.824999988       4.37450081E-15
  0.827499986       4.70156522E-15
  0.829999983       5.05180953E-15
  0.832499981       5.42624426E-15
  0.834999979       5.82587652E-15
  0.837499976       6.25170793E-15
  0.839999974       6.70472656E-15
  0.842499971       7.18590819E-15
  0.845000029       7.69620912E-15
  0.847500026       8.23656193E-15
  0.850000024       8.80787210E-15
  0.852500021       9.41101208E-15
  0.855000019       1.00468213E-14
  0.857500017       1.07160925E-14
  0.860000014       1.14195754E-14
  0.862500012       1.21579662E-14
  0.865000010       1.29319044E-14
  0.867500007       1.37419669E-14
  0.870000005       1.45886653E-14
  0.872500002       1.54724341E-14
  0.875000000       1.63936315E-14
  0.877499998       1.73525321E-14
  0.879999995       1.83493188E-14
  0.882499993       1.93840779E-14
  0.884999990       2.04568011E-14
  0.887499988       2.15673647E-14
  0.889999986       2.27155398E-14
  0.892499983       2.39009760E-14
  0.894999981       2.51232005E-14
  0.897499979       2.63816187E-14
  0.899999976       2.76754920E-14
  0.902499974       2.90039531E-14
  0.904999971       3.03659855E-14
  0.907500029       3.17604321E-14
  0.910000026       3.31859784E-14
  0.912500024       3.46411607E-14
  0.915000021       3.61243526E-14
  0.917500019       3.76337653E-14
  0.920000017       3.91674506E-14
  0.922500014       4.07232807E-14
  0.925000012       4.22989755E-14
  0.927500010       4.38920716E-14
  0.930000007       4.54999367E-14
  0.932500005       4.71197720E-14
  0.935000002       4.87485994E-14
  0.937500000       5.03832748E-14
  0.939999998       5.20204810E-14
  0.942499995       5.36567386E-14
  0.944999993       5.52883951E-14
  0.947499990       5.69116491E-14
  0.949999988       5.85225228E-14
  0.952499986       6.01169098E-14
  0.954999983       6.16905547E-14
  0.957499981       6.32390529E-14
  0.959999979       6.47578711E-14
  0.962499976       6.62423743E-14
  0.964999974       6.76877919E-14
  0.967499971       6.90892791E-14
  0.970000029       7.04418755E-14
  0.972500026       7.17405736E-14
  0.975000024       7.29802842E-14
  0.977500021       7.41558914E-14
  0.980000019       7.52622316E-14
  0.982500017       7.62941617E-14
  0.985000014       7.72465181E-14
  0.987500012       7.81141848E-14
  0.990000010       7.88920795E-14
  0.992500007       7.95752150E-14
  0.995000005       8.01586716E-14
  0.997500002       8.06376789E-14
   1.00000000       8.10075883E-14
   1.00250006       8.12639276E-14
   1.00500000       8.14024548E-14
   1.00750005       8.14191108E-14
   1.00999999       8.13101349E-14
   1.01250005       8.10720374E-14
   1.01499999       8.07016536E-14
   1.01750004       8.01961647E-14
   1.01999998       7.95531447E-14
   1.02250004       7.87705879E-14
   1.02499998       7.78469357E-14
   1.02750003       7.67811243E-14
   1.02999997       7.55726048E-14
   1.03250003       7.42213772E-14
   1.03499997       7.27280513E-14
   1.03750002       7.10938470E-14
   1.03999996       6.93206343E-14
   1.04250002       6.74109884E-14
   1.04499996       6.53682159E-14
   1.04750001       6.31963625E-14
   1.04999995       6.09002594E-14
   1.05250001       5.84855718E-14
   1.05499995       5.59587946E-14
   1.05750000       5.33273038E-14
   1.05999994       5.05993698E-14
   1.06250000       4.77841745E-14
   1.06500006       4.48918348E-14
   1.06750000       4.19334367E-14
   1.07000005       3.89210250E-14
   1.07249999       3.58676305E-14
   1.07500005       3.27872596E-14
   1.07749999       2.96949253E-14
   1.08000004       2.66066330E-14
   1.08249998       2.35393726E-14
   1.08500004       2.05111163E-14
   1.08749998       1.75407970E-14
   1.09000003       1.46482981E-14
   1.09249997       1.18544328E-14
   1.09500003       9.18089440E-15
   1.09749997       6.65024667E-15
   1.10000002       4.28586389E-15
   1.10249996       2.11188882E-15
   1.10500002       1.53189945E-16
   1.10749996      -1.56471761E-15
   1.11000001      -3.01572888E-15
   1.11249995      -4.17322079E-15
   1.11500001      -5.01014779E-15
   1.11749995      -5.49911535E-15
   1.12000000      -5.61249028E-15
   1.12249994      -5.32249415E-15
   1.12500000      -4.60131972E-15
   1.12750006      -3.42125205E-15
   1.13000000      -1.75478757E-15
   1.13250005       4.25218851E-16
   1.13499999       3.14543017E-15
   1.13750005       6.43186464E-15
   1.13999999       1.03097505E-14
   1.14250004       1.48033627E-14
   1.14499998       1.99358471E-14
   1.14750004       2.57290527E-14
   1.14999998       3.22033524E-14
   1.15250003       3.93774572E-14
   1.15499997       4.72682230E-14
   1.15750003       5.58904729E-14
   1.15999997       6.52567735E-14
   1.16250002       7.53772587E-14
   1.16499996       8.62594230E-14
   1.16750002       9.79078946E-14
   1.16999996       1.10324280E-13
   1.17250001       1.23506904E-13
   1.17499995       1.37450652E-13
   1.17750001       1.52146768E-13
   1.17999995       1.67582650E-13
   1.18250000       1.83741612E-13
   1.18499994       2.00602799E-13
   1.18750000       2.18140908E-13
   1.19000006       2.36326095E-13
   1.19250000       2.55123830E-13
   1.19500005       2.74494620E-13
   1.19749999       2.94394012E-13
   1.20000005       3.14772405E-13
   1.20249999       3.35574992E-13
   1.20500004       3.56741573E-13
   1.20749998       3.78206608E-13
   1.21000004       3.99899108E-13
   1.21249998       4.21742583E-13
   1.21500003       4.43655095E-13
   1.21749997       4.65549203E-13
   1.22000003       4.87332126E-13
   1.22249997       5.08905635E-13
   1.22500002       5.30166351E-13
   1.22749996       5.51005747E-13
   1.23000002       5.71310414E-13
   1.23249996       5.90962121E-13
   1.23500001       6.09838189E-13
   1.23749995       6.27811659E-13
   1.24000001       6.44751722E-13
   1.24249995       6.60523773E-13
   1.24500000       6.74990174E-13
   1.24749994       6.88010413E-13
   1.25000000       6.99441644E-13
   1.25250006       7.09139128E-13
   1.25500000       7.16956822E-13
   1.25750005       7.22747979E-13
   1.25999999       7.26365745E-13
   1.26250005       7.27663752E-13
   1.26499999       7.26496717E-13
   1.26750004       7.22721525E-13
   1.26999998       7.16197663E-13
   1.27250004       7.06788089E-13
   1.27499998       6.94360205E-13
   1.27750003       6.78786563E-13
   1.27999997       6.59945839E-13
   1.28250003       6.37723652E-13
   1.28499997       6.12013641E-13
   1.28750002       5.82718498E-13
   1.28999996       5.49750675E-13
   1.29250002       5.13033680E-13
   1.29499996       4.72502950E-13
   1.29750001       4.28106850E-13
   1.29999995       3.79807839E-13
   1.30250001       3.27583338E-13
   1.30499995       2.71426815E-13
   1.30750000       2.11348869E-13
   1.30999994       1.47378136E-13
   1.31250000       7.95622587E-14
   1.31500006       7.96888936E-15
   1.31750000      -6.73134711E-14
   1.32000005      -1.46174400E-13
   1.32249999      -2.28481080E-13
   1.32500005      -3.14077106E-13
   1.32749999      -4.02782137E-13
   1.33000004      -4.94391041E-13
   1.33249998      -5.88673262E-13
   1.33500004      -6.85372386E-13
   1.33749998      -7.84205979E-13
   1.34000003      -8.84864664E-13
   1.34249997      -9.87012555E-13
   1.34500003      -1.09028661E-12
   1.34749997      -1.19429705E-12
   1.35000002      -1.29862700E-12
   1.35249996      -1.40283304E-12
   1.35500002      -1.50644590E-12
   1.35749996      -1.60897001E-12
   1.36000001      -1.70988495E-12
   1.36249995      -1.80864622E-12
   1.36500001      -1.90468583E-12
   1.36749995      -1.99741330E-12
   1.37000000      -2.08621770E-12
   1.37249994      -2.17046802E-12
   1.37500000      -2.24951611E-12
   1.37750006      -2.32269694E-12
   1.38000000      -2.38933135E-12
   1.38250005      -2.44872872E-12
   1.38499999      -2.50018821E-12
   1.38750005      -2.54300162E-12
   1.38999999      -2.57645598E-12
   1.39250004      -2.59983701E-12
   1.39499998      -2.61243132E-12
   1.39750004      -2.61352962E-12
   1.39999998      -2.60242999E-12
   1.40250003      -2.57844245E-12
   1.40499997      -2.54089067E-12
   1.40750003      -2.48911742E-12
   1.40999997      -2.42248712E-12
   1.41250002      -2.34039090E-12
   1.41499996      -2.24225044E-12
   1.41750002      -2.12752147E-12
   1.41999996      -1.99569875E-12
   1.42250001      -1.84632084E-12
   1.42499995      -1.67897337E-12
   1.42750001      -1.49329420E-12
   1.42999995      -1.28897793E-12
   1.43250000      -1.06578071E-12
   1.43499994      -8.23523541E-13
   1.43750000      -5.62098111E-13
   1.44000006      -2.81470539E-13
   1.44250000       1.83140890E-14
   1.44500005       3.37127841E-13
   1.44749999       6.74754903E-13
   1.45000005       1.03088859E-12
   1.45249999       1.40512764E-12
   1.45500004       1.79697067E-12
   1.45749998       2.20581496E-12
   1.46000004       2.63095188E-12
   1.46249998       3.07156535E-12
   1.46500003       3.52672665E-12
   1.46749997       3.99539429E-12
   1.47000003       4.47641273E-12
   1.47249997       4.96850694E-12
   1.47500002       5.47028525E-12
   1.47749996       5.98023540E-12
   1.48000002       6.49672677E-12
   1.48249996       7.01800814E-12
   1.48500001       7.54220818E-12
   1.48749995       8.06734020E-12
   1.49000001       8.59129781E-12
   1.49249995       9.11186144E-12
   1.49500000       9.62669961E-12
   1.49749994       1.01333698E-11
   1.50000000       1.06293281E-11
   1.50250006       1.11119256E-11
   1.50500000       1.15784205E-11
   1.50750005       1.20259783E-11
   1.50999999       1.24516846E-11
   1.51250005       1.28525419E-11
   1.51499999       1.32254867E-11
   1.51750004       1.35673929E-11
   1.51999998       1.38750790E-11
   1.52250004       1.41453238E-11
   1.52499998       1.43748676E-11
   1.52750003       1.45604310E-11
   1.52999997       1.46987179E-11
   1.53250003       1.47864377E-11
   1.53499997       1.48203012E-11
   1.53750002       1.47970542E-11
   1.53999996       1.47134718E-11
   1.54250002       1.45663828E-11
   1.54499996       1.43526822E-11
   1.54750001       1.40693403E-11
   1.54999995       1.37134236E-11
   1.55250001       1.32821081E-11
   1.55499995       1.27726935E-11
   1.55750000       1.21826186E-11
   1.55999994       1.15094783E-11
   1.56250000       1.07510389E-11
   1.56500006       9.90525457E-12
   1.56750000       8.97028198E-12
   1.57000005       7.94449489E-12
   1.57249999       6.82650377E-12
   1.57500005       5.61516849E-12
   1.57749999       4.30961256E-12
   1.58000004       2.90924056E-12
   1.58249998       1.41375063E-12
   1.58500004      -1.76850464E-13
   1.58749998      -1.86223584E-12
   1.59000003      -3.64174316E-12
   1.59249997      -5.51436327E-12
   1.59500003      -7.47873118E-12
   1.59749997      -9.53311041E-12
   1.60000002      -1.16753898E-11
   1.60249996      -1.39030679E-11
   1.60500002      -1.62132530E-11
   1.60749996      -1.86026472E-11
   1.61000001      -2.10675522E-11
   1.61249995      -2.36038532E-11
   1.61500001      -2.62070261E-11
   1.61749995      -2.88721269E-11
   1.62000000      -3.15937970E-11
   1.62249994      -3.43662668E-11
   1.62500000      -3.71833432E-11
   1.62750006      -4.00384344E-11
   1.63000000      -4.29245459E-11
   1.63250005      -4.58342773E-11
   1.63499999      -4.87598399E-11
   1.63750005      -5.16930700E-11
   1.63999999      -5.46254431E-11
   1.64250004      -5.75480705E-11
   1.64499998      -6.04517270E-11
   1.64750004      -6.33268576E-11
   1.64999998      -6.61636093E-11
   1.65250003      -6.89518373E-11
   1.65499997      -7.16811333E-11
   1.65750003      -7.43408321E-11
   1.65999997      -7.69200398E-11
   1.66250002      -7.94076957E-11
   1.66499996      -8.17925311E-11
   1.66750002      -8.40631592E-11
   1.66999996      -8.62080476E-11
   1.67250001      -8.82156015E-11
   1.67499995      -9.00741357E-11
   1.67750001      -9.17719511E-11
   1.67999995      -9.32973698E-11
   1.68250000      -9.46387135E-11
   1.68499994      -9.57843943E-11
   1.68750000      -9.67229144E-11
   1.69000006      -9.74429079E-11
   1.69250000      -9.79331893E-11
   1.69500005      -9.81827397E-11
   1.69749999      -9.81808315E-11
   1.70000005      -9.79169662E-11
   1.70249999      -9.73809644E-11
   1.70500004      -9.65629660E-11
   1.70749998      -9.54534993E-11
   1.71000004      -9.40434952E-11
   1.71249998      -9.23243218E-11
   1.71500003      -9.02877981E-11
   1.71749997      -8.79262566E-11
   1.72000003      -8.52325641E-11
   1.72249997      -8.22001217E-11
   1.72500002      -7.88229482E-11
   1.72749996      -7.50956589E-11
   1.73000002      -7.10135006E-11
   1.73249996      -6.65724073E-11
   1.73500001      -6.17689858E-11
   1.73749995      -5.66005715E-11
   1.74000001      -5.10652076E-11
   1.74249995      -4.51617181E-11
   1.74500000      -3.88896831E-11
   1.74749994      -3.22494809E-11
   1.75000000      -2.52423013E-11
   1.75250006      -1.78701498E-11
   1.75500000      -1.01358609E-11
   1.75750005      -2.04314820E-12
   1.75999999       6.40344201E-12
   1.76250005       1.51984900E-11
   1.76499999       2.43356758E-11
   1.76750004       3.38078072E-11
   1.76999998       4.36067675E-11
   1.77250004       5.37235534E-11
   1.77499998       6.41482284E-11
   1.77750003       7.48699783E-11
   1.77999997       8.58770208E-11
   1.78250003       9.71566438E-11
   1.78499997       1.08695233E-10
   1.78750002       1.20478197E-10
   1.78999996       1.32490019E-10
   1.79250002       1.44714213E-10
   1.79499996       1.57133348E-10
   1.79750001       1.69729036E-10
   1.79999995       1.82481918E-10
   1.80250001       1.95371677E-10
   1.80499995       2.08376941E-10
   1.80750000       2.21475421E-10
   1.80999994       2.34643804E-10
   1.81250000       2.47857818E-10
   1.81500006       2.61092120E-10
   1.81750000       2.74320344E-10
   1.82000005       2.87515095E-10
   1.82249999       3.00647979E-10
   1.82500005       3.13689519E-10
   1.82749999       3.26609101E-10
   1.83000004       3.39375139E-10
   1.83249998       3.51954882E-10
   1.83500004       3.64314495E-10
   1.83749998       3.76419035E-10
   1.84000003       3.88232446E-10
   1.84249997       3.99717454E-10
   1.84500003       4.10835671E-10
   1.84749997       4.21547575E-10
   1.85000002       4.31812502E-10
   1.85249996       4.41588488E-10
   1.85500002       4.50832482E-10
   1.85749996       4.59500216E-10
   1.86000001       4.67546224E-10
   1.86249995       4.74923934E-10
   1.86500001       4.81585438E-10
   1.86749995       4.87481888E-10
   1.87000000       4.92563046E-10
   1.87249994       4.96777675E-10
   1.87500000       5.00073372E-10
   1.87750006       5.02396735E-10
   1.88000000       5.03693254E-10
   1.88250005       5.03907360E-10
   1.88499999       5.02982711E-10
   1.88750005       5.00861908E-10
   1.88999999       4.97486885E-10
   1.89250004       4.92798580E-10
   1.89499998       4.86737428E-10
   1.89750004       4.79243423E-10
   1.89999998       4.70255834E-10
   1.90250003       4.59713823E-10
   1.90499997       4.47556103E-10
   1.90750003       4.33721448E-10
   1.90999997       4.18148710E-10
   1.91250002       4.00776912E-10
   1.91499996       3.81545545E-10
   1.91750002       3.60394659E-10
   1.91999996       3.37265160E-10
   1.92250001       3.12099013E-10
   1.92499995       2.84839485E-10
   1.92750001       2.55431287E-10
   1.92999995       2.23820962E-10
   1.93250000       1.89957203E-10
   1.93499994       1.53791035E-10
   1.93750000       1.15276198E-10
   1.94000006       7.43695244E-11
   1.94250000       3.10312470E-11
   1.94500005      -1.47747231E-11
   1.94749999      -6.30802147E-11
   1.95000005      -1.13912504E-10
   1.95249999      -1.67293929E-10
   1.95500004      -2.23241300E-10
   1.95749998      -2.81765639E-10
   1.96000004      -3.42871564E-10
   1.96249998      -4.06556844E-10
   1.96500003      -4.72811845E-10
   1.96749997      -5.41619249E-10
   1.97000003      -6.12953077E-10
   1.97249997      -6.86778523E-10
   1.97500002      -7.63051566E-10
   1.97749996      -8.41717585E-10
   1.98000002      -9.22711685E-10
   1.98249996      -1.00595776E-09
   1.98500001      -1.09136766E-09
   1.98749995      -1.17884114E-09
   1.99000001      -1.26826449E-09
   1.99249995      -1.35951095E-09
   1.99500000      -1.45243906E-09
   1.99749994      -1.54689306E-09
   2.00000000      -1.64270142E-09
   2.00250006      -1.73967685E-09
   2.00500011      -1.83761573E-09
   2.00749993      -1.93629690E-09
   2.00999999      -2.03548223E-09
   2.01250005      -2.13491513E-09
   2.01500010      -2.23432073E-09
   2.01749992      -2.33340525E-09
   2.01999998      -2.43185516E-09
   2.02250004      -2.52933807E-09
   2.02500010      -2.62550026E-09
   2.02749991      -2.71996914E-09
   2.02999997      -2.81235080E-09
   2.03250003      -2.90223090E-09
   2.03500009      -2.98917491E-09
   2.03749990      -3.07272652E-09
   2.03999996      -3.15241033E-09
   2.04250002      -3.22772942E-09
   2.04500008      -3.29816707E-09
   2.04749990      -3.36318706E-09
   2.04999995      -3.42223339E-09
   2.05250001      -3.47473206E-09
   2.05500007      -3.52009066E-09
   2.05749989      -3.55769969E-09
   2.05999994      -3.58693386E-09
   2.06250000      -3.60715258E-09
   2.06500006      -3.61770125E-09
   2.06750011      -3.61791375E-09
   2.06999993      -3.60711216E-09
   2.07249999      -3.58461016E-09
   2.07500005      -3.54971452E-09
   2.07750010      -3.50172646E-09
   2.07999992      -3.43994522E-09
   2.08249998      -3.36366934E-09
   2.08500004      -3.27219962E-09
   2.08750010      -3.16484305E-09
   2.08999991      -3.04091397E-09
   2.09249997      -2.89973912E-09
   2.09500003      -2.74065992E-09
   2.09750009      -2.56303645E-09
   2.09999990      -2.36625142E-09
   2.10249996      -2.14971463E-09
   2.10500002      -1.91286653E-09
   2.10750008      -1.65518310E-09
   2.10999990      -1.37617973E-09
   2.11249995      -1.07541731E-09
   2.11500001      -7.52506224E-10