  -2.50000004E-02   0.00000000    
  -2.25000009E-02  -1.25740056E-17
  -1.99999996E-02  -2.58926954E-17
  -1.75000001E-02  -2.87975479E-16
  -1.49999997E-02  -7.44147667E-16
  -1.25000002E-02  -1.04451137E-15
  -9.99999978E-03  -1.62128533E-15
  -7.49999983E-03  -2.35691047E-15
  -4.99999989E-03  -2.52216871E-15
  -2.49999994E-03  -2.96604193E-15
   0.00000000      -4.11610536E-15
   2.49999994E-03  -4.43831034E-15
   4.99999989E-03  -3.55530814E-15
   7.49999983E-03  -3.16968157E-15
   9.99999978E-03  -3.25234669E-15
   1.25000002E-02  -3.84101744E-15
   1.49999997E-02  -3.99416438E-15
   1.75000001E-02  -3.08523662E-15
   1.99999996E-02  -1.88796338E-15
   2.25000009E-02  -1.64280579E-15
   2.50000004E-02  -1.42278570E-15
   2.74999999E-02  -6.30536024E-17
   2.99999993E-02  -2.32934299E-16
   3.24999988E-02  -5.19669272E-16
   3.50000001E-02   3.63828232E-16
   3.75000015E-02   2.13502849E-15
   3.99999991E-02   5.00307125E-15
   4.25000004E-02   5.78879723E-15
   4.50000018E-02   5.14213924E-15
   4.74999994E-02   6.63673353E-15
   5.00000007E-02   9.95826736E-15
   5.24999984E-02   1.16365064E-14
   5.49999997E-02   1.18885445E-14
   5.75000010E-02   1.40185621E-14
   5.99999987E-02   1.34668447E-14
   6.25000000E-02   6.97950998E-15
   6.49999976E-02   2.20748772E-15
   6.75000027E-02   1.67482713E-15
   7.00000003E-02  -1.75923912E-16
   7.24999979E-02  -4.27293478E-15
   7.50000030E-02  -8.34078849E-15
   7.75000006E-02  -9.75495404E-15
   7.99999982E-02  -7.89345514E-15
   8.25000033E-02  -6.76974778E-15
   8.50000009E-02  -6.98352449E-15
   8.74999985E-02  -4.14427556E-15
   9.00000036E-02   5.01419682E-16
   9.25000012E-02   2.08636582E-15
   9.49999988E-02   1.75672791E-15
   9.74999964E-02   3.44467971E-15
  0.100000001       6.52669676E-15
  0.102499999       6.42005404E-15
  0.104999997       5.88730801E-15
  0.107500002       5.99968514E-15
  0.109999999       3.83379267E-15
  0.112499997       3.29166829E-15
  0.115000002       2.86792227E-15
  0.117500000       2.44302704E-15
  0.119999997       5.63066676E-15
  0.122500002       7.87799510E-15
  0.125000000       5.77023704E-15
  0.127499998       5.35992200E-15
  0.129999995       7.21390009E-15
  0.132499993       6.95107636E-15
  0.135000005       5.73344278E-15
  0.137500003       6.95286190E-15
  0.140000001       1.07869637E-14
  0.142499998       1.28229184E-14
  0.144999996       1.60384943E-14
  0.147499993       1.45600525E-14
  0.150000006       7.21205271E-15
  0.152500004       4.68803260E-15
  0.155000001       4.13101907E-15
  0.157499999       2.80900054E-15
  0.159999996      -2.43960312E-15
  0.162499994      -3.45119784E-15
  0.165000007       5.94883150E-18
  0.167500004      -2.56368116E-15
  0.170000002      -4.51823722E-15
  0.172499999      -2.59249257E-15
  0.174999997      -5.39532882E-15
  0.177499995      -8.48304937E-15
  0.180000007      -8.94032095E-15
  0.182500005      -1.47858275E-14
  0.185000002      -1.74769731E-14
  0.187500000      -1.34827774E-14
  0.189999998      -8.72740397E-15
  0.192499995      -8.08867421E-15
  0.194999993      -1.09817229E-14
  0.197500005      -1.17582031E-14
  0.200000003      -1.24362817E-14
  0.202500001      -1.43417213E-14
  0.204999998      -1.52960242E-14
  0.207499996      -1.98706611E-14
  0.209999993      -2.10489924E-14
  0.212500006      -1.21478704E-14
  0.215000004      -1.31636840E-14
  0.217500001      -2.23499638E-14
  0.219999999      -2.64194794E-14
  0.222499996      -3.29875795E-14
  0.224999994      -4.69739163E-14
  0.227500007      -5.60640605E-14
  0.230000004      -5.87149415E-14
  0.232500002      -6.21892200E-14
  0.234999999      -6.72078156E-14
  0.237499997      -7.68408164E-14
  0.239999995      -9.22599331E-14
  0.242500007      -9.91627909E-14
  0.245000005      -1.06904753E-13
  0.247500002      -1.18912096E-13
  0.250000000      -1.32193735E-13
  0.252499998      -1.49542420E-13
  0.254999995      -1.59555163E-13
  0.257499993      -1.70380677E-13
  0.259999990      -1.82301507E-13
  0.262499988      -1.93528272E-13
  0.264999986      -1.98458315E-13
  0.267500013      -1.98538817E-13
  0.270000011      -2.06466165E-13
  0.272500008      -2.20604351E-13
  0.275000006      -2.32346396E-13
  0.277500004      -2.40057973E-13
  0.280000001      -2.49369210E-13
  0.282499999      -2.66666653E-13
  0.284999996      -2.89609889E-13
  0.287499994      -3.13351829E-13
  0.289999992      -3.32856193E-13
  0.292499989      -3.56935835E-13
  0.294999987      -3.86965796E-13
  0.297500014      -4.15329799E-13
  0.300000012      -4.32342584E-13
  0.302500010      -4.24513099E-13
  0.305000007      -4.18243592E-13
  0.307500005      -4.16037566E-13
  0.310000002      -4.10258524E-13
  0.312500000      -4.16963637E-13
  0.314999998      -4.32343424E-13
  0.317499995      -4.47954960E-13
  0.319999993      -4.51584625E-13
  0.322499990      -4.52031939E-13
  0.324999988      -4.57636750E-13
  0.327499986      -4.48471121E-13
  0.330000013      -4.32893847E-13
  0.332500011      -4.26157970E-13
  0.335000008      -4.27251875E-13
  0.337500006      -4.33469721E-13
  0.340000004      -4.27097404E-13
  0.342500001      -4.11217067E-13
  0.344999999      -3.97512101E-13
  0.347499996      -3.83190929E-13
  0.349999994      -3.61363608E-13
  0.352499992      -3.36603114E-13
  0.354999989      -3.09390317E-13
  0.357499987      -2.86346359E-13
  0.360000014      -2.64345945E-13
  0.362500012      -2.39557641E-13
  0.365000010      -2.23313745E-13
  0.367500007      -2.13692941E-13
  0.370000005      -2.07166492E-13
  0.372500002      -1.96061361E-13
  0.375000000      -1.86745896E-13
  0.377499998      -1.71589319E-13
  0.379999995      -1.45679665E-13
  0.382499993      -1.23927439E-13
  0.384999990      -1.00444108E-13
  0.387499988      -7.86856813E-14
  0.389999986      -6.27492443E-14
  0.392500013      -3.61721287E-14
  0.395000011       4.21609252E-15
  0.397500008       3.50353698E-14
  0.400000006       3.92046828E-14
  0.402500004       4.33055860E-14
  0.405000001       7.08070348E-14
  0.407499999       9.57329783E-14
  0.409999996       1.12001798E-13
  0.412499994       1.28265345E-13
  0.414999992       1.53979924E-13
  0.417499989       1.85782772E-13
  0.419999987       2.02980997E-13
  0.422500014       1.91258901E-13
  0.425000012       1.68866670E-13
  0.427500010       1.50256137E-13
  0.430000007       1.37773853E-13
  0.432500005       1.26934907E-13
  0.435000002       1.06521230E-13
  0.437500000       7.97838155E-14
  0.439999998       5.41880485E-14
  0.442499995       2.68299956E-14
  0.444999993      -7.46623205E-15
  0.447499990      -4.29917942E-14
  0.449999988      -8.37178092E-14
  0.452499986      -1.23764456E-13
  0.455000013      -1.54065806E-13
  0.457500011      -1.76865765E-13
  0.460000008      -2.14690773E-13
  0.462500006      -2.58728721E-13
  0.465000004      -2.95094353E-13
  0.467500001      -3.34439778E-13
  0.469999999      -3.69577470E-13
  0.472499996      -3.97551593E-13
  0.474999994      -4.19606705E-13
  0.477499992      -4.40815082E-13
  0.479999989      -4.69192176E-13
  0.482499987      -4.94143517E-13
  0.485000014      -5.11428573E-13
  0.487500012      -5.33507375E-13
  0.490000010      -5.60000017E-13
  0.492500007      -5.83102848E-13
  0.495000005      -5.87814357E-13
  0.497500002      -5.75156947E-13
  0.500000000      -5.63250564E-13
  0.502499998      -5.49080584E-13
  0.504999995      -5.42953811E-13
  0.507499993      -5.35730260E-13
  0.509999990      -5.27937503E-13
  0.512499988      -5.26702217E-13
  0.514999986      -5.34642697E-13
  0.517499983      -5.31615442E-13
  0.519999981      -5.08482471E-13
  0.522499979      -4.90800922E-13
  0.524999976      -4.65976921E-13
  0.527499974      -4.22680825E-13
  0.529999971      -3.72976796E-13
  0.532500029      -3.24415516E-13
  0.535000026      -2.89960926E-13
  0.537500024      -2.62306507E-13
  0.540000021      -2.16349630E-13
  0.542500019      -1.55190951E-13
  0.545000017      -8.23053783E-14
  0.547500014       1.95235250E-15
  0.550000012       8.41190995E-14
  0.552500010       1.61293532E-13
  0.555000007       2.33036436E-13
  0.557500005       2.99591705E-13
  0.560000002       3.56861947E-13
  0.562500000       4.09493349E-13
  0.564999998       4.51955666E-13
  0.567499995       4.75042531E-13
  0.569999993       4.92161216E-13
  0.572499990       5.11291801E-13
  0.574999988       5.25747956E-13
  0.577499986       5.42948119E-13
  0.579999983       5.73256015E-13
  0.582499981       5.91285213E-13
  0.584999979       6.02973563E-13
  0.587499976       6.23596498E-13
  0.589999974       6.37153850E-13
  0.592499971       6.45054268E-13
  0.595000029       6.51554928E-13
  0.597500026       6.43470140E-13
  0.600000024       6.34987831E-13
  0.602500021       6.39968818E-13
  0.605000019       6.50135761E-13
  0.607500017       6.52843502E-13
  0.610000014       6.56819705E-13
  0.612500012       6.51317433E-13
  0.615000010       6.28918900E-13
  0.617500007       6.10713140E-13
  0.620000005       5.90642986E-13
  0.622500002       5.54887733E-13
  0.625000000       5.05476303E-13
  0.627499998       4.60102713E-13
  0.629999995       4.41148311E-13
  0.632499993       4.41055504E-13
  0.634999990       4.23785762E-13
  0.637499988       4.08188864E-13
  0.639999986       3.99654024E-13
  0.642499983       3.96847052E-13
  0.644999981       3.91160655E-13
  0.647499979       3.86587572E-13
  0.649999976       4.04055316E-13
  0.652499974       4.19042812E-13
  0.654999971       4.47379113E-13
  0.657500029       4.95389591E-13
  0.660000026       5.30319115E-13
  0.662500024       5.26090564E-13
  0.665000021       4.93180529E-13
  0.667500019       4.80211628E-13
  0.670000017       4.66600012E-13
  0.672500014       4.32468460E-13
  0.675000012       4.34889700E-13
  0.677500010       4.60558783E-13
  0.680000007       4.52456594E-13
  0.682500005       4.59725736E-13
  0.685000002       5.15459854E-13
  0.687500000       5.71696661E-13
  0.689999998       6.04757780E-13
  0.692499995       6.23073750E-13
  0.694999993       6.50574429E-13
  0.697499990       6.81005003E-13
  0.699999988       7.35809688E-13
  0.702499986       8.37353570E-13
  0.704999983       9.49522904E-13
  0.707499981       1.06302890E-12
  0.709999979       1.18398162E-12
  0.712499976       1.27935238E-12
  0.714999974       1.37003646E-12
  0.717499971       1.48980502E-12
  0.720000029       1.63109218E-12
  0.722500026       1.78838736E-12
  0.725000024       1.94851253E-12
  0.727500021       2.09459034E-12
  0.730000019       2.23854095E-12
  0.732500017       2.37397168E-12
  0.735000014       2.47075320E-12
  0.737500012       2.56879153E-12
  0.740000010       2.67327545E-12
  0.742500007       2.76566790E-12
  0.745000005       2.85256909E-12
  0.747500002       2.94563831E-12
  0.750000000       3.07252205E-12
  0.752499998       3.19766305E-12
  0.754999995       3.31375487E-12
  0.757499993       3.40969310E-12
  0.759999990       3.49195542E-12
  0.762499988       3.61603044E-12
  0.764999986       3.73427548E-12
  0.767499983       3.85744735E-12
  0.769999981       4.01459465E-12
  0.772499979       4.18332860E-12
  0.774999976       4.37453979E-12
  0.777499974       4.58957134E-12
  0.779999971       4.81203835E-12
  0.782500029       5.09022208E-12
  0.785000026       5.43201378E-12
  0.787500024       5.79926081E-12
  0.790000021       6.19387224E-12
  0.792500019       6.60606899E-12
  0.795000017       7.05332103E-12
  0.797500014       7.55489421E-12
  0.800000012       8.08619838E-12
  0.802500010       8.65042413E-12
  0.805000007       9.27988329E-12
  0.807500005       9.96028086E-12
  0.810000002       1.06850197E-11
  0.812500000       1.14905386E-11
  0.814999998       1.23665019E-11
  0.817499995       1.33104092E-11
  0.819999993       1.43922938E-11
  0.822499990       1.55713879E-11
  0.824999988       1.67988904E-11
  0.827499986       1.80802370E-11
  0.829999983       1.94679516E-11
  0.832499981       2.09750411E-11
  0.834999979       2.25662405E-11
  0.837499976       2.42751357E-11
  0.839999974       2.60600291E-11
  0.842499971       2.79116209E-11
  0.845000029       2.98770279E-11
  0.847500026       3.19563681E-11
  0.850000024       3.41131359E-11
  0.852500021       3.63307197E-11
  0.855000019       3.86224212E-11
  0.857500017       4.09696721E-11
  0.860000014       4.34121766E-11
  0.862500012       4.59552535E-11
  0.865000010       4.85729824E-11
  0.867500007       5.12828564E-11
  0.870000005       5.40842336E-11
  0.872500002       5.69362231E-11
  0.875000000       5.98167557E-11
  0.877499998       6.27495764E-11
  0.879999995       6.57464777E-11
  0.882499993       6.87837981E-11
  0.884999990       7.18195364E-11
  0.887499988       7.48637263E-11
  0.889999986       7.79142723E-11
  0.892499983       8.09843095E-11
  0.894999981       8.40504957E-11
  0.897499979       8.71159672E-11
  0.899999976       9.02162095E-11
  0.902499974       9.33148489E-11
  0.904999971       9.63922414E-11
  0.907500029       9.94259536E-11
  0.910000026       1.02367802E-10
  0.912500024       1.05204477E-10
  0.915000021       1.08013556E-10
  0.917500019       1.10714792E-10
  0.920000017       1.13298933E-10
  0.922500014       1.15820006E-10
  0.925000012       1.18198382E-10
  0.927500010       1.20424712E-10
  0.930000007       1.22511959E-10
  0.932500005       1.24423027E-10
  0.935000002       1.26140570E-10
  0.937500000       1.27619998E-10
  0.939999998       1.28821176E-10
  0.942499995       1.29775204E-10
  0.944999993       1.30461753E-10
  0.947499990       1.30927338E-10
  0.949999988       1.31154559E-10
  0.952499986       1.31072223E-10
  0.954999983       1.30673292E-10
  0.957499981       1.29951203E-10
  0.959999979       1.28896532E-10
  0.962499976       1.27444263E-10
  0.964999974       1.25555788E-10
  0.967499971       1.23238544E-10
  0.970000029       1.20562338E-10
  0.972500026       1.17535176E-10
  0.975000024       1.14099251E-10
  0.977500021       1.10235071E-10
  0.980000019       1.05912758E-10
  0.982500017       1.01220705E-10
  0.985000014       9.60902330E-11
  0.987500012       9.03927627E-11
  0.990000010       8.42407533E-11
  0.992500007       7.76826312E-11
  0.995000005       7.06291553E-11
  0.997500002       6.30667532E-11
   1.00000000       5.49772172E-11
   1.00250006       4.63822626E-11
   1.00500000       3.72742809E-11
   1.00750005       2.75685065E-11
   1.00999999       1.73389515E-11
   1.01250005       6.60548265E-12
   1.01499999      -4.57946051E-12
   1.01750004      -1.62127291E-11
   1.01999998      -2.83181395E-11
   1.02250004      -4.08549271E-11
   1.02499998      -5.37891121E-11
   1.02750003      -6.70795294E-11
   1.02999997      -8.08228970E-11
   1.03250003      -9.50137885E-11
   1.03499997      -1.09597546E-10
   1.03750002      -1.24565774E-10
   1.03999996      -1.39874334E-10
   1.04250002      -1.55535418E-10
   1.04499996      -1.71464912E-10
   1.04750001      -1.87584892E-10
   1.04999995      -2.03912331E-10
   1.05250001      -2.20422902E-10
   1.05499995      -2.36993175E-10
   1.05750000      -2.53572940E-10
   1.05999994      -2.70127976E-10
   1.06250000      -2.86659474E-10
   1.06500006      -3.03161468E-10
   1.06750000      -3.19441140E-10
   1.07000005      -3.35421774E-10
   1.07249999      -3.51093432E-10
   1.07500005      -3.66445346E-10
   1.07749999      -3.81409959E-10
   1.08000004      -3.95871058E-10
   1.08249998      -4.09772855E-10
   1.08500004      -4.23037300E-10
   1.08749998      -4.35610215E-10
   1.09000003      -4.47401005E-10
   1.09249997      -4.58306004E-10
   1.09500003      -4.68215189E-10
   1.09749997      -4.77033080E-10
   1.10000002      -4.84744411E-10
   1.10249996      -4.91298502E-10
   1.10500002      -4.96561292E-10
   1.10749996      -5.00443076E-10
   1.11000001      -5.02962449E-10
   1.11249995      -5.03967590E-10
   1.11500001      -5.03417863E-10
   1.11749995      -5.01311437E-10
   1.12000000      -4.97586472E-10
   1.12249994      -4.92209329E-10
   1.12500000      -4.85070484E-10
   1.12750006      -4.76156392E-10
   1.13000000      -4.65387756E-10
   1.13250005      -4.52717364E-10
   1.13499999      -4.38151931E-10
   1.13750005      -4.21638724E-10
   1.13999999      -4.03083650E-10
   1.14250004      -3.82373855E-10
   1.14499998      -3.59547947E-10
   1.14750004      -3.34706957E-10
   1.14999998      -3.07866121E-10
   1.15250003      -2.78964407E-10
   1.15499997      -2.47920434E-10
   1.15750003      -2.14772963E-10
   1.15999997      -1.79633475E-10
   1.16250002      -1.42465262E-10
   1.16499996      -1.03317396E-10
   1.16750002      -6.22909987E-11
   1.16999996      -1.94647926E-11
   1.17250001       2.50327276E-11
   1.17499995       7.11474421E-11
   1.17750001       1.18811488E-10
   1.17999995       1.67915681E-10
   1.18250000       2.18361454E-10
   1.18499994       2.69986922E-10
   1.18750000       3.22654181E-10
   1.19000006       3.76263104E-10
   1.19250000       4.30738695E-10
   1.19500005       4.85871676E-10
   1.19749999       5.41388767E-10
   1.20000005       5.97189798E-10
   1.20249999       6.53096188E-10
   1.20500004       7.08858583E-10
   1.20749998       7.64246444E-10
   1.21000004       8.19045110E-10
   1.21249998       8.73015604E-10
   1.21500003       9.25881316E-10
   1.21749997       9.77374848E-10
   1.22000003       1.02722797E-09
   1.22249997       1.07523235E-09
   1.22500002       1.12115628E-09
   1.22749996       1.16468291E-09
   1.23000002       1.20551469E-09
   1.23249996       1.24344113E-09
   1.23500001       1.27819744E-09
   1.23749995       1.30936251E-09
   1.24000001       1.33662170E-09
   1.24249995       1.35977352E-09
   1.24500000       1.37855860E-09
   1.24749994       1.39269662E-09
   1.25000000       1.40194978E-09
   1.25250006       1.40589751E-09
   1.25500000       1.40417256E-09
   1.25750005       1.39657241E-09
   1.25999999       1.38281164E-09
   1.26250005       1.36260991E-09
   1.26499999       1.33569256E-09
   1.26750004       1.30182820E-09
   1.26999998       1.26076694E-09
   1.27250004       1.21226984E-09
   1.27499998       1.15614618E-09
   1.27750003       1.09210607E-09
   1.27999997       1.02004782E-09
   1.28250003       9.39761380E-10
   1.28499997       8.50959136E-10
   1.28750002       7.53603402E-10
   1.28999996       6.47544962E-10
   1.29250002       5.32700106E-10
   1.29499996       4.09010520E-10
   1.29750001       2.76403234E-10
   1.29999995       1.34824832E-10
   1.30250001      -1.56687892E-11
   1.30499995      -1.74997183E-10
   1.30750000      -3.43214818E-10
   1.30999994      -5.20251175E-10
   1.31250000      -7.05911329E-10
   1.31500006      -9.00034935E-10
   1.31750000      -1.10249310E-09
   1.32000005      -1.31301303E-09
   1.32249999      -1.53125712E-09
   1.32500005      -1.75696835E-09
   1.32749999      -1.98992445E-09
   1.33000004      -2.22968866E-09
   1.33249998      -2.47574539E-09
   1.33500004      -2.72776757E-09
   1.33749998      -2.98524983E-09
   1.34000003      -3.24756111E-09
   1.34249997      -3.51422025E-09
   1.34500003      -3.78471832E-09
   1.34749997      -4.05845091E-09
   1.35000002      -4.33477387E-09
   1.35249996      -4.61293981E-09
   1.35500002      -4.89233365E-09
   1.35749996      -5.17228926E-09
   1.36000001      -5.45198153E-09
   1.36249995      -5.73063641E-09
   1.36500001      -6.00745054E-09
   1.36749995      -6.28164543E-09
   1.37000000      -6.55235377E-09
   1.37249994      -6.81863632E-09
   1.37500000      -7.07957648E-09
   1.37750006      -7.33437044E-09
   1.38000000      -7.58210739E-09
   1.38250005      -7.82194842E-09
   1.38499999      -8.05295919E-09
   1.38750005      -8.27417601E-09
   1.38999999      -8.48467963E-09
   1.39250004      -8.68351080E-09
   1.39499998      -8.86972096E-09
   1.39750004      -9.04238018E-09
   1.39999998      -9.20078858E-09
   1.40250003      -9.34420896E-09
   1.40499997      -9.47171319E-09
   1.40750003      -9.58249835E-09
   1.40999997      -9.67573222E-09
   1.41250002      -9.75056480E-09
   1.41499996      -9.80640280E-09
   1.41750002      -9.84265558E-09
   1.41999996      -9.85867388E-09
   1.42250001      -9.85385551E-09
   1.42499995      -9.82782211E-09
   1.42750001      -9.78013581E-09
   1.42999995      -9.71036851E-09
   1.43250000      -9.61822177E-09
   1.43499994      -9.50349488E-09
   1.43750000      -9.36608124E-09
   1.44000006      -9.20589027E-09
   1.44250000      -9.02296726E-09
   1.44500005      -8.81746143E-09
   1.44749999      -8.58957350E-09
   1.45000005      -8.33955660E-09
   1.45249999      -8.06789302E-09
   1.45500004      -7.77510945E-09
   1.45749998      -7.46163398E-09
   1.46000004      -7.12816872E-09
   1.46249998      -6.77561518E-09
   1.46500003      -6.40485442E-09
   1.46749997      -6.01689676E-09
   1.47000003      -5.61290392E-09
   1.47249997      -5.19405852E-09
   1.47500002      -4.76172346E-09
   1.47749996      -4.31736380E-09
   1.48000002      -3.86261778E-09
   1.48249996      -3.39927353E-09
   1.48500001      -2.92903368E-09
   1.48749995      -2.45387266E-09
   1.49000001      -1.97593852E-09
   1.49249995      -1.49738466E-09
   1.49500000      -1.02044850E-09
   1.49749994      -5.47385082E-10
   1.50000000      -8.07446957E-11
   1.50250006       3.76662562E-10
   1.50500000       8.22202528E-10
   1.50750005       1.25317112E-09
   1.50999999       1.66666081E-09
   1.51250005       2.05960227E-09
   1.51499999       2.42878584E-09
   1.51750004       2.77112955E-09
   1.51999998       3.08333492E-09
   1.52250004       3.36202133E-09
   1.52499998       3.60387187E-09
   1.52750003       3.80530985E-09
   1.52999997       3.96277589E-09
   1.53250003       4.07263689E-09
   1.53499997       4.13113188E-09
   1.53750002       4.13449630E-09
   1.53999996       4.07886658E-09
   1.54250002       3.96040134E-09
   1.54499996       3.77521570E-09
   1.54750001       3.51933815E-09
   1.54999995       3.18869531E-09
   1.55250001       2.77917778E-09
   1.55499995       2.28674768E-09
   1.55750000       1.70737413E-09
   1.55999994       1.03689413E-09
   1.56250000       2.71129813E-10
   1.56500006      -5.93991467E-10
   1.56750000      -1.56267999E-09
   1.57000005      -2.63921840E-09
   1.57249999      -3.82782028E-09
   1.57500005      -5.13271026E-09
   1.57749999      -6.55813981E-09
   1.58000004      -8.10825984E-09
   1.58249998      -9.78717196E-09
   1.58500004      -1.15990790E-08
   1.58749998      -1.35482123E-08
   1.59000003      -1.56386051E-08
   1.59249997      -1.78742070E-08
   1.59500003      -2.02590176E-08
   1.59749997      -2.27969448E-08
   1.60000002      -2.54918593E-08
   1.60249996      -2.83475678E-08
   1.60500002      -3.13675876E-08
   1.60749996      -3.45554376E-08
   1.61000001      -3.79144680E-08
   1.61249995      -4.14477448E-08
   1.61500001      -4.51583233E-08
   1.61749995      -4.90489853E-08
   1.62000000      -5.31222177E-08
   1.62249994      -5.73802090E-08
   1.62500000      -6.18248421E-08
   1.62750006      -6.64578081E-08
   1.63000000      -7.12803470E-08
   1.63250005      -7.62932260E-08
   1.63499999      -8.14965588E-08
   1.63750005      -8.68901040E-08
   1.63999999      -9.24731438E-08
   1.64250004      -9.82441861E-08
   1.64499998      -1.04201042E-07
   1.64750004      -1.10340807E-07
   1.64999998      -1.16659763E-07
   1.65250003      -1.23153299E-07
   1.65499997      -1.29815817E-07
   1.65750003      -1.36640679E-07
   1.65999997      -1.43620227E-07
   1.66250002      -1.50745464E-07
   1.66499996      -1.58006088E-07
   1.66750002      -1.65390460E-07
   1.66999996      -1.72885564E-07
   1.67250001      -1.80476860E-07
   1.67499995      -1.88147979E-07
   1.67750001      -1.95880943E-07
   1.67999995      -2.03656072E-07
   1.68250000      -2.11451521E-07
   1.68499994      -2.19243574E-07
   1.68750000      -2.27006510E-07
   1.69000006      -2.34712260E-07
   1.69250000      -2.42330373E-07
   1.69500005      -2.49828190E-07
   1.69749999      -2.57170683E-07
   1.70000005      -2.64320363E-07
   1.70249999      -2.71237013E-07
   1.70500004      -2.77877859E-07
   1.70749998      -2.84197569E-07
   1.71000004      -2.90147995E-07
   1.71249998      -2.95678348E-07
   1.71500003      -3.00735024E-07
   1.71749997      -3.05261779E-07
   1.72000003      -3.09199550E-07
   1.72249997      -3.12486492E-07
   1.72500002      -3.15058173E-07
   1.72749996      -3.16847576E-07
   1.73000002      -3.17785009E-07
   1.73249996      -3.17798566E-07
   1.73500001      -3.16813782E-07
   1.73749995      -3.14753947E-07
   1.74000001      -3.11540703E-07
   1.74249995      -3.07093558E-07
   1.74500000      -3.01330402E-07
   1.74749994      -2.94167648E-07
   1.75000000      -2.85520542E-07
   1.75250006      -2.75303677E-07
   1.75500000      -2.63430934E-07
   1.75750005      -2.49816082E-07
   1.75999999      -2.34373061E-07
   1.76250005      -2.17016293E-07
   1.76499999      -1.97661308E-07
   1.76750004      -1.76225129E-07
   1.76999998      -1.52626725E-07
   1.77250004      -1.26787597E-07
   1.77499998      -9.86321496E-08
   1.77750003      -6.80884682E-08
   1.77999997      -3.50889096E-08
   1.78250003       4.29193514E-10
   1.78499997       3.85230159E-08
   1.78750002       7.92435983E-08
   1.78999996       1.22634972E-07
   1.79250002       1.68733806E-07
   1.79499996       2.17568342E-07
   1.79750001       2.69157312E-07
   1.79999995       3.23509767E-07
   1.80250001       3.80624357E-07
   1.80499995       4.40488179E-07
   1.80750000       5.03076024E-07
   1.80999994       5.68349606E-07
   1.81250000       6.36257369E-07
   1.81500006       7.06733033E-07
   1.81750000       7.79694972E-07
   1.82000005       8.55045812E-07
   1.82249999       9.32671639E-07
   1.82500005       1.01244132E-06
   1.82749999       1.09420603E-06
   1.83000004       1.17779825E-06
   1.83249998       1.26303155E-06
   1.83500004       1.34970094E-06
   1.83749998       1.43758120E-06
   1.84000003       1.52642713E-06
   1.84249997       1.61597359E-06
   1.84500003       1.70593478E-06
   1.84749997       1.79600454E-06
   1.85000002       1.88585625E-06
   1.85249996       1.97514328E-06
   1.85500002       2.06349887E-06
   1.85749996       2.15053592E-06
   1.86000001       2.23584880E-06
   1.86249995       2.31901299E-06
   1.86500001       2.39958536E-06
   1.86749995       2.47710659E-06
   1.87000000       2.55110058E-06
   1.87249994       2.62107574E-06
   1.87500000       2.68652661E-06
   1.87750006       2.74693502E-06
   1.88000000       2.80177164E-06
   1.88250005       2.85049737E-06
   1.88499999       2.89256559E-06
   1.88750005       2.92742288E-06
   1.88999999       2.95451264E-06
   1.89250004       2.97327529E-06
   1.89499998       2.98315263E-06
   1.89750004       2.98358805E-06
   1.89999998       2.97403085E-06
   1.90250003       2.95393716E-06
   1.90499997       2.92277468E-06
   1.90750003       2.88002343E-06
   1.90999997       2.82517976E-06
   1.91250002       2.75775847E-06
   1.91499996       2.67729706E-06
   1.91750002       2.58335808E-06
   1.91999996       2.47553203E-06
   1.92250001       2.35344055E-06
   1.92499995       2.21674031E-06
   1.92750001       2.06512550E-06
   1.92999995       1.89833133E-06
   1.93250000       1.71613760E-06
   1.93499994       1.51837082E-06
   1.93750000       1.30490787E-06
   1.94000006       1.07567917E-06
   1.94250000       8.30671354E-07
   1.94500005       5.69929853E-07
   1.94749999       2.93562636E-07
   1.95000005       1.74135972E-09
   1.95249999      -3.05295345E-07
   1.95500004      -6.27239388E-07
   1.95749998      -9.63711386E-07
   1.96000004      -1.31425963E-06
   1.96249998      -1.67835731E-06
   1.96500003      -2.05540186E-06
   1.96749997      -2.44471380E-06
   1.97000003      -2.84553494E-06
   1.97249997      -3.25702899E-06
   1.97500002      -3.67828125E-06
   1.97749996      -4.10829716E-06
   1.98000002      -4.54600467E-06
   1.98249996      -4.99025373E-06
   1.98500001      -5.43981696E-06
   1.98749995      -5.89339379E-06
   1.99000001      -6.34960998E-06
   1.99249995      -6.80701896E-06
   1.99500000      -7.26410690E-06
   1.99749994      -7.71929444E-06
   2.00000000      -8.17094133E-06
   2.00250006      -8.61734770E-06
   2.00500011      -9.05675915E-06
   2.00749993      -9.48737488E-06
   2.00999999      -9.90734679E-06
   2.01250005      -1.03147895E-05
   2.01500010      -1.07077822E-05
   2.01749992      -1.10843775E-05
   2.01999998      -1.14426093E-05
   2.02250004      -1.17804957E-05
   2.02500010      -1.20960458E-05
   2.02749991      -1.23872678E-05
   2.02999997      -1.26521809E-05
   2.03250003      -1.28888169E-05
   2.03500009      -1.30952312E-05
   2.03749990      -1.32695086E-05
   2.03999996      -1.34097745E-05
   2.04250002      -1.35142027E-05
   2.04500008      -1.35810205E-05
   2.04749990      -1.36085200E-05
   2.04999995      -1.35950677E-05
   2.05250001      -1.35391083E-05
   2.05500007      -1.34391785E-05
   2.05749989      -1.32939103E-05
   2.05999994      -1.31020424E-05
   2.06250000      -1.28624297E-05
   2.06500006      -1.25740435E-05
   2.06750011      -1.22359879E-05
   2.06999993      -1.18474991E-05
   2.07249999      -1.14079603E-05
   2.07500005      -1.09169005E-05
   2.07750010      -1.03740067E-05
   2.07999992      -9.77912532E-06
   2.08249998      -9.13226813E-06
   2.08500004      -8.43361795E-06
   2.08750010      -7.68353402E-06
   2.08999991      -6.88255432E-06
   2.09249997      -6.03139688E-06
   2.09500003      -5.13096484E-06
   2.09750009      -4.18234777E-06
   2.09999990      -3.18682282E-06
   2.10249996      -2.14585430E-06
   2.10500002      -1.06109530E-06
   2.10750008       6.56144152E-08
   2.10999990       1.23224891E-06
   2.11249995       2.43659815E-06
   2.11500001       3.67627058E-06