  -2.50000004E-02   0.00000000    
  -2.25000009E-02   0.00000000    
  -1.99999996E-02   0.00000000    
  -1.75000001E-02  -9.53777131E-28
  -1.49999997E-02  -5.82234699E-27
  -1.25000002E-02  -1.99274354E-26
  -9.99999978E-03  -4.82272826E-26
  -7.49999983E-03  -9.71942826E-26
  -4.99999989E-03  -1.82675706E-25
  -2.49999994E-03  -3.32543279E-25
   0.00000000      -5.69630099E-25
   2.49999994E-03  -9.54204573E-25
   4.99999989E-03  -1.57274558E-24
   7.49999983E-03  -2.50985484E-24
   9.99999978E-03  -3.86726634E-24
   1.25000002E-02  -5.77039722E-24
   1.49999997E-02  -8.45222966E-24
   1.75000001E-02  -1.26657227E-23
   1.99999996E-02  -1.92063759E-23
   2.25000009E-02  -2.90170651E-23
   2.50000004E-02  -4.24433483E-23
   2.74999999E-02  -6.16871431E-23
   2.99999993E-02  -9.19133206E-23
   3.24999988E-02  -1.35918714E-22
   3.50000001E-02  -1.97260526E-22
   3.75000015E-02  -2.83786917E-22
   3.99999991E-02  -4.03032318E-22
   4.25000004E-02  -5.64428488E-22
   4.50000018E-02  -7.77868501E-22
   4.74999994E-02  -1.05179095E-21
   5.00000007E-02  -1.39125115E-21
   5.24999984E-02  -1.81220469E-21
   5.49999997E-02  -2.32792535E-21
   5.75000010E-02  -2.93096163E-21
   5.99999987E-02  -3.62541630E-21
   6.25000000E-02  -4.40533009E-21
   6.49999976E-02  -5.25466242E-21
   6.75000027E-02  -6.17101940E-21
   7.00000003E-02  -7.13683193E-21
   7.24999979E-02  -8.12288777E-21
   7.50000030E-02  -9.09169317E-21
   7.75000006E-02  -9.97709550E-21
   7.99999982E-02  -1.07180845E-20
   8.25000033E-02  -1.12464575E-20
   8.50000009E-02  -1.14944856E-20
   8.74999985E-02  -1.13774598E-20
   9.00000036E-02  -1.08144777E-20
   9.25000012E-02  -9.73340519E-21
   9.49999988E-02  -7.99633236E-21
   9.74999964E-02  -5.53074808E-21
  0.100000001      -2.31278366E-21
  0.102499999       1.74629944E-21
  0.104999997       6.74046499E-21
  0.107500002       1.26553537E-20
  0.109999999       1.95947600E-20
  0.112499997       2.75923768E-20
  0.115000002       3.65738619E-20
  0.117500000       4.64795307E-20
  0.119999997       5.71773347E-20
  0.122500002       6.85863267E-20
  0.125000000       8.06388006E-20
  0.127499998       9.32630566E-20
  0.129999995       1.06421645E-19
  0.132499993       1.19932193E-19
  0.135000005       1.33161073E-19
  0.137500003       1.45782402E-19
  0.140000001       1.57938687E-19
  0.142499998       1.69243880E-19
  0.144999996       1.79243486E-19
  0.147499993       1.87624454E-19
  0.150000006       1.93807228E-19
  0.152500004       1.97540398E-19
  0.155000001       1.98679180E-19
  0.157499999       1.96914507E-19
  0.159999996       1.91673413E-19
  0.162499994       1.82870427E-19
  0.165000007       1.70252033E-19
  0.167500004       1.53357903E-19
  0.170000002       1.31964828E-19
  0.172499999       1.05719065E-19
  0.174999997       7.48587727E-20
  0.177499995       3.97968354E-20
  0.180000007       1.40070963E-22
  0.182500005      -4.38581242E-20
  0.185000002      -9.17660665E-20
  0.187500000      -1.43107067E-19
  0.189999998      -1.96998944E-19
  0.192499995      -2.53251012E-19
  0.194999993      -3.11166399E-19
  0.197500005      -3.69695528E-19
  0.200000003      -4.27516486E-19
  0.202500001      -4.83058950E-19
  0.204999998      -5.35162488E-19
  0.207499996      -5.82738143E-19
  0.209999993      -6.23461279E-19
  0.212500006      -6.54720072E-19
  0.215000004      -6.73983454E-19
  0.217500001      -6.79235844E-19
  0.219999999      -6.68438501E-19
  0.222499996      -6.38643714E-19
  0.224999994      -5.86744748E-19
  0.227500007      -5.10754250E-19
  0.230000004      -4.08107288E-19
  0.232500002      -2.74626936E-19
  0.234999999      -1.08172031E-19
  0.237499997       9.38286478E-20
  0.239999995       3.34968443E-19
  0.242500007       6.18535780E-19
  0.245000005       9.47387120E-19
  0.247500002       1.32385149E-18
  0.250000000       1.75084564E-18
  0.252499998       2.23002475E-18
  0.254999995       2.76248980E-18
  0.257499993       3.34956470E-18
  0.259999990       3.99265068E-18
  0.262499988       4.69270563E-18
  0.264999986       5.44954983E-18
  0.267500013       6.26174938E-18
  0.270000011       7.12832819E-18
  0.272500008       8.04679811E-18
  0.275000006       9.01367629E-18
  0.277500004       1.00255912E-17
  0.280000001       1.10784903E-17
  0.282499999       1.21673727E-17
  0.284999996       1.32848126E-17
  0.287499994       1.44229958E-17
  0.289999992       1.55733360E-17
  0.292499989       1.67258037E-17
  0.294999987       1.78692072E-17
  0.297500014       1.89918369E-17
  0.300000012       2.00808913E-17
  0.302500010       2.11214581E-17
  0.305000007       2.20980291E-17
  0.307500005       2.29939816E-17
  0.310000002       2.37915756E-17
  0.312500000       2.44728432E-17
  0.314999998       2.50186434E-17
  0.317499995       2.54085813E-17
  0.319999993       2.56219377E-17
  0.322499990       2.56367376E-17
  0.324999988       2.54315670E-17
  0.327499986       2.49853593E-17
  0.330000013       2.42756566E-17
  0.332500011       2.32797096E-17
  0.335000008       2.19761342E-17
  0.337500006       2.03452731E-17
  0.340000004       1.83659573E-17
  0.342500001       1.60174923E-17
  0.344999999       1.32832244E-17
  0.347499996       1.01477831E-17
  0.349999994       6.59513998E-18
  0.352499992       2.61296988E-18
  0.354999989      -1.80975517E-18
  0.357499987      -6.67793951E-18
  0.360000014      -1.19945705E-17
  0.362500012      -1.77649461E-17
  0.365000010      -2.39866099E-17
  0.367500007      -3.06558594E-17
  0.370000005      -3.77603119E-17
  0.372500002      -4.52862062E-17
  0.375000000      -5.32173364E-17
  0.377499998      -6.15303526E-17
  0.379999995      -7.01981864E-17
  0.382499993      -7.91881639E-17
  0.384999990      -8.84613549E-17
  0.387499988      -9.79684064E-17
  0.389999986      -1.07659105E-16
  0.392500013      -1.17484595E-16
  0.395000011      -1.27383379E-16
  0.397500008      -1.37286650E-16
  0.400000006      -1.47123032E-16
  0.402500004      -1.56815061E-16
  0.405000001      -1.66273362E-16
  0.407499999      -1.75412543E-16
  0.409999996      -1.84144658E-16
  0.412499994      -1.92368064E-16
  0.414999992      -1.99980905E-16
  0.417499989      -2.06876336E-16
  0.419999987      -2.12941582E-16
  0.422500014      -2.18068685E-16
  0.425000012      -2.22148128E-16
  0.427500010      -2.25058295E-16
  0.430000007      -2.26674116E-16
  0.432500005      -2.26885213E-16
  0.435000002      -2.25584991E-16
  0.437500000      -2.22648884E-16
  0.439999998      -2.17960794E-16
  0.442499995      -2.11413561E-16
  0.444999993      -2.02908251E-16
  0.447499990      -1.92342243E-16
  0.449999988      -1.79611920E-16
  0.452499986      -1.64637331E-16
  0.455000013      -1.47350116E-16
  0.457500011      -1.27672906E-16
  0.460000008      -1.05540239E-16
  0.462500006      -8.09156281E-17
  0.465000004      -5.37667961E-17
  0.467500001      -2.40672583E-17
  0.469999999       8.18738821E-18
  0.472499996       4.29846655E-17
  0.474999994       8.02940978E-17
  0.477499992       1.20069594E-16
  0.479999989       1.62239738E-16
  0.482499987       2.06718960E-16
  0.485000014       2.53403882E-16
  0.487500012       3.02164393E-16
  0.490000010       3.52839515E-16
  0.492500007       4.05246555E-16
  0.495000005       4.59199113E-16
  0.497500002       5.14478865E-16
  0.500000000       5.70830273E-16
  0.502499998       6.27979745E-16
  0.504999995       6.85644531E-16
  0.507499993       7.43509851E-16
  0.509999990       8.01234776E-16
  0.512499988       8.58457039E-16
  0.514999986       9.14787748E-16
  0.517499983       9.69826678E-16
  0.519999981       1.02314592E-15
  0.522499979       1.07429612E-15
  0.524999976       1.12281459E-15
  0.527499974       1.16822382E-15
  0.529999971       1.21004258E-15
  0.532500029       1.24777260E-15
  0.535000026       1.28089678E-15
  0.537500024       1.30889545E-15
  0.540000021       1.33124145E-15
  0.542500019       1.34740887E-15
  0.545000017       1.35687203E-15
  0.547500014       1.35911021E-15
  0.550000012       1.35361614E-15
  0.552500010       1.33988320E-15
  0.555000007       1.31741321E-15
  0.557500005       1.28573704E-15
  0.560000002       1.24440998E-15
  0.562500000       1.19299350E-15
  0.564999998       1.13107698E-15
  0.567499995       1.05830943E-15
  0.569999993       9.74359046E-16
  0.572499990       8.78930885E-16
  0.574999988       7.71784340E-16
  0.577499986       6.52705484E-16
  0.579999983       5.21545873E-16
  0.582499981       3.78211672E-16
  0.584999979       2.22660477E-16
  0.587499976       5.49141386E-17
  0.589999974      -1.24943024E-16
  0.592499971      -3.16768908E-16
  0.595000029      -5.20342398E-16
  0.597500026      -7.35374311E-16
  0.600000024      -9.61508180E-16
  0.602500021      -1.19830079E-15
  0.605000019      -1.44524425E-15
  0.607500017      -1.70175642E-15
  0.610000014      -1.96716943E-15
  0.612500012      -2.24074477E-15
  0.615000010      -2.52167235E-15
  0.617500007      -2.80907910E-15
  0.620000005      -3.10200004E-15
  0.622500002      -3.39942231E-15
  0.625000000      -3.70027402E-15
  0.627499998      -4.00341906E-15
  0.629999995      -4.30764492E-15
  0.632499993      -4.61167723E-15
  0.634999990      -4.91422893E-15
  0.637499988      -5.21395916E-15
  0.639999986      -5.50949108E-15
  0.642499983      -5.79946095E-15
  0.644999981      -6.08248218E-15
  0.647499979      -6.35711568E-15
  0.649999976      -6.62195069E-15
  0.652499974      -6.87560953E-15
  0.654999971      -7.11674372E-15
  0.657500029      -7.34404247E-15
  0.660000026      -7.55624794E-15
  0.662500024      -7.75216412E-15
  0.665000021      -7.93067377E-15
  0.667500019      -8.09075876E-15
  0.670000017      -8.23148905E-15
  0.672500014      -8.35212941E-15
  0.675000012      -8.45205220E-15
  0.677500010      -8.53074664E-15
  0.680000007      -8.58789341E-15
  0.682500005      -8.62339849E-15
  0.685000002      -8.63731270E-15
  0.687500000      -8.62995029E-15
  0.689999998      -8.60193891E-15
  0.692499995      -8.55403242E-15
  0.694999993      -8.48733281E-15
  0.697499990      -8.40325886E-15
  0.699999988      -8.30342671E-15
  0.702499986      -8.18985061E-15
  0.704999983      -8.06491155E-15
  0.707499981      -7.93128618E-15
  0.709999979      -7.79203226E-15
  0.712499976      -7.65058708E-15
  0.714999974      -7.51071484E-15
  0.717499971      -7.37658124E-15
  0.720000029      -7.25282041E-15
  0.722500026      -7.14448659E-15
  0.725000024      -7.05707025E-15
  0.727500021      -6.99644175E-15
  0.730000019      -6.96891106E-15
  0.732500017      -6.98115238E-15
  0.735000014      -7.04023758E-15
  0.737500012      -7.15387171E-15
  0.740000010      -7.33006388E-15
  0.742500007      -7.57714339E-15
  0.745000005      -7.90403713E-15
  0.747500002      -8.31989557E-15
  0.750000000      -8.83435967E-15
  0.752499998      -9.45751842E-15
  0.754999995      -1.01996523E-14
  0.757499993      -1.10714220E-14
  0.759999990      -1.20837822E-14
  0.762499988      -1.32480095E-14
  0.764999986      -1.45757023E-14
  0.767499983      -1.60785979E-14
  0.769999981      -1.77686811E-14
  0.772499979      -1.96581219E-14
  0.774999976      -2.17590465E-14
  0.777499974      -2.40837064E-14
  0.779999971      -2.66445344E-14
  0.782500029      -2.94539749E-14
  0.785000026      -3.25242559E-14
  0.787500024      -3.58675424E-14
  0.790000021      -3.94959266E-14
  0.792500019      -4.34211891E-14
  0.795000017      -4.76548630E-14
  0.797500014      -5.22081632E-14
  0.800000012      -5.70919519E-14
  0.802500010      -6.23165460E-14
  0.805000007      -6.78917372E-14
  0.807500005      -7.38268360E-14
  0.810000002      -8.01304213E-14
  0.812500000      -8.68103536E-14
  0.814999998      -9.38736935E-14
  0.817499995      -1.01326587E-13
  0.819999993      -1.09174232E-13
  0.822499990      -1.17420816E-13
  0.824999988      -1.26069429E-13
  0.827499986      -1.35122057E-13
  0.829999983      -1.44579349E-13
  0.832499981      -1.54440751E-13
  0.834999979      -1.64704337E-13
  0.837499976      -1.75366598E-13
  0.839999974      -1.86422560E-13
  0.842499971      -1.97865595E-13
  0.845000029      -2.09687356E-13
  0.847500026      -2.21877909E-13
  0.850000024      -2.34425381E-13
  0.852500021      -2.47316219E-13
  0.855000019      -2.60534866E-13
  0.857500017      -2.74063622E-13
  0.860000014      -2.87882917E-13
  0.862500012      -3.01971203E-13
  0.865000010      -3.16304735E-13
  0.867500007      -3.30857629E-13
  0.870000005      -3.45601721E-13
  0.872500002      -3.60506763E-13
  0.875000000      -3.75540284E-13
  0.877499998      -3.90667533E-13
  0.879999995      -4.05851513E-13
  0.882499993      -4.21053031E-13
  0.884999990      -4.36230641E-13
  0.887499988      -4.51340598E-13
  0.889999986      -4.66337147E-13
  0.892499983      -4.81172285E-13
  0.894999981      -4.95795733E-13
  0.897499979      -5.10155232E-13
  0.899999976      -5.24196951E-13
  0.902499974      -5.37864566E-13
  0.904999971      -5.51100073E-13
  0.907500029      -5.63844002E-13
  0.910000026      -5.76034880E-13
  0.912500024      -5.87609876E-13
  0.915000021      -5.98504753E-13
  0.917500019      -6.08654186E-13
  0.920000017      -6.17991498E-13
  0.922500014      -6.26449467E-13
  0.925000012      -6.33960386E-13
  0.927500010      -6.40455299E-13
  0.930000007      -6.45865523E-13
  0.932500005      -6.50122046E-13
  0.935000002      -6.53156077E-13
  0.937500000      -6.54899474E-13
  0.939999998      -6.55284637E-13
  0.942499995      -6.54244996E-13
  0.944999993      -6.51715227E-13
  0.947499990      -6.47631742E-13
  0.949999988      -6.41932742E-13
  0.952499986      -6.34558595E-13
  0.954999983      -6.25452706E-13
  0.957499981      -6.14561841E-13
  0.959999979      -6.01835801E-13
  0.962499976      -5.87228020E-13
  0.964999974      -5.70695997E-13
  0.967499971      -5.52202273E-13
  0.970000029      -5.31714646E-13
  0.972500026      -5.09206067E-13
  0.975000024      -4.84655122E-13
  0.977500021      -4.58047229E-13
  0.980000019      -4.29374987E-13
  0.982500017      -3.98637422E-13
  0.985000014      -3.65841770E-13
  0.987500012      -3.31003616E-13
  0.990000010      -2.94147085E-13
  0.992500007      -2.55305786E-13
  0.995000005      -2.14522614E-13
  0.997500002      -1.71850666E-13
   1.00000000      -1.27353545E-13
   1.00250006      -8.11058035E-14
   1.00500000      -3.31933577E-14
   1.00750005       1.62863463E-14
   1.00999999       6.72242278E-14
   1.01250005       1.19498649E-13
   1.01499999       1.72974956E-13
   1.01750004       2.27505298E-13
   1.01999998       2.82929089E-13
   1.02250004       3.39072818E-13
   1.02499998       3.95748430E-13
   1.02750003       4.52754669E-13
   1.02999997       5.09876429E-13
   1.03250003       5.66884267E-13
   1.03499997       6.23535511E-13
   1.03750002       6.79574127E-13
   1.03999996       7.34730256E-13
   1.04250002       7.88720272E-13
   1.04499996       8.41248349E-13
   1.04750001       8.92006195E-13
   1.04999995       9.40673320E-13
   1.05250001       9.86917254E-13
   1.05499995       1.03039452E-12
   1.05750000       1.07075232E-12
   1.05999994       1.10762788E-12
   1.06250000       1.14064953E-12
   1.06500006       1.16943889E-12
   1.06750000       1.19361107E-12
   1.07000005       1.21277576E-12
   1.07249999       1.22653840E-12
   1.07500005       1.23450360E-12
   1.07749999       1.23627400E-12
   1.08000004       1.23145211E-12
   1.08249998       1.21964494E-12
   1.08500004       1.20046291E-12
   1.08749998       1.17352254E-12
   1.09000003       1.13844969E-12
   1.09249997       1.09488037E-12
   1.09500003       1.04246364E-12
   1.09749997       9.80863719E-13
   1.10000002       9.09762717E-13
   1.10249996       8.28863020E-13
   1.10500002       7.37889730E-13
   1.10749996       6.36594293E-13
   1.11000001       5.24756128E-13
   1.11249995       4.02185989E-13
   1.11500001       2.68729049E-13
   1.11749995       1.24267391E-13
   1.12000000      -3.12770846E-14
   1.12249994      -1.97939199E-13
   1.12500000      -3.75707305E-13
   1.12750006      -5.64520490E-13
   1.13000000      -7.64266525E-13
   1.13250005      -9.74777984E-13
   1.13499999      -1.19582913E-12
   1.13750005      -1.42713424E-12
   1.13999999      -1.66834407E-12
   1.14250004      -1.91904392E-12
   1.14499998      -2.17874980E-12
   1.14750004      -2.44690748E-12
   1.14999998      -2.72289006E-12
   1.15250003      -3.00599563E-12
   1.15499997      -3.29544508E-12
   1.15750003      -3.59038211E-12
   1.15999997      -3.88987063E-12
   1.16250002      -4.19289386E-12
   1.16499996      -4.49835568E-12
   1.16750002      -4.80507648E-12
   1.16999996      -5.11179640E-12
   1.17250001      -5.41717539E-12
   1.17499995      -5.71979270E-12
   1.17750001      -6.01814822E-12
   1.17999995      -6.31066553E-12
   1.18250000      -6.59569231E-12
   1.18499994      -6.87150553E-12
   1.18750000      -7.13631151E-12
   1.19000006      -7.38825060E-12
   1.19250000      -7.62540118E-12
   1.19500005      -7.84578826E-12
   1.19749999      -8.04738307E-12
   1.20000005      -8.22811090E-12
   1.20249999      -8.38586058E-12
   1.20500004      -8.51848626E-12
   1.20749998      -8.62382128E-12
   1.21000004      -8.69968073E-12
   1.21249998      -8.74387542E-12
   1.21500003      -8.75421610E-12
   1.21749997      -8.72853005E-12
   1.22000003      -8.66466534E-12
   1.22249997      -8.56050734E-12
   1.22500002      -8.41398565E-12
   1.22749996      -8.22309148E-12
   1.23000002      -7.98589059E-12
   1.23249996      -7.70053032E-12
   1.23500001      -7.36525944E-12
   1.23749995      -6.97844170E-12
   1.24000001      -6.53857047E-12
   1.24249995      -6.04428053E-12
   1.24500000      -5.49436538E-12
   1.24749994      -4.88779416E-12
   1.25000000      -4.22372684E-12
   1.25250006      -3.50153001E-12
   1.25500000      -2.72079234E-12
   1.25750005      -1.88133667E-12
   1.25999999      -9.83241808E-13
   1.26250005      -2.68561774E-14
   1.26499999       9.87189280E-13
   1.26750004       2.05796534E-12
   1.26999998       3.18422914E-12
   1.27250004       4.36441074E-12
   1.27499998       5.59660174E-12
   1.27750003       6.87854244E-12
   1.27999997       8.20760647E-12
   1.28250003       9.58079362E-12
   1.28499997       1.09947190E-11
   1.28750002       1.24456088E-11
   1.28999996       1.39292917E-11
   1.29250002       1.54411900E-11
   1.29499996       1.69763197E-11
   1.29750001       1.85292788E-11
   1.29999995       2.00942648E-11
   1.30250001       2.16650586E-11
   1.30499995       2.32350389E-11
   1.30750000       2.47971799E-11
   1.30999994       2.63440589E-11
   1.31250000       2.78678799E-11
   1.31500006       2.93604620E-11
   1.31750000       3.08132721E-11
   1.32000005       3.22174371E-11
   1.32249999       3.35637594E-11
   1.32500005       3.48427467E-11
   1.32749999       3.60446291E-11
   1.33000004       3.71593867E-11
   1.33249998       3.81767812E-11
   1.33500004       3.90863904E-11
   1.33749998       3.98776463E-11
   1.34000003       4.05398701E-11
   1.34249997       4.10623063E-11
   1.34500003       4.14341825E-11
   1.34749997       4.16447397E-11
   1.35000002       4.16832922E-11
   1.35249996       4.15392686E-11
   1.35500002       4.12022812E-11
   1.35749996       4.06621681E-11
   1.36000001       3.99090622E-11
   1.36249995       3.89334363E-11
   1.36500001       3.77261868E-11
   1.36749995       3.62786710E-11
   1.37000000       3.45828019E-11
   1.37249994       3.26310923E-11
   1.37500000       3.04167316E-11
   1.37750006       2.79336589E-11
   1.38000000       2.51766281E-11
   1.38250005       2.21412697E-11
   1.38499999       1.88241714E-11
   1.38750005       1.52229427E-11
   1.38999999       1.13362913E-11
   1.39250004       7.16407185E-12
   1.39499998       2.70736840E-12
   1.39750004      -2.03144229E-12
   1.39999998      -7.04863078E-12
   1.40250003      -1.23390569E-11
   1.40499997      -1.78961047E-11
   1.40750003      -2.37116438E-11
   1.40999997      -2.97759629E-11
   1.41250002      -3.60777276E-11
   1.41499996      -4.26039412E-11
   1.41750002      -4.93398968E-11
   1.41999996      -5.62691699E-11
   1.42250001      -6.33735772E-11
   1.42499995      -7.06331313E-11
   1.42750001      -7.80260856E-11
   1.42999995      -8.55288548E-11
   1.43250000      -9.31160704E-11
   1.43499994      -1.00760587E-10
   1.43750000      -1.08433471E-10
   1.44000006      -1.16104022E-10
   1.44250000      -1.23739824E-10
   1.44500005      -1.31306771E-10
   1.44749999      -1.38769177E-10
   1.45000005      -1.46089751E-10
   1.45249999      -1.53229679E-10
   1.45500004      -1.60148755E-10
   1.45749998      -1.66805431E-10
   1.46000004      -1.73156947E-10
   1.46249998      -1.79159423E-10
   1.46500003      -1.84767909E-10
   1.46749997      -1.89936664E-10
   1.47000003      -1.94619140E-10
   1.47249997      -1.98768238E-10
   1.47500002      -2.02336439E-10
   1.47749996      -2.05275935E-10
   1.48000002      -2.07538833E-10
   1.48249996      -2.09077367E-10
   1.48500001      -2.09844045E-10
   1.48749995      -2.09791864E-10
   1.49000001      -2.08874584E-10
   1.49249995      -2.07046824E-10
   1.49500000      -2.04264411E-10
   1.49749994      -2.00484518E-10
   1.50000000      -1.95665942E-10
   1.50250006      -1.89769367E-10
   1.50500000      -1.82757531E-10
   1.50750005      -1.74595560E-10
   1.50999999      -1.65251174E-10
   1.51250005      -1.54694896E-10
   1.51499999      -1.42900400E-10
   1.51750004      -1.29844663E-10
   1.51999998      -1.15508297E-10
   1.52250004      -9.98757119E-11
   1.52499998      -8.29353947E-11
   1.52750003      -6.46801571E-11
   1.52999997      -4.51073484E-11
   1.53250003      -2.42190677E-11
   1.53499997      -2.02237142E-12
   1.53750002       2.14705077E-11
   1.53999996       4.62419998E-11
   1.54250002       7.22689755E-11
   1.54499996       9.95226332E-11
   1.54750001       1.27968344E-10
   1.54999995       1.57565502E-10
   1.55250001       1.88267443E-10
   1.55499995       2.20021293E-10
   1.55750000       2.52767945E-10
   1.55999994       2.86442065E-10
   1.56250000       3.20971888E-10
   1.56500006       3.56279367E-10
   1.56750000       3.92280153E-10
   1.57000005       4.28883651E-10
   1.57249999       4.65992966E-10
   1.57500005       5.03505071E-10
   1.57749999       5.41311163E-10
   1.58000004       5.79296389E-10
   1.58249998       6.17340290E-10
   1.58500004       6.55316912E-10
   1.58749998       6.93095081E-10
   1.59000003       7.30538630E-10
   1.59249997       7.67506780E-10
   1.59500003       8.03854261E-10
   1.59749997       8.39431746E-10
   1.60000002       8.74086359E-10
   1.60249996       9.07661779E-10
   1.60500002       9.39998968E-10
   1.60749996       9.70936442E-10
   1.61000001       1.00031061E-09
   1.61249995       1.02795650E-09
   1.61500001       1.05370834E-09
   1.61749995       1.07739972E-09
   1.62000000       1.09886422E-09
   1.62249994       1.11793652E-09
   1.62500000       1.13445209E-09
   1.62750006       1.14824839E-09
   1.63000000       1.15916532E-09
   1.63250005       1.16704579E-09
   1.63499999       1.17173626E-09
   1.63750005       1.17308752E-09
   1.63999999       1.17095522E-09
   1.64250004       1.16520049E-09
   1.64499998       1.15569032E-09
   1.64750004       1.14229848E-09
   1.64999998       1.12490606E-09
   1.65250003       1.10340204E-09
   1.65499997       1.07768361E-09
   1.65750003       1.04765696E-09
   1.65999997       1.01323772E-09
   1.66250002       9.74351710E-10
   1.66499996       9.30934829E-10
   1.66750002       8.82934226E-10
   1.66999996       8.30308156E-10
   1.67250001       7.73026809E-10
   1.67499995       7.11072201E-10
   1.67750001       6.44438947E-10
   1.67999995       5.73134318E-10
   1.68250000       4.97178576E-10
   1.68499994       4.16605084E-10
   1.68750000       3.31460581E-10
   1.69000006       2.41805354E-10
   1.69250000       1.47713175E-10
   1.69500005       4.92714723E-11
   1.69749999      -5.34185925E-11
   1.70000005      -1.60242375E-10
   1.70249999      -2.71071721E-10
   1.70500004      -3.85765059E-10
   1.70749998      -5.04167430E-10
   1.71000004      -6.26110830E-10
   1.71249998      -7.51414653E-10
   1.71500003      -8.79885498E-10
   1.71749997      -1.01131781E-09
   1.72000003      -1.14549426E-09
   1.72249997      -1.28218569E-09
   1.72500002      -1.42115186E-09
   1.72749996      -1.56214197E-09
   1.73000002      -1.70489489E-09
   1.73249996      -1.84913973E-09
   1.73500001      -1.99459604E-09
   1.73749995      -2.14097429E-09
   1.74000001      -2.28797714E-09
   1.74249995      -2.43529930E-09
   1.74500000      -2.58262789E-09
   1.74749994      -2.72964318E-09
   1.75000000      -2.87601920E-09
   1.75250006      -3.02142400E-09
   1.75500000      -3.16552007E-09
   1.75750005      -3.30796546E-09
   1.75999999      -3.44841311E-09
   1.76250005      -3.58651198E-09
   1.76499999      -3.72190767E-09
   1.76750004      -3.85424181E-09
   1.76999998      -3.98315336E-09
   1.77250004      -4.10827816E-09
   1.77499998      -4.22924895E-09
   1.77750003      -4.34569758E-09
   1.77999997      -4.45725234E-09
   1.78250003      -4.56353977E-09
   1.78499997      -4.66418459E-09
   1.78750002      -4.75880846E-09
   1.78999996      -4.84703255E-09
   1.79250002      -4.92847541E-09
   1.79499996      -5.00275243E-09
   1.79750001      -5.06947817E-09
   1.79999995      -5.12826359E-09
   1.80250001      -5.17871834E-09
   1.80499995      -5.22044852E-09
   1.80750000      -5.25305621E-09
   1.80999994      -5.27614130E-09
   1.81250000      -5.28930011E-09
   1.81500006      -5.29212540E-09
   1.81750000      -5.28420507E-09
   1.82000005      -5.26512345E-09
   1.82249999      -5.23445998E-09
   1.82500005      -5.19178922E-09
   1.82749999      -5.13668219E-09
   1.83000004      -5.06870279E-09
   1.83249998      -4.98741226E-09
   1.83500004      -4.89236562E-09
   1.83749998      -4.78311213E-09
   1.84000003      -4.65919836E-09
   1.84249997      -4.52016513E-09
   1.84500003      -4.36554881E-09
   1.84749997      -4.19488266E-09
   1.85000002      -4.00769729E-09
   1.85249996      -3.80351928E-09
   1.85500002      -3.58187524E-09
   1.85749996      -3.34229044E-09
   1.86000001      -3.08429082E-09
   1.86249995      -2.80740409E-09
   1.86500001      -2.51116106E-09
   1.86749995      -2.19509744E-09
   1.87000000      -1.85875615E-09
   1.87249994      -1.50168822E-09
   1.87500000      -1.12345588E-09
   1.87750006      -7.23634985E-10
   1.88000000      -3.01816738E-10
   1.88250005       1.42388240E-10
   1.88499999       6.09348405E-10
   1.88750005       1.09940734E-09
   1.88999999       1.61287950E-09
   1.89250004       2.15004747E-09
   1.89499998       2.71115774E-09
   1.89750004       3.29641714E-09
   1.89999998       3.90598931E-09
   1.90250003       4.53998661E-09
   1.90499997       5.19846921E-09
   1.90750003       5.88143889E-09
   1.90999997       6.58883348E-09
   1.91250002       7.32052063E-09
   1.91499996       8.07629696E-09
   1.91750002       8.85587514E-09
   1.91999996       9.65888347E-09
   1.92250001       1.04848583E-08
   1.92499995       1.13332375E-08
   1.92750001       1.22033539E-08
   1.92999995       1.30944287E-08
   1.93250000       1.40055629E-08
   1.93499994       1.49357362E-08
   1.93750000       1.58837992E-08
   1.94000006       1.68484604E-08
   1.94250000       1.78282864E-08
   1.94500005       1.88216873E-08
   1.94749999       1.98269188E-08
   1.95000005       2.08420659E-08
   1.95249999       2.18650467E-08
   1.95500004       2.28935999E-08
   1.95749998       2.39252760E-08
   1.96000004       2.49574317E-08
   1.96249998       2.59872301E-08
   1.96500003       2.70116285E-08
   1.96749997       2.80273742E-08
   1.97000003       2.90309980E-08
   1.97249997       3.00188105E-08
   1.97500002       3.09869002E-08
   1.97749996       3.19311262E-08
   1.98000002       3.28471152E-08
   1.98249996       3.37302630E-08
   1.98500001       3.45757236E-08
   1.98749995       3.53784166E-08
   1.99000001       3.61330166E-08
   1.99249995       3.68339705E-08
   1.99500000       3.74754805E-08
   1.99749994       3.80515210E-08
   2.00000000       3.85558323E-08
   2.00250006       3.89819235E-08
   2.00500011       3.93230941E-08
   2.00749993       3.95724271E-08
   2.00999999       3.97228028E-08
   2.01250005       3.97669027E-08
   2.01500010       3.96972410E-08
   2.01749992       3.95061548E-08
   2.01999998       3.91858350E-08
   2.02250004       3.87283414E-08
   2.02500010       3.81256200E-08
   2.02749991       3.73695208E-08
   2.02999997       3.64518336E-08
   2.03250003       3.53643088E-08
   2.03500009       3.40986830E-08
   2.03749990       3.26467067E-08
   2.03999996       3.10001944E-08
   2.04250002       2.91510425E-08
   2.04500008       2.70912821E-08
   2.04749990       2.48131098E-08
   2.04999995       2.23089351E-08
   2.05250001       1.95714343E-08
   2.05500007       1.65935923E-08
   2.05749989       1.33687603E-08
   2.05999994       9.89070958E-09
   2.06250000       6.15368512E-09
   2.06500006       2.15246954E-09
   2.06750011      -2.11754836E-09
   2.06999993      -6.66032118E-09
   2.07249999      -1.14790684E-08
   2.07500005      -1.65761964E-08
   2.07750010      -2.19532375E-08
   2.07999992      -2.76107706E-08
   2.08249998      -3.35483463E-08
   2.08500004      -3.97644158E-08
   2.08750010      -4.62562397E-08
   2.08999991      -5.30198250E-08
   2.09249997      -6.00498282E-08
   2.09500003      -6.73394922E-08
   2.09750009      -7.48805249E-08
   2.09999990      -8.26630995E-08
   2.10249996      -9.06756767E-08
   2.10500002      -9.89049980E-08
   2.10750008      -1.07336000E-07
   2.10999990      -1.15951714E-07
   2.11249995      -1.24733219E-07
   2.11500001      -1.33659583E-07