  -2.50000004E-02   0.00000000    
  -2.25000009E-02   0.00000000    
  -1.99999996E-02   0.00000000    
  -1.75000001E-02   5.02173075E-23
  -1.49999997E-02   3.42528227E-22
  -1.25000002E-02   1.34247829E-21
  -9.99999978E-03   3.96057349E-21
  -7.49999983E-03   9.76145340E-21
  -4.99999989E-03   2.12091290E-20
  -2.49999994E-03   4.19460865E-20
   0.00000000       7.71037926E-20
   2.49999994E-03   1.33641846E-19
   4.99999989E-03   2.20712855E-19
   7.49999983E-03   3.50049083E-19
   9.99999978E-03   5.36368104E-19
   1.25000002E-02   7.97792540E-19
   1.49999997E-02   1.15628124E-18
   1.75000001E-02   1.63806566E-18
   1.99999996E-02   2.27408866E-18
   2.25000009E-02   3.10043899E-18
   2.50000004E-02   4.15877998E-18
   2.74999999E-02   5.49676406E-18
   2.99999993E-02   7.16842908E-18
   3.24999988E-02   9.23456826E-18
   3.50000001E-02   1.17630724E-17
   3.75000015E-02   1.48292523E-17
   3.99999991E-02   1.85160956E-17
   4.25000004E-02   2.29144945E-17
   4.50000018E-02   2.81234361E-17
   4.74999994E-02   3.42500949E-17
   5.00000007E-02   4.14099055E-17
   5.24999984E-02   4.97265647E-17
   5.49999997E-02   5.93319448E-17
   5.75000010E-02   7.03659254E-17
   5.99999987E-02   8.29762078E-17
   6.25000000E-02   9.73179248E-17
   6.49999976E-02   1.13553316E-16
   6.75000027E-02   1.31851134E-16
   7.00000003E-02   1.52386098E-16
   7.24999979E-02   1.75338255E-16
   7.50000030E-02   2.00892128E-16
   7.75000006E-02   2.29235782E-16
   7.99999982E-02   2.60559802E-16
   8.25000033E-02   2.95056330E-16
   8.50000009E-02   3.32917671E-16
   8.74999985E-02   3.74335014E-16
   9.00000036E-02   4.19496958E-16
   9.25000012E-02   4.68587944E-16
   9.49999988E-02   5.21786748E-16
   9.74999964E-02   5.79264604E-16
  0.100000001       6.41183030E-16
  0.102499999       7.07692269E-16
  0.104999997       7.78929010E-16
  0.107500002       8.55014221E-16
  0.109999999       9.36050816E-16
  0.112499997       1.02212112E-15
  0.115000002       1.11328473E-15
  0.117500000       1.20957607E-15
  0.119999997       1.31100117E-15
  0.122500002       1.41753579E-15
  0.125000000       1.52912169E-15
  0.127499998       1.64566495E-15
  0.129999995       1.76703217E-15
  0.132499993       1.89304812E-15
  0.135000005       2.02349289E-15
  0.137500003       2.15809913E-15
  0.140000001       2.29654857E-15
  0.142499998       2.43846958E-15
  0.144999996       2.58343397E-15
  0.147499993       2.73095492E-15
  0.150000006       2.88048292E-15
  0.152500004       3.03140450E-15
  0.155000001       3.18303928E-15
  0.157499999       3.33463594E-15
  0.159999996       3.48537159E-15
  0.162499994       3.63434817E-15
  0.165000007       3.78059222E-15
  0.167500004       3.92305046E-15
  0.170000002       4.06058955E-15
  0.172499999       4.19199358E-15
  0.174999997       4.31596194E-15
  0.177499995       4.43111014E-15
  0.180000007       4.53596774E-15
  0.182500005       4.62897619E-15
  0.185000002       4.70849056E-15
  0.187500000       4.77277782E-15
  0.189999998       4.82001812E-15
  0.192499995       4.84830266E-15
  0.194999993       4.85563797E-15
  0.197500005       4.83994457E-15
  0.200000003       4.79905871E-15
  0.202500001       4.73073449E-15
  0.204999998       4.63264511E-15
  0.207499996       4.50238584E-15
  0.209999993       4.33747785E-15
  0.212500006       4.13537070E-15
  0.215000004       3.89344793E-15
  0.217500001       3.60902612E-15
  0.219999999       3.27936662E-15
  0.222499996       2.90167505E-15
  0.224999994       2.47311068E-15
  0.227500007       1.99079149E-15
  0.230000004       1.45179647E-15
  0.232500002       8.53181506E-16
  0.234999999       1.91979740E-16
  0.237499997      -5.34787751E-16
  0.239999995      -1.33010261E-15
  0.242500007      -2.19694258E-15
  0.245000005      -3.13826999E-15
  0.247500002      -4.15702468E-15
  0.250000000      -5.25610583E-15
  0.252499998      -6.43836774E-15
  0.254999995      -7.70660899E-15
  0.257499993      -9.06355577E-15
  0.259999990      -1.05118517E-14
  0.262499988      -1.20540505E-14
  0.264999986      -1.36925883E-14
  0.267500013      -1.54297826E-14
  0.270000011      -1.72678136E-14
  0.272500008      -1.92087116E-14
  0.275000006      -2.12543402E-14
  0.277500004      -2.34063799E-14
  0.280000001      -2.56663163E-14
  0.282499999      -2.80354201E-14
  0.284999996      -3.05147346E-14
  0.287499994      -3.31050596E-14
  0.289999992      -3.58069253E-14
  0.292499989      -3.86205892E-14
  0.294999987      -4.15460106E-14
  0.297500014      -4.45828406E-14
  0.300000012      -4.77303879E-14
  0.302500010      -5.09876328E-14
  0.305000007      -5.43531691E-14
  0.307500005      -5.78252317E-14
  0.310000002      -6.14016420E-14
  0.312500000      -6.50798182E-14
  0.314999998      -6.88567313E-14
  0.317499995      -7.27289119E-14
  0.319999993      -7.66924230E-14
  0.322499990      -8.07428600E-14
  0.324999988      -8.48753102E-14
  0.327499986      -8.90843524E-14
  0.330000013      -9.33640440E-14
  0.332500011      -9.77079000E-14
  0.335000008      -1.02108873E-13
  0.337500006      -1.06559374E-13
  0.340000004      -1.11051210E-13
  0.342500001      -1.15575626E-13
  0.344999999      -1.20123231E-13
  0.347499996      -1.24684063E-13
  0.349999994      -1.29247511E-13
  0.352499992      -1.33802379E-13
  0.354999989      -1.38336784E-13
  0.357499987      -1.42838256E-13
  0.360000014      -1.47293636E-13
  0.362500012      -1.51689181E-13
  0.365000010      -1.56010445E-13
  0.367500007      -1.60242357E-13
  0.370000005      -1.64369183E-13
  0.372500002      -1.68374578E-13
  0.375000000      -1.72241521E-13
  0.377499998      -1.75952392E-13
  0.379999995      -1.79488897E-13
  0.382499993      -1.82832170E-13
  0.384999990      -1.85962695E-13
  0.387499988      -1.88860388E-13
  0.389999986      -1.91504554E-13
  0.392500013      -1.93873970E-13
  0.395000011      -1.95946829E-13
  0.397500008      -1.97700797E-13
  0.400000006      -1.99113024E-13
  0.402500004      -2.00160187E-13
  0.405000001      -2.00818501E-13
  0.407499999      -2.01063761E-13
  0.409999996      -2.00871343E-13
  0.412499994      -2.00216227E-13
  0.414999992      -1.99073085E-13
  0.417499989      -1.97416302E-13
  0.419999987      -1.95219939E-13
  0.422500014      -1.92457880E-13
  0.425000012      -1.89103819E-13
  0.427500010      -1.85131302E-13
  0.430000007      -1.80513793E-13
  0.432500005      -1.75224716E-13
  0.435000002      -1.69237467E-13
  0.437500000      -1.62525578E-13
  0.439999998      -1.55062622E-13
  0.442499995      -1.46822387E-13
  0.444999993      -1.37778894E-13
  0.447499990      -1.27906447E-13
  0.449999988      -1.17179703E-13
  0.452499986      -1.05573766E-13
  0.455000013      -9.30641740E-14
  0.457500011      -7.96270940E-14
  0.460000008      -6.52393111E-14
  0.462500006      -4.98782940E-14
  0.465000004      -3.35223081E-14
  0.467500001      -1.61504348E-14
  0.469999999       2.25728372E-15
  0.472499996       2.17197815E-14
  0.474999994       4.22548857E-14
  0.477499992       6.38792879E-14
  0.479999989       8.66084073E-14
  0.482499987       1.10456295E-13
  0.485000014       1.35435635E-13
  0.487500012       1.61557576E-13
  0.490000010       1.88831738E-13
  0.492500007       2.17265875E-13
  0.495000005       2.46866086E-13
  0.497500002       2.77636583E-13
  0.500000000       3.09579646E-13
  0.502499998       3.42695517E-13
  0.504999995       3.76982245E-13
  0.507499993       4.12435765E-13
  0.509999990       4.49049625E-13
  0.512499988       4.86815015E-13
  0.514999986       5.25720635E-13
  0.517499983       5.65752631E-13
  0.519999981       6.06894526E-13
  0.522499979       6.49126965E-13
  0.524999976       6.92427994E-13
  0.527499974       7.36772568E-13
  0.529999971       7.82132930E-13
  0.532500029       8.28478020E-13
  0.535000026       8.75773683E-13
  0.537500024       9.23982570E-13
  0.540000021       9.73064294E-13
  0.542500019       1.02297467E-12
  0.545000017       1.07366665E-12
  0.547500014       1.12508939E-12
  0.550000012       1.17718866E-12
  0.552500010       1.22990637E-12
  0.555000007       1.28318135E-12
  0.557500005       1.33694846E-12
  0.560000002       1.39113872E-12
  0.562500000       1.44567962E-12
  0.564999998       1.50049493E-12
  0.567499995       1.55550453E-12
  0.569999993       1.61062439E-12
  0.572499990       1.66576670E-12
  0.574999988       1.72083983E-12
  0.577499986       1.77574828E-12
  0.579999983       1.83039283E-12
  0.582499981       1.88467059E-12
  0.584999979       1.93847412E-12
  0.587499976       1.99169262E-12
  0.589999974       2.04421202E-12
  0.592499971       2.09591372E-12
  0.595000029       2.14667585E-12
  0.597500026       2.19637242E-12
  0.600000024       2.24487464E-12
  0.602500021       2.29204958E-12
  0.605000019       2.33776106E-12
  0.607500017       2.38186944E-12
  0.610000014       2.42423204E-12
  0.612500012       2.46470249E-12
  0.615000010       2.50313225E-12
  0.617500007       2.53936889E-12
  0.620000005       2.57325780E-12
  0.622500002       2.60464111E-12
  0.625000000       2.63335881E-12
  0.627499998       2.65924826E-12
  0.629999995       2.68214465E-12
  0.632499993       2.70188104E-12
  0.634999990       2.71828870E-12
  0.637499988       2.73119700E-12
  0.639999986       2.74043440E-12
  0.642499983       2.74582679E-12
  0.644999981       2.74720025E-12
  0.647499979       2.74437916E-12
  0.649999976       2.73718786E-12
  0.652499974       2.72544986E-12
  0.654999971       2.70898863E-12
  0.657500029       2.68762790E-12
  0.660000026       2.66119115E-12
  0.662500024       2.62950360E-12
  0.665000021       2.59239071E-12
  0.667500019       2.54967922E-12
  0.670000017       2.50119738E-12
  0.672500014       2.44677542E-12
  0.675000012       2.38624593E-12
  0.677500010       2.31944368E-12
  0.680000007       2.24620604E-12
  0.682500005       2.16637407E-12
  0.685000002       2.07979207E-12
  0.687500000       1.98630825E-12
  0.689999998       1.88577517E-12
  0.692499995       1.77804982E-12
  0.694999993       1.66299396E-12
  0.697499990       1.54047521E-12
  0.699999988       1.41036618E-12
  0.702499986       1.27254587E-12
  0.704999983       1.12690001E-12
  0.707499981       9.73320925E-13
  0.709999979       8.11708339E-13
  0.712499976       6.41969388E-13
  0.714999974       4.64019177E-13
  0.717499971       2.77781839E-13
  0.720000029       8.31900128E-14
  0.722500026      -1.19814884E-13
  0.725000024      -3.31281362E-13
  0.727500021      -5.51247958E-13
  0.730000019      -7.79742590E-13
  0.732500017      -1.01678247E-12
  0.735000014      -1.26237399E-12
  0.737500012      -1.51651207E-12
  0.740000010      -1.77917902E-12
  0.742500007      -2.05034470E-12
  0.745000005      -2.32996717E-12
  0.747500002      -2.61799089E-12
  0.750000000      -2.91434693E-12
  0.752499998      -3.21895245E-12
  0.754999995      -3.53170986E-12
  0.757499993      -3.85250859E-12
  0.759999990      -4.18122221E-12
  0.762499988      -4.51770956E-12
  0.764999986      -4.86181408E-12
  0.767499983      -5.21336273E-12
  0.769999981      -5.57216773E-12
  0.772499979      -5.93802438E-12
  0.774999976      -6.31071150E-12
  0.777499974      -6.68999058E-12
  0.779999971      -7.07560659E-12
  0.782500029      -7.46728721E-12
  0.785000026      -7.86474445E-12
  0.787500024      -8.26766954E-12
  0.790000021      -8.67573808E-12
  0.792500019      -9.08860747E-12
  0.795000017      -9.50591515E-12
  0.797500014      -9.92728295E-12
  0.800000012      -1.03523136E-11
  0.802500010      -1.07805917E-11
  0.805000007      -1.12116844E-11
  0.807500005      -1.16451371E-11
  0.810000002      -1.20804798E-11
  0.812500000      -1.25172225E-11
  0.814999998      -1.29548585E-11
  0.817499995      -1.33928606E-11
  0.819999993      -1.38306840E-11
  0.822499990      -1.42677675E-11
  0.824999988      -1.47035301E-11
  0.827499986      -1.51373723E-11
  0.829999983      -1.55686800E-11
  0.832499981      -1.59968167E-11
  0.834999979      -1.64211336E-11
  0.837499976      -1.68409609E-11
  0.839999974      -1.72556136E-11
  0.842499971      -1.76643908E-11
  0.845000029      -1.80665743E-11
  0.847500026      -1.84614320E-11
  0.850000024      -1.88482147E-11
  0.852500021      -1.92261571E-11
  0.855000019      -1.95944806E-11
  0.857500017      -1.99523922E-11
  0.860000014      -2.02990853E-11
  0.862500012      -2.06337412E-11
  0.865000010      -2.09555255E-11
  0.867500007      -2.12635968E-11
  0.870000005      -2.15570964E-11
  0.872500002      -2.18351587E-11
  0.875000000      -2.20969076E-11
  0.877499998      -2.23414533E-11
  0.879999995      -2.25679024E-11
  0.882499993      -2.27753528E-11
  0.884999990      -2.29628903E-11
  0.887499988      -2.31295989E-11
  0.889999986      -2.32745559E-11
  0.892499983      -2.33968366E-11
  0.894999981      -2.34955042E-11
  0.897499979      -2.35696254E-11
  0.899999976      -2.36182619E-11
  0.902499974      -2.36404785E-11
  0.904999971      -2.36353385E-11
  0.907500029      -2.36019034E-11
  0.910000026      -2.35392383E-11
  0.912500024      -2.34464115E-11
  0.915000021      -2.33224967E-11
  0.917500019      -2.31665711E-11
  0.920000017      -2.29777187E-11
  0.922500014      -2.27550322E-11
  0.925000012      -2.24976149E-11
  0.927500010      -2.22045785E-11
  0.930000007      -2.18750434E-11
  0.932500005      -2.15081512E-11
  0.935000002      -2.11030533E-11
  0.937500000      -2.06589138E-11
  0.939999998      -2.01749225E-11
  0.942499995      -1.96502797E-11
  0.944999993      -1.90842099E-11
  0.947499990      -1.84759621E-11
  0.949999988      -1.78248024E-11
  0.952499986      -1.71300266E-11
  0.954999983      -1.63909580E-11
  0.957499981      -1.56069463E-11
  0.959999979      -1.47773686E-11
  0.962499976      -1.39016351E-11
  0.964999974      -1.29791958E-11
  0.967499971      -1.20095279E-11
  0.970000029      -1.09921490E-11
  0.972500026      -9.92661595E-12
  0.975000024      -8.81252363E-12
  0.977500021      -7.64951123E-12
  0.980000019      -6.43726218E-12
  0.982500017      -5.17550672E-12
  0.985000014      -3.86402152E-12
  0.987500012      -2.50263373E-12
  0.990000010      -1.09122097E-12
  0.992500007       3.70284153E-13
  0.995000005       1.88189178E-12
  0.997500002       3.44355772E-12
   1.00000000       5.05517633E-12
   1.00250006       6.71658042E-12
   1.00500000       8.42754165E-12
   1.00750005       1.01877673E-11
   1.00999999       1.19968965E-11
   1.01250005       1.38545000E-11
   1.01499999       1.57600773E-11
   1.01750004       1.77130567E-11
   1.01999998       1.97127956E-11
   1.02250004       2.17585689E-11
   1.02499998       2.38495768E-11
   1.02750003       2.59849451E-11
   1.02999997       2.81637144E-11
   1.03250003       3.03848509E-11
   1.03499997       3.26472252E-11
   1.03750002       3.49496335E-11
   1.03999996       3.72907816E-11
   1.04250002       3.96692922E-11
   1.04499996       4.20836907E-11
   1.04750001       4.45324264E-11
   1.04999995       4.70138407E-11
   1.05250001       4.95262061E-11
   1.05499995       5.20676870E-11
   1.05750000       5.46363614E-11
   1.05999994       5.72302136E-11
   1.06250000       5.98471273E-11
   1.06500006       6.24849061E-11
   1.06750000       6.51412466E-11
   1.07000005       6.78137616E-11
   1.07249999       7.04999670E-11
   1.07500005       7.31972885E-11
   1.07749999       7.59030408E-11
   1.08000004       7.86144691E-11
   1.08249998       8.13287077E-11
   1.08500004       8.40428213E-11
   1.08749998       8.67537708E-11
   1.09000003       8.94584268E-11
   1.09249997       9.21535834E-11
   1.09500003       9.48359308E-11
   1.09749997       9.75020897E-11
   1.10000002       1.00148591E-10
   1.10249996       1.02771881E-10
   1.10500002       1.05368353E-10
   1.10749996       1.07934287E-10
   1.11000001       1.10465928E-10
   1.11249995       1.12959420E-10
   1.11500001       1.15410841E-10
   1.11749995       1.17816215E-10
   1.12000000       1.20171526E-10
   1.12249994       1.22472657E-10
   1.12500000       1.24715446E-10
   1.12750006       1.26895716E-10
   1.13000000       1.29009206E-10
   1.13250005       1.31051614E-10
   1.13499999       1.33018610E-10
   1.13750005       1.34905850E-10
   1.13999999       1.36708922E-10
   1.14250004       1.38423384E-10
   1.14499998       1.40044823E-10
   1.14750004       1.41568757E-10
   1.14999998       1.42990730E-10
   1.15250003       1.44306261E-10
   1.15499997       1.45510881E-10
   1.15750003       1.46600121E-10
   1.15999997       1.47569512E-10
   1.16250002       1.48414586E-10
   1.16499996       1.49130958E-10
   1.16750002       1.49714199E-10
   1.16999996       1.50159940E-10
   1.17250001       1.50463864E-10
   1.17499995       1.50621710E-10
   1.17750001       1.50629217E-10
   1.17999995       1.50482210E-10
   1.18250000       1.50176566E-10
   1.18499994       1.49708246E-10
   1.18750000       1.49073295E-10
   1.19000006       1.48267801E-10
   1.19250000       1.47287946E-10
   1.19500005       1.46130025E-10
   1.19749999       1.44790416E-10
   1.20000005       1.43265622E-10
   1.20249999       1.41552228E-10
   1.20500004       1.39646947E-10
   1.20749998       1.37546641E-10
   1.21000004       1.35248271E-10
   1.21249998       1.32748937E-10
   1.21500003       1.30045891E-10
   1.21749997       1.27136537E-10
   1.22000003       1.24018407E-10
   1.22249997       1.20689236E-10
   1.22500002       1.17146889E-10
   1.22749996       1.13389423E-10
   1.23000002       1.09415067E-10
   1.23249996       1.05222248E-10
   1.23500001       1.00809562E-10
   1.23749995       9.61758104E-11
   1.24000001       9.13200210E-11
   1.24249995       8.62413890E-11
   1.24500000       8.09393594E-11
   1.24749994       7.54135920E-11
   1.25000000       6.96639482E-11
   1.25250006       6.36905528E-11
   1.25500000       5.74937493E-11
   1.25750005       5.10741414E-11
   1.25999999       4.44325583E-11
   1.26250005       3.75701033E-11
   1.26499999       3.04881259E-11
   1.26750004       2.31882482E-11
   1.26999998       1.56723506E-11
   1.27250004       7.94259710E-12
   1.27499998       1.42504971E-15
   1.27750003      -8.14843679E-12
   1.27999997      -1.65039805E-11
   1.28250003      -2.50619230E-11
   1.28499997      -3.38186770E-11
   1.28750002      -4.27703567E-11
   1.28999996      -5.19127796E-11
   1.29250002      -6.12414494E-11
   1.29499996      -7.07515782E-11
   1.29750001      -8.04380937E-11
   1.29999995      -9.02955974E-11
   1.30250001      -1.00318351E-10
   1.30499995      -1.10500352E-10
   1.30750000      -1.20835300E-10
   1.30999994      -1.31316569E-10
   1.31250000      -1.41937254E-10
   1.31500006      -1.52690097E-10
   1.31750000      -1.63567604E-10
   1.32000005      -1.74561948E-10
   1.32249999      -1.85664997E-10
   1.32500005      -1.96868424E-10
   1.32749999      -2.08163556E-10
   1.33000004      -2.19541427E-10
   1.33249998      -2.30992850E-10
   1.33500004      -2.42508374E-10
   1.33749998      -2.54078342E-10
   1.34000003      -2.65692829E-10
   1.34249997      -2.77341650E-10
   1.34500003      -2.89014507E-10
   1.34749997      -3.00700825E-10
   1.35000002      -3.12389947E-10
   1.35249996      -3.24070937E-10
   1.35500002      -3.35732858E-10
   1.35749996      -3.47364498E-10
   1.36000001      -3.58954672E-10
   1.36249995      -3.70491998E-10
   1.36500001      -3.81965098E-10
   1.36749995      -3.93362537E-10
   1.37000000      -4.04672851E-10
   1.37249994      -4.15884605E-10
   1.37500000      -4.26986363E-10
   1.37750006      -4.37966746E-10
   1.38000000      -4.48814513E-10
   1.38250005      -4.59518507E-10
   1.38499999      -4.70067651E-10
   1.38750005      -4.80451179E-10
   1.38999999      -4.90658292E-10
   1.39250004      -5.00678610E-10
   1.39499998      -5.10501974E-10
   1.39750004      -5.20118448E-10
   1.39999998      -5.29518485E-10
   1.40250003      -5.38692813E-10
   1.40499997      -5.47632550E-10
   1.40750003      -5.56329149E-10
   1.40999997      -5.64774727E-10
   1.41250002      -5.72961623E-10
   1.41499996      -5.80882675E-10
   1.41750002      -5.88531335E-10
   1.41999996      -5.95901495E-10
   1.42250001      -6.02987604E-10
   1.42499995      -6.09784612E-10
   1.42750001      -6.16288298E-10
   1.42999995      -6.22494833E-10
   1.43250000      -6.28401053E-10
   1.43499994      -6.34004516E-10
   1.43750000      -6.39303277E-10
   1.44000006      -6.44296172E-10
   1.44250000      -6.48982590E-10
   1.44500005      -6.53362586E-10
   1.44749999      -6.57436994E-10
   1.45000005      -6.61207034E-10
   1.45249999      -6.64674760E-10
   1.45500004      -6.67842726E-10
   1.45749998      -6.70714206E-10
   1.46000004      -6.73293032E-10
   1.46249998      -6.75583367E-10
   1.46500003      -6.77590206E-10
   1.46749997      -6.79318768E-10
   1.47000003      -6.80774825E-10
   1.47249997      -6.81964485E-10
   1.47500002      -6.82894297E-10
   1.47749996      -6.83570867E-10
   1.48000002      -6.84001300E-10
   1.48249996      -6.84192647E-10
   1.48500001      -6.84152179E-10
   1.48749995      -6.83887114E-10
   1.49000001      -6.83404555E-10
   1.49249995      -6.82711554E-10
   1.49500000      -6.81814771E-10
   1.49749994      -6.80720647E-10
   1.50000000      -6.79435008E-10
   1.50250006      -6.77963408E-10
   1.50500000      -6.76310452E-10
   1.50750005      -6.74480138E-10
   1.50999999      -6.72475520E-10
   1.51250005      -6.70298650E-10
   1.51499999      -6.67950528E-10
   1.51750004      -6.65430766E-10
   1.51999998      -6.62737754E-10
   1.52250004      -6.59868271E-10
   1.52499998      -6.56817434E-10
   1.52750003      -6.53578747E-10
   1.52999997      -6.50143661E-10
   1.53250003      -6.46501797E-10
   1.53499997      -6.42640496E-10
   1.53750002      -6.38544773E-10
   1.53999996      -6.34197472E-10
   1.54250002      -6.29578722E-10
   1.54499996      -6.24666152E-10
   1.54750001      -6.19434504E-10
   1.54999995      -6.13855966E-10
   1.55250001      -6.07899509E-10
   1.55499995      -6.01531269E-10
   1.55750000      -5.94714278E-10
   1.55999994      -5.87408233E-10
   1.56250000      -5.79569726E-10
   1.56500006      -5.71152070E-10
   1.56750000      -5.62105251E-10
   1.57000005      -5.52375978E-10
   1.57249999      -5.41907463E-10
   1.57500005      -5.30639699E-10
   1.57749999      -5.18509236E-10
   1.58000004      -5.05449460E-10
   1.58249998      -4.91390428E-10
   1.58500004      -4.76259088E-10
   1.58749998      -4.59979249E-10
   1.59000003      -4.42471809E-10
   1.59249997      -4.23654750E-10
   1.59500003      -4.03443418E-10
   1.59749997      -3.81750603E-10
   1.60000002      -3.58486768E-10
   1.60249996      -3.33560235E-10
   1.60500002      -3.06877412E-10
   1.60749996      -2.78343154E-10
   1.61000001      -2.47860871E-10
   1.61249995      -2.15332877E-10
   1.61500001      -1.80660820E-10
   1.61749995      -1.43745821E-10
   1.62000000      -1.04488987E-10
   1.62249994      -6.27917232E-11
   1.62500000      -1.85561688E-11
   1.62750006       2.83144602E-11
   1.63000000       7.79153200E-11
   1.63250005       1.30339600E-10
   1.63499999       1.85678056E-10
   1.63750005       2.44018500E-10
   1.63999999       3.05445225E-10
   1.64250004       3.70038611E-10
   1.64499998       4.37874625E-10
   1.64750004       5.09024156E-10
   1.64999998       5.83552540E-10
   1.65250003       6.61519117E-10
   1.65499997       7.42976625E-10
   1.65750003       8.27970636E-10
   1.65999997       9.16538789E-10
   1.66250002       1.00871078E-09
   1.66499996       1.10450715E-09
   1.66750002       1.20393928E-09
   1.66999996       1.30700828E-09
   1.67250001       1.41370526E-09
   1.67499995       1.52401003E-09
   1.67750001       1.63789071E-09
   1.67999995       1.75530357E-09
   1.68250000       1.87619231E-09
   1.68499994       2.00048711E-09
   1.68750000       2.12810547E-09
   1.69000006       2.25894992E-09
   1.69250000       2.39290898E-09
   1.69500005       2.52985655E-09
   1.69749999       2.66965028E-09
   1.70000005       2.81213342E-09
   1.70249999       2.95713232E-09
   1.70500004       3.10445691E-09
   1.70749998       3.25390048E-09
   1.71000004       3.40523942E-09
   1.71249998       3.55823260E-09
   1.71500003       3.71262154E-09
   1.71749997       3.86812982E-09
   1.72000003       4.02446299E-09
   1.72249997       4.18130952E-09
   1.72500002       4.33833813E-09
   1.72749996       4.49520066E-09
   1.73000002       4.65152938E-09
   1.73249996       4.80693974E-09
   1.73500001       4.96102759E-09
   1.73749995       5.11337150E-09
   1.74000001       5.26353139E-09
   1.74249995       5.41104894E-09
   1.74500000       5.55545032E-09
   1.74749994       5.69624126E-09
   1.75000000       5.83291326E-09
   1.75250006       5.96494010E-09
   1.75500000       6.09177953E-09
   1.75750005       6.21287377E-09
   1.75999999       6.32764996E-09
   1.76250005       6.43552056E-09
   1.76499999       6.53588561E-09
   1.76750004       6.62813227E-09
   1.76999998       6.71163525E-09
   1.77250004       6.78575951E-09
   1.77499998       6.84986023E-09
   1.77750003       6.90328417E-09
   1.77999997       6.94537228E-09
   1.78250003       6.97545843E-09
   1.78499997       6.99287384E-09
   1.78750002       6.99694747E-09
   1.78999996       6.98700875E-09
   1.79250002       6.96238800E-09
   1.79499996       6.92242086E-09
   1.79750001       6.86644785E-09
   1.79999995       6.79381884E-09
   1.80250001       6.70389566E-09
   1.80499995       6.59605348E-09
   1.80750000       6.46968479E-09
   1.80999994       6.32420116E-09
   1.81250000       6.15903950E-09
   1.81500006       5.97366068E-09
   1.81750000       5.76755887E-09
   1.82000005       5.54025892E-09
   1.82249999       5.29132427E-09
   1.82500005       5.02036057E-09
   1.82749999       4.72701700E-09
   1.83000004       4.41099468E-09
   1.83249998       4.07204670E-09
   1.83500004       3.70998565E-09
   1.83749998       3.32468475E-09
   1.84000003       2.91608537E-09
   1.84249997       2.48420018E-09
   1.84500003       2.02911710E-09
   1.84749997       1.55100477E-09
   1.85000002       1.05011611E-09
   1.85249996       5.26793220E-10
   1.85500002      -1.85288208E-11
   1.85749996      -5.85317628E-10
   1.86000001      -1.17293963E-09
   1.86249995      -1.78065673E-09
   1.86500001      -2.40762166E-09
   1.86749995      -3.05287617E-09
   1.87000000      -3.71534759E-09
   1.87249994      -4.39384529E-09
   1.87500000      -5.08706011E-09
   1.87750006      -5.79356163E-09
   1.88000000      -6.51179688E-09
   1.88250005      -7.24008942E-09
   1.88499999      -7.97663979E-09
   1.88750005      -8.71952466E-09
   1.88999999      -9.46670031E-09
   1.89250004      -1.02159987E-08
   1.89499998      -1.09651364E-08
   1.89750004      -1.17117134E-08
   1.89999998      -1.24532162E-08
   1.90250003      -1.31870266E-08
   1.90499997      -1.39104204E-08
   1.90750003      -1.46205803E-08
   1.90999997      -1.53145958E-08
   1.91250002      -1.59894782E-08
   1.91499996      -1.66421632E-08
   1.91750002      -1.72695191E-08
   1.91999996      -1.78683628E-08
   1.92250001      -1.84354700E-08
   1.92499995      -1.89675795E-08
   1.92750001      -1.94614103E-08
   1.92999995      -1.99136796E-08
   1.93250000      -2.03211048E-08
   1.93499994      -2.06804280E-08
   1.93750000      -2.09884305E-08
   1.94000006      -2.12419433E-08
   1.94250000      -2.14378613E-08
   1.94500005      -2.15731681E-08
   1.94749999      -2.16449454E-08
   1.95000005      -2.16503953E-08
   1.95249999      -2.15868496E-08
   1.95500004      -2.14518003E-08
   1.95749998      -2.12428990E-08
   1.96000004      -2.09579909E-08
   1.96249998      -2.05951167E-08
   1.96500003      -2.01525410E-08
   1.96749997      -1.96287591E-08
   1.97000003      -1.90225222E-08
   1.97249997      -1.83328375E-08
   1.97500002      -1.75589960E-08
   1.97749996      -1.67005769E-08
   1.98000002      -1.57574611E-08
   1.98249996      -1.47298413E-08
   1.98500001      -1.36182363E-08
   1.98749995      -1.24234880E-08
   1.99000001      -1.11467768E-08
   1.99249995      -9.78962422E-09
   1.99500000      -8.35389180E-09
   1.99749994      -6.84178625E-09
   2.00000000      -5.25585664E-09
   2.00250006      -3.59899111E-09
   2.00500011      -1.87441285E-09
   2.00749993      -8.56732393E-11
   2.00999999       1.76335768E-09
   2.01250005       3.66850239E-09
   2.01500010       5.62528912E-09
   2.01749992       7.62896857E-09
   2.01999998       9.67452873E-09
   2.02250004       1.17567165E-08
   2.02500010       1.38700589E-08
   2.02749991       1.60088867E-08
   2.02999997       1.81673592E-08
   2.03250003       2.03394901E-08
   2.03500009       2.25191776E-08
   2.03749990       2.47002383E-08
   2.03999996       2.68764300E-08
   2.04250002       2.90414857E-08
   2.04500008       3.11891526E-08
   2.04749990       3.33132206E-08
   2.04999995       3.54075631E-08
   2.05250001       3.74661546E-08
   2.05500007       3.94831261E-08
   2.05749989       4.14527825E-08
   2.05999994       4.33696457E-08
   2.06250000       4.52284752E-08
   2.06500006       4.70243151E-08
   2.06750011       4.87525043E-08
   2.06999993       5.04087119E-08
   2.07249999       5.19889660E-08
   2.07500005       5.34896678E-08
   2.07750010       5.49076162E-08
   2.07999992       5.62400153E-08
   2.08249998       5.74844954E-08
   2.08500004       5.86391202E-08
   2.08750010       5.97023799E-08
   2.08999991       6.06732016E-08
   2.09249997       6.15509350E-08
   2.09500003       6.23353742E-08
   2.09750009       6.30266825E-08
   2.09999990       6.36254214E-08
   2.10249996       6.41325073E-08
   2.10500002       6.45491980E-08
   2.10750008       6.48770282E-08
   2.10999990       6.51177743E-08
   2.11249995       6.52734329E-08
   2.11500001       6.53461214E-08