  -2.50000004E-02   0.00000000    
  -2.25000009E-02   0.00000000    
  -1.99999996E-02   0.00000000    
  -1.75000001E-02  -9.53777131E-28
  -1.49999997E-02  -6.49381361E-27
  -1.25000002E-02  -2.49419714E-26
  -9.99999978E-03  -6.86454249E-26
  -7.49999983E-03  -1.47440223E-25
  -4.99999989E-03  -2.77517889E-25
  -2.49999994E-03  -5.03778259E-25
   0.00000000      -8.61583724E-25
   2.49999994E-03  -1.34693799E-24
   4.99999989E-03  -1.97639278E-24
   7.49999983E-03  -2.94939789E-24
   9.99999978E-03  -4.28236140E-24
   1.25000002E-02  -5.99981335E-24
   1.49999997E-02  -8.37973334E-24
   1.75000001E-02  -1.15700967E-23
   1.99999996E-02  -1.55206490E-23
   2.25000009E-02  -1.97467110E-23
   2.50000004E-02  -2.25904520E-23
   2.74999999E-02  -2.25492861E-23
   2.99999993E-02  -1.83398012E-23
   3.24999988E-02  -4.81578914E-24
   3.50000001E-02   2.28178837E-23
   3.75000015E-02   6.92529629E-23
   3.99999991E-02   1.42066238E-22
   4.25000004E-02   2.48228627E-22
   4.50000018E-02   3.99421153E-22
   4.74999994E-02   6.08018796E-22
   5.00000007E-02   8.79391441E-22
   5.24999984E-02   1.21999295E-21
   5.49999997E-02   1.64131344E-21
   5.75000010E-02   2.15497857E-21
   5.99999987E-02   2.75596648E-21
   6.25000000E-02   3.44115859E-21
   6.49999976E-02   4.21349971E-21
   6.75000027E-02   5.05486639E-21
   7.00000003E-02   5.91955973E-21
   7.24999979E-02   6.79781713E-21
   7.50000030E-02   7.67481921E-21
   7.75000006E-02   8.48128073E-21
   7.99999982E-02   9.15929580E-21
   8.25000033E-02   9.63864777E-21
   8.50000009E-02   9.85429149E-21
   8.74999985E-02   9.73214261E-21
   9.00000036E-02   9.20429475E-21
   9.25000012E-02   8.17856978E-21
   9.49999988E-02   6.55406986E-21
   9.74999964E-02   4.22693817E-21
  0.100000001       1.14133193E-21
  0.102499999      -2.72982163E-21
  0.104999997      -7.40953577E-21
  0.107500002      -1.29140374E-20
  0.109999999      -1.93058107E-20
  0.112499997      -2.67320298E-20
  0.115000002      -3.51570598E-20
  0.117500000      -4.44574036E-20
  0.119999997      -5.45561674E-20
  0.122500002      -6.53874190E-20
  0.125000000      -7.68510695E-20
  0.127499998      -8.86849803E-20
  0.129999995      -1.00727140E-19
  0.132499993      -1.12818595E-19
  0.135000005      -1.24668436E-19
  0.137500003      -1.35972246E-19
  0.140000001      -1.46404235E-19
  0.142499998      -1.55907984E-19
  0.144999996      -1.64209375E-19
  0.147499993      -1.70655917E-19
  0.150000006      -1.74869419E-19
  0.152500004      -1.76316223E-19
  0.155000001      -1.74776387E-19
  0.157499999      -1.70002043E-19
  0.159999996      -1.61493689E-19
  0.162499994      -1.49087014E-19
  0.165000007      -1.33065572E-19
  0.167500004      -1.12846047E-19
  0.170000002      -8.78807346E-20
  0.172499999      -5.82630287E-20
  0.174999997      -2.39199017E-20
  0.177499995       1.52023760E-20
  0.180000007       5.95073668E-20
  0.182500005       1.08026182E-19
  0.185000002       1.60364278E-19
  0.187500000       2.17151946E-19
  0.189999998       2.77667187E-19
  0.192499995       3.40511613E-19
  0.194999993       4.05125896E-19
  0.197500005       4.70708575E-19
  0.200000003       5.35833487E-19
  0.202500001       5.99554570E-19
  0.204999998       6.60112876E-19
  0.207499996       7.15829694E-19
  0.209999993       7.64636711E-19
  0.212500006       8.03976801E-19
  0.215000004       8.32176835E-19
  0.217500001       8.47103723E-19
  0.219999999       8.45677147E-19
  0.222499996       8.25094360E-19
  0.224999994       7.83118873E-19
  0.227500007       7.17094815E-19
  0.230000004       6.23654684E-19
  0.232500002       4.98684185E-19
  0.234999999       3.38904686E-19
  0.237499997       1.41963865E-19
  0.239999995      -9.47953312E-20
  0.242500007      -3.74819834E-19
  0.245000005      -7.00755310E-19
  0.247500002      -1.07538970E-18
  0.250000000      -1.50170877E-18
  0.252499998      -1.98163916E-18
  0.254999995      -2.51817581E-18
  0.257499993      -3.11286035E-18
  0.259999990      -3.76626955E-18
  0.262499988      -4.47971613E-18
  0.264999986      -5.25342531E-18
  0.267500013      -6.08645740E-18
  0.270000011      -6.97837027E-18
  0.272500008      -7.92656823E-18
  0.275000006      -8.92729548E-18
  0.277500004      -9.97761550E-18
  0.280000001      -1.10734702E-17
  0.282499999      -1.22093935E-17
  0.284999996      -1.33784346E-17
  0.287499994      -1.45727122E-17
  0.289999992      -1.57838187E-17
  0.292499989      -1.70023964E-17
  0.294999987      -1.82173510E-17
  0.297500014      -1.94163510E-17
  0.300000012      -2.05858173E-17
  0.302500010      -2.17112362E-17
  0.305000007      -2.27774637E-17
  0.307500005      -2.37681730E-17
  0.310000002      -2.46653992E-17
  0.312500000      -2.54506699E-17
  0.314999998      -2.61042055E-17
  0.317499995      -2.66062760E-17
  0.319999993      -2.69365675E-17
  0.322499990      -2.70724071E-17
  0.324999988      -2.69918977E-17
  0.327499986      -2.66733438E-17
  0.330000013      -2.60942578E-17
  0.332500011      -2.52324729E-17
  0.335000008      -2.40645055E-17
  0.337500006      -2.25699076E-17
  0.340000004      -2.07285771E-17
  0.342500001      -1.85199866E-17
  0.344999999      -1.59260442E-17
  0.347499996      -1.29280885E-17
  0.349999994      -9.51320984E-18
  0.352499992      -5.66583564E-18
  0.354999989      -1.37403954E-18
  0.357499987       3.36759476E-18
  0.360000014       8.56763900E-18
  0.362500012       1.42276885E-17
  0.365000010       2.03447255E-17
  0.367500007       2.69148623E-17
  0.370000005       3.39321696E-17
  0.372500002       4.13863706E-17
  0.375000000       4.92576890E-17
  0.377499998       5.75209751E-17
  0.379999995       6.61488726E-17
  0.382499993       7.51106665E-17
  0.384999990       8.43705365E-17
  0.387499988       9.38846885E-17
  0.389999986       1.03607502E-16
  0.392500013       1.13487115E-16
  0.395000011       1.23461272E-16
  0.397500008       1.33464202E-16
  0.400000006       1.43425151E-16
  0.402500004       1.53267250E-16
  0.405000001       1.62903520E-16
  0.407499999       1.72245010E-16
  0.409999996       1.81199869E-16
  0.412499994       1.89674553E-16
  0.414999992       1.97566239E-16
  0.417499989       2.04771578E-16
  0.419999987       2.11176206E-16
  0.422500014       2.16663047E-16
  0.425000012       2.21121471E-16
  0.427500010       2.24436414E-16
  0.430000007       2.26490734E-16
  0.432500005       2.27156263E-16
  0.435000002       2.26331518E-16
  0.437500000       2.23904954E-16
  0.439999998       2.19745096E-16
  0.442499995       2.13739579E-16
  0.444999993       2.05787250E-16
  0.447499990       1.95787245E-16
  0.449999988       1.83643241E-16
  0.452499986       1.69277774E-16
  0.455000013       1.52612705E-16
  0.457500011       1.33573390E-16
  0.460000008       1.12088280E-16
  0.462500006       8.81002807E-17
  0.465000004       6.15841988E-17
  0.467500001       3.25203113E-17
  0.469999999       9.01168196E-19
  0.472499996      -3.32649029E-17
  0.474999994      -6.99505947E-17
  0.477499992      -1.09107644E-16
  0.479999989      -1.50675356E-16
  0.482499987      -1.94569133E-16
  0.485000014      -2.40678165E-16
  0.487500012      -2.88879369E-16
  0.490000010      -3.39022872E-16
  0.492500007      -3.90934425E-16
  0.495000005      -4.44412565E-16
  0.497500002      -4.99241854E-16
  0.500000000      -5.55181657E-16
  0.502499998      -6.11957270E-16
  0.504999995      -6.69277895E-16
  0.507499993      -7.26842572E-16
  0.509999990      -7.84308993E-16
  0.512499988      -8.41313304E-16
  0.514999986      -8.97474818E-16
  0.517499983      -9.52380023E-16
  0.519999981      -1.00562081E-15
  0.522499979      -1.05674623E-15
  0.524999976      -1.10529170E-15
  0.527499974      -1.15078987E-15
  0.529999971      -1.19273399E-15
  0.532500029      -1.23062706E-15
  0.535000026      -1.26396850E-15
  0.537500024      -1.29222065E-15
  0.540000021      -1.31485994E-15
  0.542500019      -1.33136077E-15
  0.545000017      -1.34118964E-15
  0.547500014      -1.34383566E-15
  0.550000012      -1.33878618E-15
  0.552500010      -1.32552578E-15
  0.555000007      -1.30356062E-15
  0.557500005      -1.27241671E-15
  0.560000002      -1.23163959E-15
  0.562500000      -1.18079908E-15
  0.564999998      -1.11949422E-15
  0.567499995      -1.04735507E-15
  0.569999993      -9.64054890E-16
  0.572499990      -8.69295302E-16
  0.574999988      -7.62829984E-16
  0.577499986      -6.44464012E-16
  0.579999983      -5.14035179E-16
  0.582499981      -3.71460026E-16
  0.584999979      -2.16696505E-16
  0.587499976      -4.97475519E-17
  0.589999974       1.29307070E-16
  0.592499971       3.20293730E-16
  0.595000029       5.23004146E-16
  0.597500026       7.37158004E-16
  0.600000024       9.62378294E-16
  0.602500021       1.19822869E-15
  0.605000019       1.44419128E-15
  0.607500017       1.69967569E-15
  0.610000014       1.96401360E-15
  0.612500012       2.23648398E-15
  0.615000010       2.51626617E-15
  0.617500007       2.80248410E-15
  0.620000005       3.09419060E-15
  0.622500002       3.39034085E-15
  0.625000000       3.68983942E-15
  0.627499998       3.99157331E-15
  0.629999995       4.29435116E-15
  0.632499993       4.59688211E-15
  0.634999990       4.89785282E-15
  0.637499988       5.19596014E-15
  0.639999986       5.48980857E-15
  0.642499983       5.77797935E-15
  0.644999981       6.05912779E-15
  0.647499979       6.33182624E-15
  0.649999976       6.59462414E-15
  0.652499974       6.84617980E-15
  0.654999971       7.08518878E-15
  0.657500029       7.31031108E-15
  0.660000026       7.52026598E-15
  0.662500024       7.71384858E-15
  0.665000021       7.88997723E-15
  0.667500019       8.04762954E-15
  0.670000017       8.18586955E-15
  0.672500014       8.30398152E-15
  0.675000012       8.40130137E-15
  0.677500010       8.47730902E-15
  0.680000007       8.53173851E-15
  0.682500005       8.56453648E-15
  0.685000002       8.57578423E-15
  0.687500000       8.56578924E-15
  0.689999998       8.53519356E-15
  0.692499995       8.48478324E-15
  0.694999993       8.41564248E-15
  0.697499990       8.32925021E-15
  0.699999988       8.22720222E-15
  0.702499986       8.11146109E-15
  0.704999983       7.98450864E-15
  0.707499981       7.84902657E-15
  0.709999979       7.70802947E-15
  0.712499976       7.56497153E-15
  0.714999974       7.42376182E-15
  0.717499971       7.28865668E-15
  0.720000029       7.16419366E-15
  0.722500026       7.05547444E-15
  0.725000024       6.96795984E-15
  0.727500021       6.90746348E-15
  0.730000019       6.88044863E-15
  0.732500017       6.89363947E-15
  0.735000014       6.95413753E-15
  0.737500012       7.06957457E-15
  0.740000010       7.24800672E-15
  0.742500007       7.49790007E-15
  0.745000005       7.82808114E-15
  0.747500002       8.24783509E-15
  0.750000000       8.76684521E-15
  0.752499998       9.39507685E-15
  0.754999995       1.01427401E-14
  0.757499993       1.10205602E-14
  0.759999990       1.20396357E-14
  0.762499988       1.32112686E-14
  0.764999986       1.45470268E-14
  0.767499983       1.60586842E-14
  0.769999981       1.77582423E-14
  0.772499979       1.96577407E-14
  0.774999976       2.17693244E-14
  0.777499974       2.41053346E-14
  0.779999971       2.66781650E-14
  0.782500029       2.95001179E-14
  0.785000026       3.25835821E-14
  0.787500024       3.59407091E-14
  0.790000021       3.95833912E-14
  0.792500019       4.35234632E-14
  0.795000017       4.77724922E-14
  0.797500014       5.23415506E-14
  0.800000012       5.72414363E-14
  0.802500010       6.24825509E-14
  0.805000007       6.80746217E-14
  0.807500005       7.40268781E-14
  0.810000002       8.03478310E-14
  0.812500000       8.70452731E-14
  0.814999998       9.41261839E-14
  0.817499995       1.01596676E-13
  0.819999993       1.09461912E-13
  0.822499990       1.17725992E-13
  0.824999988       1.26391952E-13
  0.827499986       1.35461656E-13
  0.829999983       1.44935753E-13
  0.832499981       1.54813486E-13
  0.834999979       1.65092766E-13
  0.837499976       1.75770057E-13
  0.839999974       1.86840222E-13
  0.842499971       1.98296566E-13
  0.845000029       2.10130714E-13
  0.847500026       2.22332528E-13
  0.850000024       2.34890151E-13
  0.852500021       2.47789907E-13
  0.855000019       2.61016008E-13
  0.857500017       2.74550781E-13
  0.860000014       2.88374603E-13
  0.862500012       3.02465681E-13
  0.865000010       3.16800216E-13
  0.867500007       3.31352160E-13
  0.870000005       3.46093325E-13
  0.872500002       3.60993272E-13
  0.875000000       3.76019501E-13
  0.877499998       3.91137209E-13
  0.879999995       4.06309318E-13
  0.882499993       4.21496469E-13
  0.884999990       4.36657248E-13
  0.887499988       4.51747987E-13
  0.889999986       4.66722418E-13
  0.892499983       4.81532566E-13
  0.894999981       4.96128529E-13
  0.897499979       5.10457995E-13
  0.899999976       5.24466863E-13
  0.902499974       5.38098917E-13
  0.904999971       5.51296151E-13
  0.907500029       5.63998989E-13
  0.910000026       5.76146173E-13
  0.912500024       5.87674928E-13
  0.915000021       5.98520907E-13
  0.917500019       6.08618950E-13
  0.920000017       6.17902864E-13
  0.922500014       6.26305214E-13
  0.925000012       6.33757857E-13
  0.927500010       6.40192326E-13
  0.930000007       6.45539991E-13
  0.932500005       6.49732167E-13
  0.935000002       6.52700387E-13
  0.937500000       6.54376293E-13
  0.939999998       6.54692555E-13
  0.942499995       6.53582548E-13
  0.944999993       6.50981547E-13
  0.947499990       6.46825800E-13
  0.949999988       6.41053887E-13
  0.952499986       6.33607045E-13
  0.954999983       6.24428243E-13
  0.957499981       6.13464195E-13
  0.959999979       6.00665188E-13
  0.962499976       5.85984711E-13
  0.964999974       5.69380589E-13
  0.967499971       5.50815795E-13
  0.970000029       5.30258400E-13
  0.972500026       5.07681191E-13
  0.975000024       4.83063405E-13
  0.977500021       4.56390785E-13
  0.980000019       4.27655551E-13
  0.982500017       3.96857406E-13
  0.985000014       3.64004291E-13
  0.987500012       3.29112388E-13
  0.990000010       2.92205930E-13
  0.992500007       2.53318227E-13
  0.995000005       2.12492608E-13
  0.997500002       1.69782374E-13
   1.00000000       1.25251250E-13
   1.00250006       7.89741401E-14
   1.00500000       3.10368796E-14
   1.00750005      -1.84624705E-14
   1.00999999      -6.94143771E-14
   1.01250005      -1.21696829E-13
   1.01499999      -1.75175033E-13
   1.01750004      -2.29701403E-13
   1.01999998      -2.85114759E-13
   1.02250004      -3.41240897E-13
   1.02499998      -3.97891870E-13
   1.02750003      -4.54866179E-13
   1.02999997      -5.11948665E-13
   1.03250003      -5.68909937E-13
   1.03499997      -6.25507187E-13
   1.03750002      -6.81484166E-13
   1.03999996      -7.36570852E-13
   1.04250002      -7.90483835E-13
   1.04499996      -8.42927236E-13
   1.04750001      -8.93592546E-13
   1.04999995      -9.42158461E-13
   1.05250001      -9.88292673E-13
   1.05499995      -1.03165252E-12
   1.05750000      -1.07188466E-12
   1.05999994      -1.10862686E-12
   1.06250000      -1.14150746E-12
   1.06500006      -1.17014764E-12
   1.06750000      -1.19416272E-12
   1.07000005      -1.21316227E-12
   1.07249999      -1.22675362E-12
   1.07500005      -1.23454014E-12
   1.07749999      -1.23612438E-12
   1.08000004      -1.23110983E-12
   1.08249998      -1.21910327E-12
   1.08500004      -1.19971557E-12
   1.08749998      -1.17256357E-12
   1.09000003      -1.13727333E-12
   1.09249997      -1.09348153E-12
   1.09500003      -1.04083788E-12
   1.09749997      -9.79007023E-13
   1.10000002      -9.07671616E-13
   1.10249996      -8.26534750E-13
   1.10500002      -7.35321526E-13
   1.10749996      -6.33783553E-13
   1.11000001      -5.21700684E-13
   1.11249995      -3.98883915E-13
   1.11500001      -2.65178857E-13
   1.11749995      -1.20468048E-13
   1.12000000       3.53251635E-14
   1.12249994       2.02234456E-13
   1.12500000       3.80248296E-13
   1.12750006       5.69306050E-13
   1.13000000       7.69293808E-13
   1.13250005       9.80043195E-13
   1.13499999       1.20132918E-12
   1.13750005       1.43286468E-12
   1.13999999       1.67430002E-12
   1.14250004       1.92521910E-12
   1.14499998       2.18513749E-12
   1.14750004       2.45350073E-12
   1.14999998       2.72968063E-12
   1.15250003       3.01297485E-12
   1.15499997       3.30260363E-12
   1.15750003       3.59771024E-12
   1.15999997       3.89735770E-12
   1.16250002       4.20052925E-12
   1.16499996       4.50612681E-12
   1.16750002       4.81297120E-12
   1.16999996       5.11980128E-12
   1.17250001       5.42527698E-12
   1.17499995       5.72797625E-12
   1.17750001       6.02639900E-12
   1.17999995       6.31896748E-12
   1.18250000       6.60402939E-12
   1.18499994       6.87986040E-12
   1.18750000       7.14466594E-12
   1.19000006       7.39658768E-12
   1.19250000       7.63370357E-12
   1.19500005       7.85403687E-12
   1.19749999       8.05555882E-12
   1.20000005       8.23619471E-12
   1.20249999       8.39383077E-12
   1.20500004       8.52632461E-12
   1.20749998       8.63150697E-12
   1.21000004       8.70719469E-12
   1.21249998       8.75119508E-12
   1.21500003       8.76132153E-12
   1.21749997       8.73540042E-12
   1.22000003       8.67127984E-12
   1.22249997       8.56684515E-12
   1.22500002       8.42002770E-12
   1.22749996       8.22881954E-12
   1.23000002       7.99128125E-12
   1.23249996       7.70556449E-12
   1.23500001       7.36991804E-12
   1.23749995       6.98270565E-12
   1.24000001       6.54241852E-12
   1.24249995       6.04769403E-12
   1.24500000       5.49732699E-12
   1.24749994       4.89028739E-12
   1.25000000       4.22573478E-12
   1.25250006       3.50303597E-12
   1.25500000       2.72177831E-12
   1.25750005       1.88178661E-12
   1.25999999       9.83141736E-13
   1.26250005       2.61905213E-14
   1.26499999      -9.88436004E-13
   1.26750004      -2.05980719E-12
   1.26999998      -3.18667944E-12
   1.27250004      -4.36748120E-12
   1.27499998      -5.60030321E-12
   1.27750003      -6.88288315E-12
   1.27999997      -8.21259467E-12
   1.28250003      -9.58643755E-12
   1.28499997      -1.10010299E-11
   1.28750002      -1.24525962E-11
   1.28999996      -1.39369592E-11
   1.29250002      -1.54495427E-11
   1.29499996      -1.69853628E-11
   1.29750001      -1.85390210E-11
   1.29999995      -2.01047096E-11
   1.30250001      -2.16762077E-11
   1.30499995      -2.32468940E-11
   1.30750000      -2.48097411E-11
   1.30999994      -2.63573295E-11
   1.31250000      -2.78818548E-11
   1.31500006      -2.93751412E-11
   1.31750000      -3.08286521E-11
   1.32000005      -3.22335179E-11
   1.32249999      -3.35805377E-11
   1.32500005      -3.48602154E-11
   1.32749999      -3.60627812E-11
   1.33000004      -3.71782119E-11
   1.33249998      -3.81962725E-11
   1.33500004      -3.91065444E-11
   1.33749998      -3.98984526E-11
   1.34000003      -4.05613182E-11
   1.34249997      -4.10843894E-11
   1.34500003      -4.14568900E-11
   1.34749997      -4.16680614E-11
   1.35000002      -4.17072141E-11
   1.35249996      -4.15637837E-11
   1.35500002      -4.12273722E-11
   1.35749996      -4.06878212E-11
   1.36000001      -3.99352565E-11
   1.36249995      -3.89601580E-11
   1.36500001      -3.77534150E-11
   1.36749995      -3.63063850E-11
   1.37000000      -3.46109773E-11
   1.37249994      -3.26597048E-11
   1.37500000      -3.04457570E-11
   1.37750006      -2.79630711E-11
   1.38000000      -2.52063943E-11
   1.38250005      -2.21713585E-11
   1.38499999      -1.88545481E-11
   1.38750005      -1.52535710E-11
   1.38999999      -1.13671234E-11
   1.39250004      -7.19506659E-12
   1.39499998      -2.73848283E-12
   1.39750004       2.00025608E-12
   1.39999998       7.01742527E-12
   1.40250003       1.23078891E-11
   1.40499997       1.78650358E-11
   1.40750003       2.36807310E-11
   1.40999997       2.97452722E-11
   1.41250002       3.60473248E-11
   1.41499996       4.25738993E-11
   1.41750002       4.93102989E-11
   1.41999996       5.62400924E-11
   1.42250001       6.33450931E-11
   1.42499995       7.06053410E-11
   1.42750001       7.79990794E-11
   1.42999995       8.55027299E-11
   1.43250000       9.30909377E-11
   1.43499994       1.00736537E-10
   1.43750000       1.08410607E-10
   1.44000006       1.16082456E-10
   1.44250000       1.23719660E-10
   1.44500005       1.31288133E-10
   1.44749999       1.38752190E-10
   1.45000005       1.46074527E-10
   1.45249999       1.53216342E-10
   1.45500004       1.60137431E-10
   1.45749998       1.66796257E-10
   1.46000004       1.73150050E-10
   1.46249998       1.79154885E-10
   1.46500003       1.84765883E-10
   1.46749997       1.89937274E-10
   1.47000003       1.94622513E-10
   1.47249997       1.98774497E-10
   1.47500002       2.02345696E-10
   1.47749996       2.05288300E-10
   1.48000002       2.07554446E-10
   1.48249996       2.09096310E-10
   1.48500001       2.09866444E-10
   1.48749995       2.09817830E-10
   1.49000001       2.08904199E-10
   1.49249995       2.07080186E-10
   1.49500000       2.04301603E-10
   1.49749994       2.00525624E-10
   1.50000000       1.95711031E-10
   1.50250006       1.89818480E-10
   1.50500000       1.82810725E-10
   1.50750005       1.74652862E-10
   1.50999999       1.65312611E-10
   1.51250005       1.54760482E-10
   1.51499999       1.42970136E-10
   1.51750004       1.29918534E-10
   1.51999998       1.15586270E-10
   1.52250004       9.99577365E-11
   1.52499998       8.30214231E-11
   1.52750003       6.47701198E-11
   1.52999997       4.52011518E-11
   1.53250003       2.43166026E-11
   1.53499997       2.12351187E-12
   1.53750002      -2.13659090E-11
   1.53999996      -4.61340896E-11
   1.54250002      -7.21579463E-11
   1.54499996      -9.94086827E-11
   1.54750001      -1.27851688E-10
   1.54999995      -1.57446389E-10
   1.55250001      -1.88146124E-10
   1.55499995      -2.19898044E-10
   1.55750000      -2.52643073E-10
   1.55999994      -2.86315832E-10
   1.56250000      -3.20844656E-10
   1.56500006      -3.56151469E-10
   1.56750000      -3.92151978E-10
   1.57000005      -4.28755476E-10
   1.57249999      -4.65865180E-10
   1.57500005      -5.03378172E-10
   1.57749999      -5.41185485E-10
   1.58000004      -5.79172377E-10
   1.58249998      -6.17218332E-10
   1.58500004      -6.55197452E-10
   1.58749998      -6.92978619E-10
   1.59000003      -7.30425609E-10
   1.59249997      -7.67397590E-10
   1.59500003      -8.03749400E-10
   1.59749997      -8.39331715E-10
   1.60000002      -8.73991546E-10
   1.60249996      -9.07572684E-10
   1.60500002      -9.39916034E-10
   1.60749996      -9.70860170E-10
   1.61000001      -1.00024145E-09
   1.61249995      -1.02789499E-09
   1.61500001      -1.05365472E-09
   1.61749995      -1.07735443E-09
   1.62000000      -1.09882781E-09
   1.62249994      -1.11790921E-09
   1.62500000      -1.13443432E-09
   1.62750006      -1.14824039E-09
   1.63000000      -1.15916743E-09
   1.63250005      -1.16705823E-09
   1.63499999      -1.17175936E-09
   1.63750005      -1.17312149E-09
   1.63999999      -1.17100019E-09
   1.64250004      -1.16525656E-09
   1.64499998      -1.15575760E-09
   1.64750004      -1.14237730E-09
   1.64999998      -1.12499643E-09
   1.65250003      -1.10350395E-09
   1.65499997      -1.07779696E-09
   1.65750003      -1.04778175E-09
   1.65999997      -1.01337383E-09
   1.66250002      -9.74498815E-10
   1.66499996      -9.31093036E-10
   1.66750002      -8.83103146E-10
   1.66999996      -8.30487623E-10
   1.67250001      -7.73216380E-10
   1.67499995      -7.11271542E-10
   1.67750001      -6.44647669E-10
   1.67999995      -5.73351977E-10
   1.68250000      -4.97404617E-10
   1.68499994      -4.16838980E-10
   1.68750000      -3.31701749E-10
   1.69000006      -2.42053183E-10
   1.69250000      -1.47967014E-10
   1.69500005      -4.95307198E-11
   1.69749999       5.31546959E-11
   1.70000005       1.59974659E-10
   1.70249999       2.70800965E-10
   1.70500004       3.85492027E-10
   1.70749998       5.03892927E-10
   1.71000004       6.25835994E-10
   1.71249998       7.51140261E-10
   1.71500003       8.79612549E-10
   1.71749997       1.01104725E-09
   1.72000003       1.14522691E-09
   1.72249997       1.28192246E-09
   1.72500002       1.42089385E-09
   1.72749996       1.56189028E-09
   1.73000002       1.70465031E-09
   1.73249996       1.84890325E-09
   1.73500001       1.99436845E-09
   1.73749995       2.14075713E-09
   1.74000001       2.28777131E-09
   1.74249995       2.43510567E-09
   1.74500000       2.58244737E-09
   1.74749994       2.72947664E-09
   1.75000000       2.87586754E-09
   1.75250006       3.02128789E-09
   1.75500000       3.16540061E-09
   1.75750005       3.30786332E-09
   1.75999999       3.44832896E-09
   1.76250005       3.58644670E-09
   1.76499999       3.72186171E-09
   1.76750004       3.85421606E-09
   1.76999998       3.98314803E-09
   1.77250004       4.10829371E-09
   1.77499998       4.22928670E-09
   1.77750003       4.34575709E-09
   1.77999997       4.45733406E-09
   1.78250003       4.56364324E-09
   1.78499997       4.66431027E-09
   1.78750002       4.75895678E-09
   1.78999996       4.84720308E-09
   1.79250002       4.92866814E-09
   1.79499996       5.00296737E-09
   1.79750001       5.06971487E-09
   1.79999995       5.12852205E-09
   1.80250001       5.17899768E-09
   1.80499995       5.22074783E-09
   1.80750000       5.25337551E-09
   1.80999994       5.27647970E-09
   1.81250000       5.28965671E-09
   1.81500006       5.29249933E-09
   1.81750000       5.28459543E-09
   1.82000005       5.26552846E-09
   1.82249999       5.23487920E-09
   1.82500005       5.19222176E-09
   1.82749999       5.13712584E-09
   1.83000004       5.06915665E-09
   1.83249998       4.98787500E-09
   1.83500004       4.89283547E-09
   1.83749998       4.78358819E-09
   1.84000003       4.65967842E-09
   1.84249997       4.52064786E-09
   1.84500003       4.36603287E-09
   1.84749997       4.19536583E-09
   1.85000002       4.00817779E-09
   1.85249996       3.80399579E-09
   1.85500002       3.58234598E-09
   1.85749996       3.34275341E-09
   1.86000001       3.08474402E-09
   1.86249995       2.80784573E-09
   1.86500001       2.51158960E-09
   1.86749995       2.19551111E-09
   1.87000000       1.85915294E-09
   1.87249994       1.50206669E-09
   1.87500000       1.12381426E-09
   1.87750006       7.23971327E-10
   1.88000000       3.02129377E-10
   1.88250005      -1.42101400E-10
   1.88499999      -6.09089001E-10
   1.88750005      -1.09917664E-09
   1.88999999      -1.61267866E-09
   1.89250004      -2.14987761E-09
   1.89499998      -2.71102030E-09
   1.89750004      -3.29631322E-09
   1.89999998      -3.90591959E-09
   1.90250003      -4.53995241E-09
   1.90499997      -5.19847188E-09
   1.90750003      -5.88147975E-09
   1.90999997      -6.58891253E-09
   1.91250002      -7.32063965E-09
   1.91499996      -8.07645506E-09
   1.91750002      -8.85607321E-09
   1.91999996      -9.65912150E-09
   1.92250001      -1.04851354E-08
   1.92499995      -1.13335528E-08
   1.92750001      -1.22037056E-08
   1.92999995      -1.30948168E-08
   1.93250000      -1.40059901E-08
   1.93499994      -1.49362016E-08
   1.93750000      -1.58843019E-08
   1.94000006      -1.68490004E-08
   1.94250000      -1.78288602E-08
   1.94500005      -1.88222966E-08
   1.94749999      -1.98275618E-08
   1.95000005      -2.08427426E-08
   1.95249999      -2.18657554E-08
   1.95500004      -2.28943389E-08
   1.95749998      -2.39260434E-08
   1.96000004      -2.49582257E-08
   1.96249998      -2.59880490E-08
   1.96500003      -2.70124705E-08
   1.96749997      -2.80282357E-08
   1.97000003      -2.90318773E-08
   1.97249997      -3.00197058E-08
   1.97500002      -3.09878132E-08
   1.97749996      -3.19320499E-08
   1.98000002      -3.28480496E-08
   1.98249996      -3.37312045E-08
   1.98500001      -3.45766686E-08
   1.98749995      -3.53793617E-08
   1.99000001      -3.61339616E-08
   1.99249995      -3.68349085E-08
   1.99500000      -3.74764113E-08
   1.99749994      -3.80524412E-08
   2.00000000      -3.85567418E-08
   2.00250006      -3.89828152E-08
   2.00500011      -3.93239681E-08
   2.00749993      -3.95732798E-08
   2.00999999      -3.97236271E-08
   2.01250005      -3.97677020E-08
   2.01500010      -3.96980120E-08
   2.01749992      -3.95068938E-08
   2.01999998      -3.91865385E-08
   2.02250004      -3.87290058E-08
   2.02500010      -3.81262453E-08
   2.02749991      -3.73701035E-08
   2.02999997      -3.64523736E-08
   2.03250003      -3.53648026E-08
   2.03500009      -3.40991271E-08
   2.03749990      -3.26470975E-08
   2.03999996      -3.10005319E-08
   2.04250002      -2.91513249E-08
   2.04500008      -2.70915024E-08
   2.04749990      -2.48132661E-08
   2.04999995      -2.23090293E-08
   2.05250001      -1.95714662E-08
   2.05500007      -1.65935639E-08
   2.05749989      -1.33686706E-08
   2.05999994      -9.89055593E-09
   2.06250000      -6.15346751E-09
   2.06500006      -2.15218710E-09
   2.06750011       2.11789852E-09
   2.06999993       6.66074396E-09
   2.07249999       1.14795569E-08
   2.07500005       1.65767453E-08
   2.07750010       2.19538467E-08
   2.07999992       2.76114438E-08
   2.08249998       3.35490888E-08
   2.08500004       3.97652258E-08
   2.08750010       4.62571279E-08
   2.08999991       5.30207878E-08
   2.09249997       6.00508585E-08
   2.09500003       6.73405793E-08
   2.09750009       7.48816831E-08
   2.09999990       8.26643145E-08
   2.10249996       9.06769557E-08
   2.10500002       9.89063338E-08
   2.10750008       1.07337399E-07
   2.10999990       1.15953178E-07
   2.11249995       1.24734740E-07
   2.11500001       1.33661132E-07