  -10.0000000       0.00000000    
  -9.68000031       0.00000000    
  -9.35999966      -2.07212855E-24
  -9.03999996       1.44145824E-21
  -8.72000027       2.13025503E-19
  -8.39999962      -7.79347239E-18
  -8.07999992       7.50296094E-17
  -7.76000023      -5.60655078E-17
  -7.44000006      -2.77286230E-15
  -7.11999989       1.58571056E-14
  -6.80000019      -2.20262481E-14
  -6.48000002      -7.97078400E-14
  -6.15999985       2.28945579E-13
  -5.84000015       5.75390430E-13
  -5.51999998      -3.18725276E-12
  -5.19999981       2.29014268E-12
  -4.88000011       1.29382468E-11
  -4.55999994      -3.14914518E-11
  -4.23999977       8.13631194E-12
  -3.92000008       5.04365542E-11
  -3.59999990      -3.27156253E-11
  -3.27999997      -3.71837873E-11
  -2.96000004      -1.07095131E-10
  -2.64000010       2.87120550E-10
  -2.31999993       2.06088591E-10
  -2.00000000      -7.37634287E-10
  -1.67999995      -2.84305440E-10
  -1.36000001       9.39490485E-10
  -1.03999996       1.54442870E-09
 -0.720000029      -1.91847294E-09
 -0.400000006      -3.35814843E-09
  -7.99999982E-02   2.72188716E-09
  0.239999995       5.10687848E-09
  0.560000002      -6.06082351E-10
  0.879999995      -7.22837123E-09
   1.20000005      -3.94083832E-09
   1.51999998       2.60358068E-09
   1.84000003       6.59337829E-09
   2.16000009       1.61795679E-08
   2.48000002       1.36529428E-08
   2.79999995      -2.81050543E-08
   3.11999989      -5.09627007E-08
   3.44000006       2.23643450E-08
   3.75999999       1.11223372E-07
   4.07999992       7.38855022E-08
   4.40000010      -1.78545267E-08
   4.71999979      -4.49914150E-09
   5.03999996       5.94499561E-08
   5.36000013       1.13923903E-07
   5.67999983       3.21597014E-07
   6.00000000       6.83486405E-07
   6.32000017       8.03822786E-07
   6.63999987       5.70108050E-08
   6.96000004      -1.77789616E-06
   7.28000021      -4.32876823E-06
   7.59999990      -6.91210244E-06
   7.92000008      -8.71195698E-06
   8.23999977      -8.97803966E-06
   8.56000042      -6.84726092E-06
   8.88000011       2.91791423E-07
   9.19999981       1.90114824E-05
   9.52000046       6.17698533E-05
   9.84000015       1.51426852E-04
   10.1599998       3.31053685E-04
   10.4799995       6.80947443E-04
   10.8000002       1.34146400E-03
   11.1199999       2.54197931E-03
   11.4399996       4.63986536E-03
   11.7600002       8.17624293E-03
   12.0799999       1.39496615E-02
   12.3999996       2.31034234E-02
   12.7200003       3.72180641E-02
   13.0400000       5.84006757E-02
   13.3599997       8.93565267E-02
   13.6800003      0.133421749    
   14.0000000      0.194529712    
   14.3199997      0.277095705    
   14.6400003      0.385803670    
   14.9600000      0.525287688    
   15.2799997      0.699706733    
   15.6000004      0.912250936    
   15.9200001       1.16462851    
   16.2399998       1.45660746    
   16.5599995       1.78567672    
   16.8799992       2.14692259    
   17.2000008       2.53316689    
   17.5200005       2.93539262    
   17.8400002       3.34341860    
   18.1599998       3.74676132    
   18.4799995       4.13556862    
   18.7999992       4.50149870    
   19.1200008       4.83839178    
   19.4400005       5.14264774    
   19.7600002       5.41323185    
   20.0799999       5.65134907    
   20.3999996       5.85985374    
   20.7199993       6.04254150    
   21.0400009       6.20345211    
   21.3600006       6.34634066    
   21.6800003       6.47441626    
   22.0000000       6.59038877    
   22.3199997       6.69674921    
   22.6399994       6.79620504    
   22.9599991       6.89212179    
   23.2800007       6.98882246    
   23.6000004       7.09158325    
   23.9200001       7.20630312    
   24.2399998       7.33885050    
   24.5599995       7.49420357    
   24.8799992       7.67551422    
   25.2000008       7.88332605    
   25.5200005       8.11508465    
   25.8400002       8.36510086    
   26.1599998       8.62498760    
   26.4799995       8.88456726    
   26.7999992       9.13306332    
   27.1200008       9.36042309    
   27.4400005       9.55851746    
   27.7600002       9.72205639    
   28.0799999       9.84899712    
   28.3999996       9.94047070    
   28.7199993       10.0002499    
   29.0400009       10.0339479    
   29.3600006       10.0480862    
   29.6800003       10.0493031    
