  -10.0000000         1.00000002E-24
  -9.94999981         1.00000002E-24
  -9.89999962         1.00000002E-24
  -9.85000038         1.00000002E-24
  -9.80000019         1.00000012E-24
  -9.75000000         1.00000022E-24
  -9.69999981         1.00000032E-24
  -9.64999962         1.00000032E-24
  -9.60000038         1.00000022E-24
  -9.55000019        -1.43049396E-21
  -9.50000000        -1.98615839E-20
  -9.44999981        -1.35679748E-19
  -9.39999962        -5.90895178E-19
  -9.35000038        -1.73745689E-18
  -9.30000019        -3.05487189E-18
  -9.25000000         3.69519752E-19
  -9.19999981         2.52650953E-17
  -9.14999962         1.08584800E-16
  -9.10000038         3.02406406E-16
  -9.05000019         6.23838707E-16
  -9.00000000         9.21347489E-16
  -8.94999981         6.55329539E-16
  -8.89999962        -1.28982874E-15
  -8.85000038        -6.43951928E-15
  -8.80000019        -1.56947971E-14
  -8.75000000        -2.69936712E-14
  -8.69999981        -3.19329219E-14
  -8.64999962        -1.31692820E-14
  -8.60000038         5.34957210E-14
  -8.55000019         1.87111313E-13
  -8.50000000         3.76113420E-13
  -8.44999981         5.42990783E-13
  -8.39999962         5.15813412E-13
  -8.35000038         3.87051333E-14
  -8.30000019        -1.13895774E-12
  -8.25000000        -3.06921545E-12
  -8.19999981        -5.33162360E-12
  -8.14999962        -6.78527850E-12
  -8.10000038        -5.54451884E-12
  -8.05000019         5.79683654E-13
  -8.00000000         1.30061717E-11
  -7.94999981         3.07629755E-11
  -7.90000010         4.88212630E-11
  -7.84999990         5.73424121E-11
  -7.80000019         4.30468751E-11
  -7.75000000        -6.35362032E-12
  -7.69999981        -9.47321110E-11
  -7.65000010        -2.08921005E-10
  -7.59999990        -3.12624315E-10
  -7.55000019        -3.47864071E-10
  -7.50000000        -2.48383619E-10
  -7.44999981         3.38393827E-11
  -7.40000010         4.93732832E-10
  -7.34999990         1.04177755E-09
  -7.30000019         1.49335011E-09
  -7.25000000         1.59585345E-09
  -7.19999981         1.10226495E-09
  -7.15000010        -1.17422863E-10
  -7.09999990        -1.95743621E-09
  -7.05000019        -3.99958111E-09
  -7.00000000        -5.53345147E-09
  -6.94999981        -5.71095171E-09
  -6.90000010        -3.83047327E-09
  -6.84999990         3.12815301E-10
  -6.80000019         6.13028606E-09
  -6.75000000         1.21436612E-08
  -6.69999981         1.62104143E-08
  -6.65000010         1.61035203E-08
  -6.59999990         1.03421085E-08
  -6.55000019        -9.73118364E-10
  -6.50000000        -1.56556190E-08
  -6.44999981        -2.95754745E-08
  -6.40000010        -3.76046003E-08
  -6.34999990        -3.52437937E-08
  -6.30000019        -2.04955075E-08
  -6.25000000         4.68595562E-09
  -6.19999981         3.40614434E-08
  -6.15000010         5.83340096E-08
  -6.09999990         6.78739340E-08
  -6.05000019         5.62604754E-08
  -6.00000000         2.34526905E-08
  -5.94999981        -2.27527153E-08
  -5.90000010        -6.79644074E-08
  -5.84999990        -9.52840438E-08
  -5.80000019        -9.12757514E-08
  -5.75000000        -5.18790664E-08
  -5.69999981         1.40845007E-08
  -5.65000010         8.57115836E-08
  -5.59999990         1.35706102E-07
  -5.55000019         1.39708774E-07
  -5.50000000         8.63174634E-08
  -5.44999981        -1.59971556E-08
  -5.40000010        -1.38353386E-07
  -5.34999990        -2.38630946E-07
  -5.30000019        -2.74869933E-07
  -5.25000000        -2.20715748E-07
  -5.19999981        -7.72891866E-08
  -5.15000010         1.23527144E-07
  -5.09999990         3.26658153E-07
  -5.05000019         4.70498634E-07
  -5.00000000         5.07083769E-07
  -4.94999981         4.18236738E-07
  -4.90000010         2.21192394E-07
  -4.84999990        -3.88426926E-08
  -4.80000019        -3.06203447E-07
  -4.75000000        -5.34574212E-07
  -4.69999981        -6.99623797E-07
  -4.65000010        -7.97729285E-07
  -4.59999990        -8.30677095E-07
  -4.55000019        -7.84227723E-07
  -4.50000000        -6.14066266E-07
  -4.44999981        -2.52489770E-07
  -4.40000010         3.58273610E-07
  -4.34999990         1.21323637E-06
  -4.30000019         2.19318395E-06
  -4.25000000         3.04337050E-06
  -4.19999981         3.40772499E-06
  -4.15000010         2.92717164E-06
  -4.09999990         1.38430846E-06
  -4.05000019        -1.15031276E-06
  -4.00000000        -4.23103893E-06
  -3.95000005        -7.06476339E-06
  -3.90000010        -8.67937160E-06
  -3.84999990        -8.21046615E-06
  -3.79999995        -5.23156814E-06
  -3.75000000        -1.68869931E-08
  -3.70000005         6.37604853E-06
  -3.65000010         1.22758729E-05
  -3.59999990         1.58142921E-05
  -3.54999995         1.54951340E-05
  -3.50000000         1.07472088E-05
  -3.45000005         2.26760289E-06
  -3.40000010        -7.99727695E-06
  -3.34999990        -1.72835898E-05
  -3.29999995        -2.27697583E-05
  -3.25000000        -2.24538544E-05
  -3.20000005        -1.58708117E-05
  -3.15000010        -4.39304404E-06
  -3.09999990         9.02856391E-06
  -3.04999995         2.06508648E-05
  -3.00000000         2.70381643E-05
  -2.95000005         2.61383193E-05
  -2.90000010         1.79813251E-05
  -2.84999990         4.75089792E-06
  -2.79999995        -9.82331676E-06
  -2.75000000        -2.15791260E-05
  -2.70000005        -2.71905010E-05
  -2.65000010        -2.51794499E-05
  -2.59999990        -1.63382938E-05
  -2.54999995        -3.42666931E-06
  -2.50000000         9.74564773E-06
  -2.45000005         1.95301891E-05
  -2.40000010         2.35315929E-05
  -2.34999990         2.12209452E-05
  -2.29999995         1.38955365E-05
  -2.25000000         4.05212313E-06
  -2.20000005        -5.55135011E-06
  -2.15000010        -1.27763560E-05
  -2.09999990        -1.66113350E-05
  -2.04999995        -1.71673419E-05
  -2.00000000        -1.52464036E-05
  -1.95000005        -1.17426307E-05
  -1.89999998        -7.18850333E-06
  -1.85000002        -1.66578491E-06
  -1.79999995         4.89577224E-06
  -1.75000000         1.22186675E-05
  -1.70000005         1.92872649E-05
  -1.64999998         2.43495542E-05
  -1.60000002         2.54163369E-05
  -1.54999995         2.11085935E-05
  -1.50000000         1.14883114E-05
  -1.45000005        -1.55761700E-06
  -1.39999998        -1.46743423E-05
  -1.35000002        -2.41277376E-05
  -1.29999995        -2.72647048E-05
  -1.25000000        -2.37433833E-05
  -1.20000005        -1.59285300E-05
  -1.14999998        -8.12243070E-06
  -1.10000002        -4.77426693E-06
  -1.04999995        -8.30000135E-06
  -1.00000000        -1.74352026E-05
 -0.949999988        -2.69748416E-05
 -0.899999976        -2.92992700E-05
 -0.850000024        -1.73796507E-05
 -0.800000012         1.17393356E-05
 -0.750000000         5.43705246E-05
 -0.699999988         9.97937168E-05
 -0.649999976         1.32641377E-04
 -0.600000024         1.37644078E-04
 -0.550000012         1.05317893E-04
 -0.500000000         3.65856395E-05
 -0.449999988        -5.55676816E-05
 -0.400000006        -1.48455889E-04
 -0.349999994        -2.15768625E-04
 -0.300000012        -2.35670581E-04
 -0.250000000        -1.98313268E-04
 -0.200000003        -1.10098757E-04
 -0.150000006         7.05506727E-06
 -0.100000001         1.21587364E-04
  -5.00000007E-02     2.01667004E-04
   0.00000000         2.25116950E-04
   5.00000007E-02     1.86599660E-04
  0.100000001         9.95682130E-05
  0.150000006        -7.81507970E-06
  0.200000003        -1.01561745E-04
  0.250000000        -1.52663590E-04
  0.300000012        -1.46263963E-04
  0.349999994        -8.61776352E-05
  0.400000006         6.67823315E-06
  0.449999988         1.01320460E-04
  0.500000000         1.66768092E-04
  0.550000012         1.81768497E-04
  0.600000024         1.41048498E-04
  0.649999976         5.62517525E-05
  0.699999988        -4.84250231E-05
  0.750000000        -1.44153586E-04
  0.800000012        -2.06191966E-04
  0.850000024        -2.20632937E-04
  0.899999976        -1.87338665E-04
  0.949999988        -1.18646203E-04
   1.00000000        -3.48060312E-05
   1.04999995         4.20365504E-05
   1.10000002         9.34050695E-05
   1.14999998         1.08234039E-04
   1.20000005         8.42799418E-05
   1.25000000         2.74606155E-05
   1.29999995        -5.02126495E-05
   1.35000002        -1.33453344E-04
   1.39999998        -2.06854034E-04
   1.45000005        -2.58164102E-04
   1.50000000        -2.81430897E-04
   1.54999995        -2.79440981E-04
   1.60000002        -2.64550647E-04
   1.64999998        -2.56937288E-04
   1.70000005        -2.79791100E-04
   1.75000000        -3.52009491E-04
   1.79999995        -4.80235583E-04
   1.85000002        -6.53035706E-04
   1.89999998        -8.40068096E-04
   1.95000005        -9.97950905E-04
   2.00000000        -1.08236342E-03
   2.04999995        -1.06339203E-03
   2.09999990        -9.39224672E-04
   2.15000010        -7.42921489E-04
   2.20000005        -5.38575405E-04
   2.25000000        -4.06424340E-04
   2.29999995        -4.20399912E-04
   2.34999990        -6.24763838E-04
   2.40000010        -1.01761636E-03
   2.45000005        -1.54749793E-03
   2.50000000        -2.12535704E-03
   2.54999995        -2.64907698E-03
   2.59999990        -3.03330063E-03
   2.65000010        -3.23514780E-03
   2.70000005        -3.26745538E-03
   2.75000000        -3.19516147E-03
   2.79999995        -3.11604957E-03
   2.84999990        -3.13226157E-03
   2.90000010        -3.32193216E-03
   2.95000005        -3.71990353E-03
   3.00000000        -4.31296555E-03
   3.04999995        -5.04978793E-03
   3.09999990        -5.86068397E-03
   3.15000010        -6.67946320E-03
   3.20000005        -7.45987706E-03
   3.25000000        -8.18223506E-03
   3.29999995        -8.85030348E-03
   3.34999990        -9.48253274E-03
   3.40000010        -1.01034259E-02
   3.45000005        -1.07397120E-02
   3.50000000        -1.14225997E-02
   3.54999995        -1.21933809E-02
   3.59999990        -1.31070605E-02
   3.65000010        -1.42288143E-02
   3.70000005        -1.56211816E-02
   3.75000000        -1.73246358E-02
   3.79999995        -1.93385910E-02
   3.84999990        -2.16115955E-02
   3.90000010        -2.40475219E-02
   3.95000005        -2.65291054E-02
   4.00000000        -2.89533194E-02
   4.05000019        -3.12674716E-02
   4.09999990        -3.34930532E-02
   4.15000010        -3.57275642E-02
   4.19999981        -3.81217226E-02
   4.25000000        -4.08385172E-02
   4.30000019        -4.40075062E-02
   4.34999990        -4.76903468E-02
   4.40000010        -5.18699251E-02
   4.44999981        -5.64672314E-02
   4.50000000        -6.13799393E-02
   4.55000019        -6.65283948E-02
   4.59999990        -7.18920007E-02
   4.65000010        -7.75223598E-02
   4.69999981        -8.35285187E-02
   4.75000000        -9.00402740E-02
   4.80000019        -9.71639082E-02
   4.84999990       -0.104947761    
   4.90000010       -0.113371268    
   4.94999981       -0.122361794    
   5.00000000       -0.131833106    
   5.05000019       -0.141730562    
   5.09999990       -0.152066156    
   5.15000010       -0.162930056    
   5.19999981       -0.174474478    
   5.25000000       -0.186876684    
   5.30000019       -0.200294971    
   5.34999990       -0.214833722    
   5.40000010       -0.230529681    
   5.44999981       -0.247362658    
   5.50000000       -0.265284330    
   5.55000019       -0.284253329    
   5.59999990       -0.304263175    
   5.65000010       -0.325354069    
   5.69999981       -0.347607285    
   5.75000000       -0.371129036    
   5.80000019       -0.396032304    
   5.84999990       -0.422426343    
   5.90000010       -0.450416535    
   5.94999981       -0.480111927    
   6.00000000       -0.511632383    
   6.05000019       -0.545107424    
   6.09999990       -0.580663383    
   6.15000010       -0.618402600    
   6.19999981       -0.658383131    
   6.25000000       -0.700612485    
   6.30000019       -0.745061100    
   6.34999990       -0.791697204    
   6.40000010       -0.840532064    
   6.44999981       -0.891658783    
   6.50000000       -0.945269108    
   6.55000019        -1.00163746    
   6.59999990        -1.06107521    
   6.65000010        -1.12386930    
   6.69999981        -1.19022655    
   6.75000000        -1.26024640    
   6.80000019        -1.33393109    
   6.84999990        -1.41123164    
   6.90000010        -1.49211240    
   6.94999981        -1.57661092    
   7.00000000        -1.66486800    
   7.05000019        -1.75712025    
   7.09999990        -1.85365522    
   7.15000010        -1.95475268    
   7.19999981        -2.06063294    
   7.25000000        -2.17143488    
   7.30000019        -2.28723288    
   7.34999990        -2.40808177    
   7.40000010        -2.53407335    
   7.44999981        -2.66536999    
   7.50000000        -2.80221057    
   7.55000019        -2.94487476    
   7.59999990        -3.09362721    
   7.65000010        -3.24866295    
   7.69999981        -3.41008258    
   7.75000000        -3.57791114    
   7.80000019        -3.75215316    
   7.84999990        -3.93286586    
   7.90000010        -4.12021732    
   7.94999981        -4.31450129    
   8.00000000        -4.51609850    
   8.05000019        -4.72540140    
   8.10000038        -4.94272566    
   8.14999962        -5.16824389    
   8.19999981        -5.40198135    
   8.25000000        -5.64386654    
   8.30000019        -5.89382458    
   8.35000038        -6.15188169    
   8.39999962        -6.41822386    
   8.44999981        -6.69319153    
   8.50000000        -6.97721338    
   8.55000019        -7.27068806    
   8.60000038        -7.57388067    
   8.64999962        -7.88686132    
   8.69999981        -8.20952702    
   8.75000000        -8.54169750    
   8.80000019        -8.88324261    
   8.85000038        -9.23420429    
   8.89999962        -9.59484577    
   8.94999981        -9.96561050    
   9.00000000        -10.3470068    
   9.05000019        -10.7394457    
   9.10000038        -11.1431160    
   9.14999962        -11.5579300    
   9.19999981        -11.9835815    
   9.25000000        -12.4196863    
   9.30000019        -12.8659630    
   9.35000038        -13.3223696    
   9.39999962        -13.7891617    
   9.44999981        -14.2668171    
   9.50000000        -14.7558870    
   9.55000019        -15.2567930    
   9.60000038        -15.7696915    
   9.64999962        -16.2944164    
   9.69999981        -16.8305588    
   9.75000000        -17.3776283    
   9.80000019        -17.9352646    
   9.85000038        -18.5033665    
   9.89999962        -19.0821362    
   9.94999981        -19.6719952    
   10.0000000        -20.2734070    
   10.0500002        -20.8866806    
   10.1000004        -21.5118275    
   10.1499996        -22.1485443    
   10.1999998        -22.7962990    
   10.2500000        -23.4545212    
   10.3000002        -24.1227894    
   10.3500004        -24.8009682    
   10.3999996        -25.4892101    
   10.4499998        -26.1878548    
   10.5000000        -26.8972530    
   10.5500002        -27.6175804    
   10.6000004        -28.3487358    
   10.6499996        -29.0903530    
   10.6999998        -29.8419018    
   10.7500000        -30.6028652    
   10.8000002        -31.3728848    
   10.8500004        -32.1518402    
   10.8999996        -32.9398270    
   10.9499998        -33.7370148    
   11.0000000        -34.5435104    
   11.0500002        -35.3592300    
   11.1000004        -36.1838455    
   11.1499996        -37.0168839    
   11.1999998        -37.8578300    
   11.2500000        -38.7062912    
   11.3000002        -39.5620766    
   11.3500004        -40.4251976    
   11.3999996        -41.2957687    
   11.4499998        -42.1738472    
   11.5000000        -43.0593185    
   11.5500002        -43.9518509    
   11.6000004        -44.8509254    
   11.6499996        -45.7559853    
   11.6999998        -46.6665916    
   11.7500000        -47.5825005    
   11.8000002        -48.5036926    
   11.8500004        -49.4302750    
   11.8999996        -50.3623085    
   11.9499998        -51.2996521    
   12.0000000        -52.2418938    
   12.0500002        -53.1884155    
   12.1000004        -54.1385117    
   12.1499996        -55.0916214    
   12.1999998        -56.0474625    
   12.2500000        -57.0060921    
   12.3000002        -57.9677963    
   12.3500004        -58.9328842    
   12.3999996        -59.9014359    
   12.4499998        -60.8731537    
   12.5000000        -61.8473473    
   12.5500002        -62.8230705    
   12.6000004        -63.7994118    
   12.6499996        -64.7757568    
   12.6999998        -65.7519608    
   12.7500000        -66.7282944    
   12.8000002        -67.7052536    
   12.8500004        -68.6832809    
   12.8999996        -69.6623688    
   12.9499998        -70.6419754    
   13.0000000        -71.6210556    
   13.0500002        -72.5983429    
   13.1000004        -73.5727005    
   13.1499996        -74.5434647    
   13.1999998        -75.5106354    
   13.2500000        -76.4747467    
   13.3000002        -77.4365387    
   13.3500004        -78.3965607    
   13.3999996        -79.3547592    
   13.4499998        -80.3103714    
   13.5000000        -81.2620163    
   13.5500002        -82.2080307    
   13.6000004        -83.1469574    
   13.6499996        -84.0779419    
   13.6999998        -85.0008698    
   13.7500000        -85.9162140    
   13.8000002        -86.8246994    
   13.8500004        -87.7267761    
   13.8999996        -88.6222458    
   13.9499998        -89.5101395    
   14.0000000        -90.3888474    
   14.0500002        -91.2565613    
   14.1000004        -92.1116867    
   14.1499996        -92.9532623    
   14.1999998        -93.7810287    
   14.2500000        -94.5952530    
   14.3000002        -95.3963242    
   14.3500004        -96.1842804    
   14.3999996        -96.9584808    
   14.4499998        -97.7175064    
   14.5000000        -98.4594345    
   14.5500002        -99.1821899    
   14.6000004        -99.8840332    
   14.6499996        -100.563843    
   14.6999998        -101.221184    
   14.7500000        -101.856003    
   14.8000002        -102.468262    
   14.8500004        -103.057510    
   14.8999996        -103.622612    
   14.9499998        -104.161812    
   15.0000000        -104.672951    
   15.0500002        -105.153854    
   15.1000004        -105.602745    
   15.1499996        -106.018372    
   15.1999998        -106.399979    
   15.2500000        -106.746956    
   15.3000002        -107.058578    
   15.3500004        -107.333618    
   15.3999996        -107.570320    
   15.4499998        -107.766487    
   15.5000000        -107.919830    
   15.5500002        -108.028297    
   15.6000004        -108.090286    
   15.6499996        -108.104645    
   15.6999998        -108.070511    
   15.7500000        -107.986923    
   15.8000002        -107.852539    
   15.8500004        -107.665497    
   15.8999996        -107.423477    
   15.9499998        -107.124016    
   16.0000000        -106.764862    
   16.0499992        -106.344223    
   16.1000004        -105.860886    
   16.1499996        -105.314003    
   16.2000008        -104.702759    
   16.2500000        -104.026016    
   16.2999992        -103.282043    
   16.3500004        -102.468597    
   16.3999996        -101.583115    
   16.4500008        -100.623245    
   16.5000000        -99.5871582    
   16.5499992        -98.4737778    
   16.6000004        -97.2826843    
   16.6499996        -96.0137634    
   16.7000008        -94.6666946    
   16.7500000        -93.2405777    
   16.7999992        -91.7337875    
   16.8500004        -90.1441879    
   16.8999996        -88.4695206    
   16.9500008        -86.7079926    
   17.0000000        -84.8586884    
   17.0499992        -82.9216461    
   17.1000004        -80.8976440    
   17.1499996        -78.7876434    
   17.2000008        -76.5922623    
   17.2500000        -74.3113480    
   17.2999992        -71.9439468    
   17.3500004        -69.4886475    
   17.3999996        -66.9441376    
   17.4500008        -64.3098068    
   17.5000000        -61.5861740    
   17.5499992        -58.7748756    
   17.6000004        -55.8782616    
   17.6499996        -52.8987961    
   17.7000008        -49.8384171    
   17.7500000        -46.6981697    
   17.7999992        -43.4782715    
   17.8500004        -40.1785355    
   17.8999996        -36.7990379    
   17.9500008        -33.3407593    
   18.0000000        -29.8059044    
   18.0499992        -26.1978550    
   18.1000004        -22.5206738    
   18.1499996        -18.7784424    
   18.2000008        -14.9746418    
   18.2500000        -11.1118555    
   18.2999992        -7.19187069    
   18.3500004        -3.21616650    
   18.3999996        0.813428938    
   18.4500008         4.89417982    
   18.5000000         9.02219296    
   18.5499992         13.1925793    
   18.6000004         17.3999596    
   18.6499996         21.6390858    
   18.7000008         25.9053516    
   18.7500000         30.1949768    
   18.7999992         34.5048103    
   18.8500004         38.8318329    
   18.8999996         43.1725998    
   18.9500008         47.5228043    
   19.0000000         51.8771896    
   19.0499992         56.2298088    
   19.1000004         60.5745430    
   19.1499996         64.9055939    
   19.2000008         69.2178650    
   19.2500000         73.5070038    
   19.2999992         77.7691040    
   19.3500004         82.0002365    
   19.3999996         86.1960297    
   19.4500008         90.3514252    
   19.5000000         94.4607849    
   19.5499992         98.5182266    
   19.6000004         102.518051    
   19.6499996         106.455162    
   19.7000008         110.325127    
   19.7500000         114.124062    
   19.7999992         117.848236    
   19.8500004         121.493645    
   19.8999996         125.055771    
   19.9500008         128.529587    
   20.0000000         131.909897    
   20.0499992         135.191696    
   20.1000004         138.370712    
   20.1499996         141.443527    
   20.2000008         144.407501    
   20.2500000         147.260391    
   20.2999992         149.999832    
   20.3500004         152.622986    
   20.3999996         155.126450    
   20.4500008         157.506424    
   20.5000000         159.759201    
   20.5499992         161.881653    
   20.6000004         163.871689    
   20.6499996         165.728210    
   20.7000008         167.450867    
   20.7500000         169.039536    
   20.7999992         170.493744    
   20.8500004         171.812454    
   20.8999996         172.993958    
   20.9500008         174.036392    
   21.0000000         174.938232    
   21.0499992         175.698868    
   21.1000004         176.318832    
   21.1499996         176.799774    
   21.2000008         177.143875    
   21.2500000         177.353363    
   21.2999992         177.429825    
   21.3500004         177.374100    
   21.3999996         177.186295    
   21.4500008         176.866486    
   21.5000000         176.415222    
   21.5499992         175.834183    
   21.6000004         175.126251    
   21.6499996         174.295395    
   21.7000008         173.346008    
   21.7500000         172.282242    
   21.7999992         171.107513    
   21.8500004         169.824310    
   21.8999996         168.434402    
   21.9500008         166.939438    
   22.0000000         165.341644    
   22.0499992         163.644241    
   22.1000004         161.851608    
   22.1499996         159.968979    
   22.2000008         158.001862    
   22.2500000         155.955399    
   22.2999992         153.833878    
   22.3500004         151.640686    
   22.3999996         149.378555    
   22.4500008         147.050110    
   22.5000000         144.658401    
   22.5499992         142.207413    
   22.6000004         139.701981    
   22.6499996         137.147537    
   22.7000008         134.549622    
   22.7500000         131.913315    
   22.7999992         129.242874    
   22.8500004         126.541779    
   22.8999996         123.812973    
   22.9500008         121.059288    
   23.0000000         118.283958    
   23.0499992         115.490723    
   23.1000004         112.683907    
   23.1499996         109.868095    
   23.2000008         107.047760    
   23.2500000         104.226875    
   23.2999992         101.408783    
   23.3500004         98.5962677    
   23.3999996         95.7917938    
   23.4500008         92.9978333    
   23.5000000         90.2170944    
   23.5499992         87.4526215    
   23.6000004         84.7076263    
   23.6499996         81.9852982    
   23.7000008         79.2885437    
   23.7500000         76.6198502    
   23.7999992         73.9812775    
   23.8500004         71.3745880    
   23.8999996         68.8015060    
   23.9500008         66.2638092    
   24.0000000         63.7633781    
   24.0499992         61.3021317    
   24.1000004         58.8818283    
   24.1499996         56.5039101    
   24.2000008         54.1694565    
   24.2500000         51.8792496    
   24.2999992         49.6339531    
   24.3500004         47.4343338    
   24.3999996         45.2813759    
   24.4500008         43.1762810    
   24.5000000         41.1202507    
   24.5499992         39.1142693    
   24.6000004         37.1588364    
   24.6499996         35.2539024    
   24.7000008         33.3989410    
   24.7500000         31.5932541    
   24.7999992         29.8362923    
   24.8500004         28.1279240    
   24.8999996         26.4685135    
   24.9500008         24.8587570    
   25.0000000         23.2993298    
   25.0499992         21.7905025    
   25.1000004         20.3318710    
   25.1499996         18.9223061    
   25.2000008         17.5601902    
   25.2500000         16.2438354    
   25.2999992         14.9719229    
   25.3500004         13.7438078    
   25.3999996         12.5595407    
   25.4500008         11.4195910    
   25.5000000         10.3243933    
   25.5499992         9.27386284    
   25.6000004         8.26709843    
   25.6499996         7.30237579    
   25.7000008         6.37745428    
   25.7500000         5.49007416    
   25.7999992         4.63846540    
   25.8500004         3.82166243    
   25.8999996         3.03951526    
   25.9500008         2.29238439    
   26.0000000         1.58064473    
   26.0499992        0.904187500    
   26.1000004        0.262109995    
   26.1499996       -0.347291023    
   26.2000008       -0.926227272    
   26.2500000        -1.47694159    
   26.2999992        -2.00123835    
   26.3500004        -2.50019050    
   26.3999996        -2.97413349    
   26.4500008        -3.42293215    
   26.5000000        -3.84640956    
   26.5499992        -4.24476290    
   26.6000004        -4.61881399    
   26.6499996        -4.96999931    
   26.7000008        -5.30011702    
   26.7500000        -5.61095190    
   26.7999992        -5.90391064    
   26.8500004        -6.17982006    
   26.8999996        -6.43895721    
   26.9500008        -6.68126869    
   27.0000000        -6.90670300    
   27.0499992        -7.11550713    
   27.1000004        -7.30837917    
   27.1499996        -7.48643112    
   27.2000008        -7.65099335    
   27.2500000        -7.80334711    
   27.2999992        -7.94449806    
   27.3500004        -8.07506657    
   27.3999996        -8.19534016    
   27.4500008        -8.30542850    
   27.5000000        -8.40546417    
   27.5499992        -8.49575520    
   27.6000004        -8.57682705    
   27.6499996        -8.64936543    
   27.7000008        -8.71409130    
   27.7500000        -8.77162838    
   27.7999992        -8.82242966    
   27.8500004        -8.86679459    
   27.8999996        -8.90494347    
   27.9500008        -8.93711948    
   28.0000000        -8.96366215    
   28.0499992        -8.98500729    
   28.1000004        -9.00163460    
   28.1499996        -9.01397038    
   28.2000008        -9.02231121    
   28.2500000        -9.02681541    
   28.2999992        -9.02754593    
   28.3500004        -9.02458477    
   28.3999996        -9.01812077    
   28.4500008        -9.00850105    
   28.5000000        -8.99620438    
   28.5499992        -8.98172569    
   28.6000004        -8.96545029    
   28.6499996        -8.94754314    
   28.7000008        -8.92793083    
   28.7500000        -8.90637970    
   28.7999992        -8.88264656    
   28.8500004        -8.85663700    
   28.8999996        -8.82851505    
   28.9500008        -8.79870415    
   29.0000000        -8.76777554    
   29.0499992        -8.73627472    
   29.1000004        -8.70454311    
   29.1499996        -8.67261219    
   29.2000008        -8.64023018    
   29.2500000        -8.60699177    
   29.2999992        -8.57254410    
   29.3500004        -8.53675747    
   29.3999996        -8.49982071    
   29.4500008        -8.46219635    
   29.5000000        -8.42446709    
   29.5499992        -8.38711834    
   29.6000004        -8.35036373    
   29.6499996        -8.31406689    
   29.7000008        -8.27780819    
   29.7500000        -8.24106598    
   29.7999992        -8.20343971    
   29.8500004        -8.16482735    
   29.8999996        -8.12548828    
   29.9500008        -8.08596420    
   30.0000000        -8.04688168    
   30.0499992        -8.00871754    
   30.1000004        -7.97162056    
   30.1499996        -7.93535185    
   30.2000008        -7.89937592    
   30.2500000        -7.86306095    
   30.2999992        -7.82591772    
   30.3500004        -7.78778982    
   30.3999996        -7.74891615    
   30.4500008        -7.70985222    