  -9.37500000       1.00000002E-24
  -9.26500034       1.00000022E-24
  -9.15499973       1.00000012E-24
  -9.04500008       1.00000002E-24
  -8.93500042       1.00000012E-24
  -8.82499981       1.00000041E-24
  -8.71500015       1.00000032E-24
  -8.60499954       1.00000002E-24
  -8.49499989       9.99999921E-25
  -8.38500023       1.00055804E-24
  -8.27499962       1.00668167E-24
  -8.16499996       9.83799183E-25
  -8.05500031       9.28451815E-25
  -7.94500017       1.01313761E-24
  -7.83500004       1.55914216E-24
  -7.72499990       2.91935570E-24
  -7.61499977      -2.58527862E-24
  -7.50500011      -2.69889731E-23
  -7.39499998       5.42109198E-24
  -7.28499985       2.06549937E-22
  -7.17500019       8.66091839E-23
  -7.06500006      -1.06338854E-21
  -6.95499992      -7.23139982E-22
  -6.84499979       4.86408494E-21
  -6.73500013       4.46768650E-21
  -6.62500000      -2.08592898E-20
  -6.51499987      -2.85370138E-20
  -6.40500021       7.31501471E-20
  -6.29500008       1.60515445E-19
  -6.18499994      -1.58960500E-19
  -6.07499981      -6.79326679E-19
  -5.96500015      -2.49868613E-20
  -5.85500002       2.03033136E-18
  -5.74499989       1.73666011E-18
  -5.63500023      -3.92770749E-18
  -5.52500010      -7.48190158E-18
  -5.41499996       3.11697888E-18
  -5.30499983       1.87236650E-17
  -5.19500017       7.77995295E-18
  -5.08500004      -3.05042670E-17
  -4.97499990      -3.51626174E-17
  -4.86499977       3.03195940E-17
  -4.75500011       7.61504060E-17
  -4.64499998      -8.95504242E-18
  -4.53499985      -1.26642133E-16
  -4.42500019      -3.85468085E-17
  -4.31500006       2.03832430E-16
  -4.20499992       1.64135398E-16
  -4.09499979      -3.00391817E-16
  -3.98499990      -5.09928710E-16
  -3.87500000       2.06607324E-16
  -3.76500010       1.11928744E-15
  -3.65499997       5.58223511E-16
  -3.54500008      -1.49064098E-15
  -3.43499994      -2.25485655E-15
  -3.32500005       4.95345556E-16
  -3.21499991       4.06788716E-15
  -3.10500002       2.70607206E-15
  -2.99499989      -4.00559213E-15
  -2.88499999      -7.40944019E-15
  -2.77500010       2.36274464E-17
  -2.66499996       1.10095869E-14
  -2.55500007       8.60633162E-15
  -2.44499993      -9.31529058E-15
  -2.33500004      -1.96867618E-14
  -2.22499990      -2.24763242E-15
  -2.11500001       2.56856931E-14
  -2.00500011       2.35436772E-14
  -1.89499998      -1.53522621E-14
  -1.78499997      -4.28776040E-14
  -1.67499995      -1.50411079E-14
  -1.56500006       4.08232340E-14
  -1.45500004       5.09346492E-14
  -1.34500003      -7.54241674E-15
  -1.23500001      -6.58509163E-14
  -1.12500000      -4.48867255E-14
  -1.01499999       3.91092662E-14
 -0.904999971       8.42609335E-14
 -0.795000017       2.68831300E-14
 -0.685000002      -7.12208748E-14
 -0.574999988      -8.96951174E-14
 -0.465000004      -1.27884849E-16
 -0.354999989       8.96977195E-14
 -0.245000005       6.86733724E-14
 -0.135000005      -3.17203742E-14
  -2.50000004E-02  -7.87699306E-14
   8.50000009E-02  -1.79664955E-14
  0.194999993       5.96824836E-14
  0.305000007       5.31369992E-14
  0.414999992      -1.78288679E-14
  0.524999976      -6.87547011E-14
  0.634999990      -7.20523494E-14
  0.745000005      -4.52302448E-14
  0.855000019       2.75058280E-14
  0.964999974       1.51631691E-13
   1.07500005       2.22205257E-13
   1.18499994       1.00877423E-13
   1.29499996      -1.67290267E-13
   1.40499997      -3.26485556E-13
   1.51499999      -1.95667498E-13
   1.62500000       6.57104444E-14
   1.73500001       1.00878155E-13
   1.84500003      -1.73440133E-13
   1.95500004      -3.26851149E-13
   2.06500006       1.45524380E-13
   2.17499995       1.04558669E-12
   2.28500009       1.39191545E-12
   2.39499998       5.02938620E-13
   2.50500011      -9.40507871E-13
   2.61500001      -1.52617502E-12
   2.72499990      -9.95621120E-13
   2.83500004      -7.57323457E-13
   2.94499993      -1.88184169E-12
   3.05500007      -3.22812263E-12
   3.16499996      -2.65464994E-12
   3.27500010       2.26000222E-13
   3.38499999       3.97090087E-12
   3.49499989       8.21320182E-12
   3.60500002       1.49586663E-11
   3.71499991       2.58859722E-11
   3.82500005       3.97478855E-11
   3.93499994       5.44293152E-11
   4.04500008       7.12366138E-11
   4.15500021       9.51213136E-11
   4.26499987       1.30119970E-10
   4.37500000       1.76324413E-10
   4.48500013       2.32838082E-10
   4.59499979       3.03053249E-10
   4.70499992       3.95493860E-10
   4.81500006       5.19306986E-10
   4.92500019       6.80334067E-10
   5.03499985       8.83017437E-10
   5.14499998       1.13625220E-09
   5.25500011       1.45635470E-09
   5.36499977       1.86371540E-09
   5.47499990       2.37769848E-09
   5.58500004       3.01686454E-09
   5.69500017       3.80480891E-09
   5.80499983       4.77454920E-09
   5.91499996       5.96672711E-09
   6.02500010       7.42562856E-09
   6.13500023       9.19929111E-09
   6.24499989       1.13430527E-08
   6.35500002       1.39211149E-08
   6.46500015       1.70052470E-08
   6.57499981       2.06749000E-08
   6.68499994       2.50194443E-08
   6.79500008       3.01374783E-08
   6.90500021       3.61319508E-08
   7.01499987       4.31077538E-08
   7.12500000       5.11762970E-08
   7.23500013       6.04595769E-08
   7.34499979       7.10842372E-08
   7.45499992       8.31697449E-08
   7.56500006       9.68243796E-08
   7.67500019       1.12150197E-07
   7.78499985       1.29243205E-07
   7.89499998       1.48181684E-07
   8.00500011       1.69014001E-07
   8.11499977       1.91757564E-07
   8.22500038       2.16399329E-07
   8.33500004       2.42887182E-07
   8.44499969       2.71117841E-07
   8.55500031       3.00932300E-07
   8.66499996       3.32114865E-07
   8.77499962       3.64385983E-07
   8.88500023       3.97396008E-07
   8.99499989       4.30729870E-07
   9.10499954       4.63911022E-07
   9.21500015       4.96392431E-07
   9.32499981       5.27551549E-07
   9.43500042       5.56710006E-07
   9.54500008       5.83158624E-07
   9.65499973       6.06157357E-07
   9.76500034       6.24925804E-07
   9.87500000       6.38666052E-07
   9.98499966       6.46607702E-07
   10.0950003       6.48028220E-07
   10.2049999       6.42249233E-07
   10.3149996       6.28655755E-07
   10.4250002       6.06741423E-07
   10.5349998       5.76131072E-07
   10.6450005       5.36577375E-07
   10.7550001       4.87979548E-07
   10.8649998       4.30428997E-07
   10.9750004       3.64222359E-07
   11.0850000       2.89833253E-07
   11.1949997       2.07905927E-07
   11.3050003       1.19287421E-07
   11.4150000       2.50311221E-08
   11.5249996      -7.36522097E-08
   11.6350002      -1.75426678E-07
   11.7449999      -2.78818959E-07
   11.8549995      -3.82233623E-07
   11.9650002      -4.84028305E-07
   12.0749998      -5.82571147E-07
   12.1850004      -6.76237391E-07
   12.2950001      -7.63423373E-07
   12.4049997      -8.42625127E-07
   12.5150003      -9.12502060E-07
   12.6250000      -9.71870577E-07
   12.7349997      -1.01970500E-06
   12.8450003      -1.05520451E-06
   12.9549999      -1.07784876E-06
   13.0649996      -1.08737254E-06
   13.1750002      -1.08372808E-06
   13.2849998      -1.06711786E-06
   13.3950005      -1.03802915E-06
   13.5050001      -9.97189545E-07
   13.6149998      -9.45504837E-07
   13.7250004      -8.84060853E-07
   13.8350000      -8.14135205E-07
   13.9449997      -7.37138407E-07
   14.0550003      -6.54534347E-07
   14.1650000      -5.67823861E-07
   14.2749996      -4.78547747E-07
   14.3850002      -3.88234838E-07
   14.4949999      -2.98331884E-07
   14.6049995      -2.10187409E-07
   14.7150002      -1.25060652E-07
   14.8249998      -4.40871482E-08
   14.9350004       3.17706110E-08
   15.0450001       1.01725938E-07
   15.1549997       1.65146645E-07
   15.2650003       2.21563667E-07
   15.3750000       2.70689497E-07
   15.4849997       3.12402733E-07
   15.5950003       3.46720384E-07
   15.7049999       3.73794364E-07
   15.8149996       3.93910284E-07
   15.9250002       4.07459169E-07
   16.0349998       4.14905060E-07
   16.1450005       4.16774725E-07
   16.2549992       4.13647115E-07
   16.3649998       4.06127469E-07
   16.4750004       3.94827026E-07
   16.5849991       3.80357989E-07
   16.6949997       3.63317952E-07
   16.8050003       3.44265658E-07
   16.9150009       3.23716193E-07
   17.0249996       3.02148493E-07
   17.1350002       2.79993060E-07
   17.2450008       2.57611191E-07
   17.3549995       2.35303062E-07
   17.4650002       2.13327240E-07
   17.5750008       1.91891331E-07
   17.6849995       1.71131987E-07
   17.7950001       1.51129527E-07
   17.9050007       1.31936119E-07
   18.0149994       1.13568198E-07
   18.1250000       9.59846247E-08
   18.2350006       7.91022288E-08
   18.3449993       6.28288319E-08
   18.4549999       4.70602259E-08
   18.5650005       3.16584874E-08
   18.6749992       1.64635345E-08
   18.7849998       1.32158051E-09
   18.8950005      -1.39195739E-08
   19.0049992      -2.94299980E-08
   19.1149998      -4.53826026E-08
   19.2250004      -6.19227265E-08
   19.3349991      -7.91736667E-08
   19.4449997      -9.72600276E-08
   19.5550003      -1.16297102E-07
   19.6650009      -1.36358892E-07
   19.7749996      -1.57477828E-07
   19.8850002      -1.79667339E-07
   19.9950008      -2.02916539E-07
   20.1049995      -2.27162488E-07
   20.2150002      -2.52288004E-07
   20.3250008      -2.78142835E-07
   20.4349995      -3.04542709E-07
   20.5450001      -3.31245218E-07
   20.6550007      -3.57947016E-07
   20.7649994      -3.84308407E-07
   20.8750000      -4.09965565E-07
   20.9850006      -4.34518000E-07
   21.0949993      -4.57522646E-07
   21.2049999      -4.78514494E-07
   21.3150005      -4.97026008E-07
   21.4249992      -5.12586439E-07
   21.5349998      -5.24724157E-07
   21.6450005      -5.32989134E-07
   21.7549992      -5.36976643E-07
   21.8649998      -5.36331640E-07
   21.9750004      -5.30747457E-07
   22.0849991      -5.19982905E-07
   22.1949997      -5.03886156E-07
   22.3050003      -4.82398036E-07
   22.4150009      -4.55543869E-07
   22.5249996      -4.23444078E-07
   22.6350002      -3.86334762E-07
   22.7450008      -3.44563716E-07
   22.8549995      -2.98563236E-07
   22.9650002      -2.48842241E-07
   23.0750008      -1.96003427E-07
   23.1849995      -1.40740255E-07
   23.2950001      -8.37958538E-08
   23.4050007      -2.59337227E-08
   23.5149994       3.20526716E-08
   23.6250000       8.93396859E-08
   23.7350006       1.45111215E-07
   23.8449993       1.98600745E-07
   23.9549999       2.49096104E-07
   24.0650005       2.95928515E-07
   24.1749992       3.38492299E-07
   24.2849998       3.76281662E-07
   24.3950005       4.08898813E-07
   24.5049992       4.36043308E-07
   24.6149998       4.57510282E-07
   24.7250004       4.73205432E-07
   24.8349991       4.83155191E-07
   24.9449997       4.87493764E-07
   25.0550003       4.86442502E-07
   25.1650009       4.80301082E-07
   25.2749996       4.69448509E-07
   25.3850002       4.54338561E-07
   25.4950008       4.35476352E-07
   25.6049995       4.13392712E-07
   25.7150002       3.88639705E-07
   25.8250008       3.61792786E-07
   25.9349995       3.33430023E-07
   26.0450001       3.04099103E-07
   26.1550007       2.74310622E-07
   26.2649994       2.44554002E-07
   26.3750000       2.15289944E-07
   26.4850006       1.86915770E-07
   26.5949993       1.59756908E-07
   26.7049999       1.34094520E-07
   26.8150005       1.10173751E-07
   26.9249992       8.81755966E-08
   27.0349998       6.82049190E-08
   27.1450005       5.03212441E-08
   27.2549992       3.45572353E-08
   27.3649998       2.08978630E-08
   27.4750004       9.26962951E-09
   27.5849991      -4.28968611E-10
   27.6949997      -8.30331270E-09
   27.8050003      -1.44779309E-08
   27.9150009      -1.91109564E-08
   28.0249996      -2.23727010E-08
   28.1350002      -2.44204603E-08
   28.2450008      -2.54059422E-08
   28.3549995      -2.54908077E-08
   28.4650002      -2.48365719E-08
   28.5750008      -2.35858053E-08
   28.6849995      -2.18636131E-08
   28.7950001      -1.97872811E-08
   28.9050007      -1.74664265E-08
   29.0149994      -1.49977009E-08
   29.1250000      -1.24618280E-08
   29.2350006      -9.92285631E-09
   29.3449993      -7.43159800E-09
   29.4549999      -5.03385911E-09
   29.5650005      -2.77270096E-09
   29.6749992      -6.78428702E-10
   29.7849998       1.23673360E-09
   29.8950005       2.96665048E-09
   30.0049992       4.49994042E-09
   30.1149998       5.82800341E-09
   30.2250004       6.95588342E-09
   30.3349991       7.89557753E-09
   30.4449997       8.65501804E-09
   30.5550003       9.24224608E-09
   30.6650009       9.67350200E-09
   30.7749996       9.96783633E-09
   30.8850002       1.01385949E-08
   30.9950008       1.01976232E-08
   31.1049995       1.01633608E-08
   31.2150002       1.00581534E-08
   31.3250008       9.90110838E-09
   31.4349995       9.70820402E-09
   31.5450001       9.49551993E-09
   31.6550007       9.27812138E-09
   31.7649994       9.06777586E-09
   31.8750000       8.87312979E-09
   31.9850006       8.69979733E-09
   32.0950012       8.55068283E-09
   32.2050018       8.42908143E-09
   32.3149986       8.33966673E-09
   32.4249992       8.28289703E-09
   32.5349998       8.25123880E-09
   32.6450005       8.23516366E-09
   32.7550011       8.22983370E-09
   32.8650017       8.23126101E-09
   32.9749985       8.22966495E-09
   33.0849991       8.21324075E-09
   33.1949997       8.17667267E-09
   33.3050003       8.12001222E-09
   33.4150009       8.04024669E-09
   33.5250015       7.93008770E-09
   33.6349983       7.78594167E-09
   33.7449989       7.61214647E-09
   33.8549995       7.41530970E-09
   33.9650002       7.19818649E-09
   34.0750008       6.96212155E-09
   34.1850014       6.71248834E-09
   34.2949982       6.45679332E-09
   34.4049988       6.19849194E-09
   34.5149994       5.93861227E-09
   34.6250000       5.68393688E-09
   34.7350006       5.44617729E-09
   34.8450012       5.23006527E-09
   34.9550018       5.02992714E-09
   35.0649986       4.84278218E-09
   35.1749992       4.67649786E-09
   35.2849998       4.53773996E-09
   35.3950005       4.41993775E-09
   35.5050011       4.31300107E-09
   35.6150017       4.21864366E-09
   35.7249985       4.14529788E-09
   35.8349991       4.09269418E-09
   35.9449997       4.05283984E-09
   36.0550003       4.02328082E-09
   36.1650009       4.00841449E-09
   36.2750015       4.00897715E-09
   36.3849983       4.01985156E-09
   36.4949989       4.03777412E-09
   36.6049995       4.06287404E-09
   36.7150002       4.09254852E-09
   36.8250008       4.12094581E-09
   36.9350014       4.14512469E-09
   37.0449982       4.16582679E-09
   37.1549988       4.18059098E-09
   37.2649994       4.18037427E-09
   37.3750000       4.15562651E-09
   37.4850006       4.10386658E-09
   37.5950012       4.02792910E-09
   37.7050018       3.92598620E-09
   37.8149986       3.78772080E-09
   37.9249992       3.60577146E-09
   38.0349998       3.38821549E-09
   38.1450005       3.15089421E-09
   38.2550011       2.89779378E-09
   38.3650017       2.62049515E-09
   38.4749985       2.31982056E-09
   38.5849991       2.01491002E-09
   38.6949997       1.72386305E-09
   38.8050003       1.44747436E-09
   38.9150009       1.18191912E-09
   39.0250015       9.37175004E-10
   39.1349983       7.30601191E-10
   39.2449989       5.68768477E-10
   39.3549995       4.47339304E-10
   39.4650002       3.64966418E-10
   39.5750008       3.26310923E-10
   39.6850014       3.32222194E-10
   39.7949982       3.75635772E-10
   39.9049988       4.48421578E-10
   40.0149994       5.46581280E-10
   40.1250000       6.66511346E-10
   40.2350006       7.99672661E-10
   40.3450012       9.35116540E-10
   40.4550018       1.06785225E-09
   40.5649986       1.20047527E-09
   40.6749992       1.33244549E-09
   40.7849998       1.45182233E-09
   40.8950005       1.54563184E-09
   41.0050011       1.61589009E-09
   41.1150017       1.67410064E-09
   41.2249985       1.72011783E-09
   41.3349991       1.74045200E-09
   41.4449997       1.73080394E-09
   41.5550003       1.70517822E-09
   41.6650009       1.67510539E-09
   41.7750015       1.63324632E-09
   41.8849983       1.56759172E-09
   41.9949989       1.48074997E-09
   42.1049995       1.38346234E-09
   42.2150002       1.27702560E-09
   42.3250008       1.15443377E-09
   42.4350014       1.01493536E-09
   42.5449982       8.66759498E-10
   42.6549988       7.16448123E-10
   42.7649994       5.63955660E-10
   42.8750000       4.09554807E-10
   42.9850006       2.59463728E-10
   43.0950012       1.21210111E-10
   43.2050018      -3.34899491E-12
   43.3149986      -1.15201598E-10
   43.4249992      -2.08324968E-10
   43.5349998      -2.69224781E-10
   43.6450005      -2.90588914E-10
   43.7550011      -2.79118006E-10
   43.8650017      -2.42219106E-10
   43.9749985      -1.73070280E-10
   44.0849991      -6.08373560E-11
   44.1949997       8.77527218E-11
   44.3050003       2.51613175E-10
   44.4150009       4.20337903E-10
   44.5250015       6.01247219E-10
   44.6349983       7.97912569E-10
   44.7449989       9.95595162E-10
   44.8549995       1.17520060E-09
   44.9650002       1.33139844E-09
   45.0750008       1.46849088E-09
   45.1850014       1.58475055E-09
   45.2949982       1.66961334E-09
   45.4049988       1.71524206E-09
   45.5149994       1.72485515E-09
   45.6250000       1.70711023E-09
   45.7350006       1.66469505E-09
   45.8450012       1.59352076E-09
   45.9550018       1.49458301E-09
   46.0649986       1.37957024E-09
   46.1749992       1.25846888E-09
   46.2849998       1.12854193E-09
   46.3950005       9.85374893E-10
   46.5050011       8.37872882E-10
   46.6150017       6.98294589E-10
   46.7249985       5.62637492E-10
   46.8349991       4.17910678E-10
   46.9449997       2.66260486E-10
   47.0550003       1.23366525E-10
   47.1650009      -7.26696221E-12
   47.2750015      -1.39625381E-10
   47.3849983      -2.81869444E-10
   47.4949989      -4.24955821E-10
   47.6049995      -5.59323143E-10
   47.7150002      -6.88023805E-10
   47.8250008      -8.17044155E-10
   47.9350014      -9.43337630E-10
   48.0449982      -1.05752063E-09
   48.1549988      -1.15144516E-09
   48.2649994      -1.22124999E-09
   48.3750000      -1.26800748E-09
   48.4850006      -1.29408151E-09
   48.5950012      -1.29525402E-09
   48.7050018      -1.26191324E-09
   48.8149986      -1.19235744E-09
   48.9249992      -1.09662335E-09
   49.0349998      -9.81865589E-10
   49.1450005      -8.44752712E-10
   49.2550011      -6.85599244E-10
   49.3650017      -5.18013410E-10
   49.4749985      -3.55056234E-10
   49.5849991      -1.97288810E-10
   49.6949997      -4.48111791E-11
   49.8050003       9.01517402E-11
   49.9150009       1.94207359E-10
   50.0250015       2.66554973E-10
   50.1349983       3.10560799E-10
   50.2449989       3.20778931E-10
   50.3549995       2.90368202E-10
   50.4650002       2.24459229E-10
   50.5750008       1.34782421E-10
   50.6850014       2.59159898E-11
   50.7949982      -1.03407116E-10
   50.9049988      -2.49116922E-10
   51.0149994      -4.00368516E-10
   51.1250000      -5.46937939E-10
   51.2350006      -6.82031653E-10
   51.3450012      -8.00157551E-10
   51.4550018      -8.97093955E-10
   51.5649986      -9.70117653E-10
   51.6749992      -1.01545206E-09
   51.7849998      -1.02853859E-09
   51.8950005      -1.00925435E-09
   52.0050011      -9.62816271E-10
   52.1150017      -8.92482144E-10
   52.2249985      -7.95913224E-10
   52.3349991      -6.73193778E-10
   52.4449997      -5.34130906E-10
   52.5550003      -3.91065513E-10
   52.6650009      -2.46831749E-10
   52.7750015      -9.72216960E-11
   52.8849983       5.54956567E-11
   52.9949989       2.00222186E-10
   53.1049995       3.29758248E-10
   53.2150002       4.46782999E-10
   53.3250008       5.52956125E-10
   53.4350014       6.40826114E-10
   53.5449982       7.03329450E-10
   53.6549988       7.44093342E-10
   53.7649994       7.70272235E-10
   53.8750000       7.80736475E-10
   53.9850006       7.69492914E-10
   54.0950012       7.36324057E-10
   54.2050018       6.86372292E-10
   54.3149986       6.22983665E-10
   54.4249992       5.47612899E-10
   54.5349998       4.63223931E-10
   54.6450005       3.72723907E-10
   54.7550011       2.78163825E-10
   54.8650017       1.84451482E-10
   54.9749985       9.78031406E-11
   55.0849991       1.91207727E-11
   55.1949997      -5.23536874E-11
   55.3050003      -1.08421064E-10
   55.4150009      -1.37290498E-10
   55.5250015      -1.40537068E-10
   55.6349983      -1.29551744E-10
   55.7449989      -1.03262898E-10
   55.8549995      -4.77434342E-11
   55.9650002       3.79179604E-11
   56.0750008       1.36027314E-10
   56.1850014       2.37720565E-10
   56.2949982       3.54291124E-10
   56.4049988       4.90252838E-10
   56.5149994       6.26168339E-10
   56.6250000       7.43044848E-10
   56.7350006       8.45835901E-10
   56.8450012       9.46070000E-10
   56.9550018       1.03577724E-09
   57.0649986       1.09674181E-09
   57.1749992       1.12616338E-09
   57.2849998       1.13631549E-09
   57.3950005       1.13349741E-09
   57.5050011       1.11110277E-09
   57.6150017       1.06270059E-09
   57.7249985       9.92736338E-10
   57.8349991       9.12602105E-10
   57.9449997       8.29614544E-10
   58.0550003       7.41568418E-10
   58.1650009       6.43593401E-10
   58.2750015       5.39762346E-10
   58.3849983       4.41811476E-10
   58.4949989       3.53927498E-10
   58.6049995       2.67428441E-10
   58.7150002       1.76041626E-10
   58.8250008       8.64468497E-11
   58.9350014       4.93604376E-12
   59.0449982      -7.61789659E-11
   59.1549988      -1.66717626E-10
   59.2649994      -2.61538707E-10
   59.3750000      -3.49286572E-10
   59.4850006      -4.32134106E-10
   59.5950012      -5.21298837E-10
   59.7050018      -6.15457463E-10
   59.8149986      -6.99283798E-10
   59.9249992      -7.65055408E-10
   60.0349998      -8.21655854E-10
   60.1450005      -8.76478612E-10
   60.2550011      -9.19190335E-10
   60.3650017      -9.32507294E-10
   60.4749985      -9.13529363E-10
   60.5849991      -8.74456951E-10
   60.6949997      -8.22990620E-10
   60.8050003      -7.52083729E-10
   60.9150009      -6.53723575E-10
   61.0250015      -5.35211542E-10
   61.1349983      -4.13100887E-10
   61.2449989      -2.94406721E-10
   61.3549995      -1.73613526E-10
   61.4650002      -4.84024522E-11
   61.5750008       7.12395559E-11
   61.6850014       1.72869344E-10
   61.7949982       2.53192106E-10
   61.9049988       3.15391158E-10
   62.0149994       3.60030145E-10
   62.1250000       3.83635734E-10
   62.2350006       3.84338728E-10
   62.3450012       3.65469710E-10
   62.4550018       3.33394784E-10
   62.5649986       2.92697172E-10
   62.6749992       2.44352150E-10
   62.7849998       1.89622956E-10
   62.8950005       1.33782374E-10
   63.0050011       8.18855886E-11
   63.1150017       3.22523987E-11
   63.2249985      -1.95518463E-11
   63.3349991      -7.08920145E-11
   63.4449997      -1.14567911E-10
   63.5550003      -1.51868795E-10
   63.6650009      -1.93286803E-10
   63.7750015      -2.43478987E-10
   63.8849983      -2.95704988E-10
   63.9949989      -3.45726336E-10
   64.1050034      -4.01236516E-10
   64.2149963      -4.70699590E-10
   64.3249969      -5.50445023E-10
   64.4349976      -6.29886476E-10
   64.5449982      -7.04286407E-10
   64.6549988      -7.76088915E-10
   64.7649994      -8.46499426E-10
   64.8750000      -9.09998521E-10
   64.9850006      -9.56359769E-10
   65.0950012      -9.77700476E-10
   65.2050018      -9.74798131E-10
   65.3150024      -9.53935819E-10
   65.4250031      -9.15367726E-10
   65.5350037      -8.50652826E-10
   65.6449966      -7.56406049E-10
   65.7549973      -6.43465059E-10
   65.8649979      -5.24140342E-10
   65.9749985      -3.97497590E-10
   66.0849991      -2.58669447E-10
   66.1949997      -1.17080415E-10
   66.3050003       8.86807641E-12
   66.4150009       1.13200505E-10
   66.5250015       2.03914607E-10
   66.6350021       2.82410373E-10
   66.7450027       3.36253192E-10
   66.8550034       3.57517460E-10
   66.9649963       3.55495189E-10
   67.0749969       3.42500112E-10
   67.1849976       3.16487142E-10
   67.2949982       2.68947614E-10
   67.4049988       2.04785355E-10
   67.5149994       1.41534076E-10
   67.6250000       8.86506979E-11
   67.7350006       3.93312258E-11
   67.8450012      -1.29026017E-11
   67.9550018      -5.98696440E-11
   68.0650024      -8.94253005E-11
   68.1750031      -1.03626364E-10
   68.2850037      -1.15435564E-10
   68.3949966      -1.30036412E-10
   68.5049973      -1.40605555E-10
   68.6149979      -1.43738701E-10
   68.7249985      -1.48851556E-10
   68.8349991      -1.67411723E-10
   68.9449997      -1.99502886E-10
   69.0550003      -2.37084685E-10
   69.1650009      -2.77314033E-10
   69.2750015      -3.26319249E-10
   69.3850021      -3.88718446E-10
   69.4950027      -4.57673066E-10
   69.6050034      -5.19840726E-10
   69.7149963      -5.69440106E-10
   69.8249969      -6.10924700E-10
   69.9349976      -6.44648557E-10
   70.0449982      -6.57810917E-10
   70.1549988      -6.38001874E-10
   70.2649994      -5.89266469E-10
   70.3750000      -5.22688670E-10
   70.4850006      -4.35749409E-10
   70.5950012      -3.16720539E-10
   70.7050018      -1.68357286E-10
   70.8150024      -9.74008981E-12
   70.9250031       1.48126580E-10
   71.0350037       3.11165593E-10
   71.1449966       4.81006401E-10
   71.2549973       6.41630693E-10
   71.3649979       7.76481435E-10
   71.4749985       8.85452656E-10
   71.5849991       9.74461845E-10
   71.6949997       1.03866848E-09
   71.8050003       1.06711018E-09
   71.9150009       1.05754172E-09
   72.0250015       1.01744591E-09
   72.1350021       9.53919055E-10
   72.2450027       8.69077088E-10
   72.3550034       7.63728303E-10
   72.4649963       6.42164988E-10
   72.5749969       5.13724729E-10
   72.6849976       3.88596266E-10
   72.7949982       2.70190148E-10
   72.9049988       1.55262317E-10
   73.0149994       4.49509249E-11
   73.1250000      -5.02850955E-11
   73.2350006      -1.22779550E-10
   73.3450012      -1.78121129E-10
   73.4550018      -2.25087574E-10
   73.5650024      -2.61292127E-10
   73.6750031      -2.79405526E-10
   73.7850037      -2.83048723E-10
   73.8949966      -2.84526736E-10
   74.0049973      -2.88603363E-10
   74.1149979      -2.89790886E-10
   74.2249985      -2.85578783E-10
   74.3349991      -2.81722673E-10
   74.4449997      -2.82449120E-10
   74.5550003      -2.84168217E-10
   74.6650009      -2.82103452E-10
   74.7750015      -2.76428547E-10
   74.8850021      -2.67851269E-10
   74.9950027      -2.51752869E-10
   75.1050034      -2.21229784E-10
   75.2149963      -1.73919046E-10
   75.3249969      -1.12019422E-10
   75.4349976      -3.61275593E-11
   75.5449982       5.73354385E-11
   75.6549988       1.71262296E-10
   75.7649994       3.03077202E-10
   75.8750000       4.47341636E-10
   75.9850006       6.01566297E-10
   76.0950012       7.65976893E-10
   76.2050018       9.37439237E-10
   76.3150024       1.10677911E-09
   76.4250031       1.26350475E-09
   76.5350037       1.40169654E-09
   76.6449966       1.52035040E-09
   76.7549973       1.61850078E-09
   76.8649979       1.69046155E-09
   76.9749985       1.72705694E-09
   77.0849991       1.72339221E-09
   77.1949997       1.68390690E-09
   77.3050003       1.61561531E-09
   77.4150009       1.51770840E-09
   77.5250015       1.38471978E-09
   77.6350021       1.22005550E-09
   77.7450027       1.03719433E-09
   77.8550034       8.44842751E-10
   77.9649963       6.40970332E-10
   78.0749969       4.26696400E-10
   78.1849976       2.16027099E-10
   78.2949982       2.41108834E-11
   78.4049988      -1.45933460E-10
   78.5149994      -2.96498298E-10
   78.6250000      -4.23540203E-10
   78.7350006      -5.20108290E-10
   78.8450012      -5.85708648E-10
   78.9550018      -6.23346319E-10
   79.0650024      -6.31819153E-10
   79.1750031      -6.08755379E-10
   79.2850037      -5.57802804E-10
   79.3949966      -4.86651885E-10
   79.5049973      -4.01162048E-10
   79.6149979      -3.05754339E-10
   79.7249985      -2.05736678E-10
   79.8349991      -1.06004462E-10
   79.9449997      -1.13454654E-11
   80.0550003       7.10083450E-11
   80.1650009       1.34758621E-10
   80.2750015       1.80219339E-10
   80.3850021       2.09358406E-10
   80.4950027       2.16735296E-10
   80.6050034       1.95579664E-10
   80.7149963       1.51731627E-10
   80.8249969       9.87769658E-11
   80.9349976       3.89080504E-11
   81.0449982      -3.71146378E-11
   81.1549988      -1.28795891E-10
   81.2649994      -2.20058013E-10
   81.3750000      -2.99193781E-10
   81.4850006      -3.69715397E-10
   81.5950012      -4.34605879E-10
   81.7050018      -4.83817042E-10
   81.8150024      -5.06575837E-10
   81.9250031      -5.05132047E-10
   82.0350037      -4.87093865E-10
   82.1449966      -4.52640175E-10
   82.2549973      -3.97796962E-10
   82.3649979      -3.24194366E-10
   82.4749985      -2.38858794E-10
   82.5849991      -1.48799445E-10
   82.6949997      -5.98352479E-11
   82.8050003       2.32804071E-11
   82.9150009       9.71614039E-11
   83.0250015       1.56239646E-10
   83.1350021       1.90602603E-10
   83.2450027       1.93273536E-10
   83.3550034       1.66193712E-10
   83.4649963       1.11253770E-10
   83.5749969       2.07409246E-11
   83.6849976      -1.12194080E-10
   83.7949982      -2.78639861E-10
   83.9049988      -4.62959476E-10
   84.0149994      -6.62269739E-10
   84.1250000      -8.81244688E-10
   84.2350006      -1.11080878E-09
   84.3450012      -1.33010236E-09
   84.4550018      -1.52919011E-09
   84.5650024      -1.71108805E-09
   84.6750031      -1.86922566E-09
   84.7850037      -1.98208605E-09