 -0.300000012       0.00000000    
 -0.298000008       0.00000000    
 -0.296000004       0.00000000    
 -0.294000000       0.00000000    
 -0.291999996       0.00000000    
 -0.289999992       0.00000000    
 -0.287999988      -1.72343996E-28
 -0.286000013      -2.21453652E-27
 -0.284000009      -1.50639014E-26
 -0.282000005      -7.17406932E-26
 -0.280000001      -2.67117720E-25
 -0.277999997      -8.23649129E-25
 -0.275999993      -2.17574720E-24
 -0.273999989      -5.02775607E-24
 -0.272000015      -1.02898985E-23
 -0.270000011      -1.87551586E-23
 -0.268000007      -3.03941607E-23
 -0.266000003      -4.32717564E-23
 -0.263999999      -5.23647888E-23
 -0.261999995      -4.89547262E-23
 -0.259999990      -2.16407155E-23
 -0.257999986       3.98957599E-23
 -0.256000012       1.37775188E-22
 -0.254000008       2.56264482E-22
 -0.252000004       3.52667046E-22
 -0.250000000       3.54476503E-22
 -0.247999996       1.70383479E-22
 -0.246000007      -2.77769007E-22
 -0.244000003      -9.99521855E-22
 -0.241999999      -1.86383765E-21
 -0.239999995      -2.53157435E-21
 -0.238000005      -2.42850918E-21
 -0.236000001      -8.05594197E-22
 -0.233999997       3.06880211E-21
 -0.231999993       9.56222161E-21
 -0.230000004       1.82019947E-20
 -0.228000000       2.71651121E-20
 -0.225999996       3.29105148E-20
 -0.224000007       3.01979957E-20
 -0.222000003       1.27593853E-20
 -0.219999999      -2.51728379E-20
 -0.217999995      -8.64438766E-20
 -0.216000006      -1.67909793E-19
 -0.214000002      -2.57339559E-19
 -0.211999997      -3.31276969E-19
 -0.209999993      -3.55122311E-19
 -0.208000004      -2.86718869E-19
 -0.206000000      -8.43743483E-20
 -0.203999996       2.80572374E-19
 -0.202000007       8.07794756E-19
 -0.200000003       1.45135735E-18
 -0.197999999       2.10671818E-18
 -0.195999995       2.60676354E-18
 -0.194000006       2.73245860E-18
 -0.192000002       2.24245810E-18
 -0.189999998       9.23088689E-19
 -0.187999994      -1.34446721E-18
 -0.186000004      -4.50870137E-18
 -0.184000000      -8.27884212E-18
 -0.181999996      -1.20819878E-17
 -0.180000007      -1.50676871E-17
 -0.178000003      -1.61788157E-17
 -0.175999999      -1.42997128E-17
 -0.173999995      -8.47898344E-18
 -0.172000006       1.79341277E-18
 -0.170000002       1.62949965E-17
 -0.167999998       3.38235211E-17
 -0.165999994       5.20629893E-17
 -0.164000005       6.76324508E-17
 -0.162000000       7.63722492E-17
 -0.159999996       7.38916471E-17
 -0.158000007       5.63553784E-17
 -0.156000003       2.14311942E-17
 -0.153999999      -3.07369331E-17
 -0.151999995      -9.67122433E-17
 -0.150000006      -1.69312397E-16
 -0.148000002      -2.37718897E-16
 -0.145999998      -2.88297034E-16
 -0.143999994      -3.06183114E-16
 -0.142000005      -2.77567085E-16
 -0.140000001      -1.92451365E-16
 -0.137999997      -4.75198751E-17
 -0.136000007       1.51363239E-16
 -0.134000003       3.87563393E-16
 -0.131999999       6.33504835E-16
 -0.129999995       8.52306892E-16
 -0.128000006       1.00139411E-15
 -0.126000002       1.03794782E-15
 -0.123999998       9.25723684E-16
 -0.122000001       6.42426315E-16
 -0.119999997       1.86564076E-16
 -0.118000001      -4.17433507E-16
 -0.115999997      -1.11702025E-15
 -0.114000000      -1.83320990E-15
 -0.112000003      -2.46664083E-15
 -0.109999999      -2.90795262E-15
 -0.108000003      -3.05170576E-15
 -0.105999999      -2.81239778E-15
 -0.104000002      -2.14055263E-15
 -0.101999998      -1.03651803E-15
 -0.100000001       4.40434130E-16
  -9.79999974E-02   2.16978099E-15
  -9.60000008E-02   3.97558895E-15
  -9.39999968E-02   5.64091798E-15
  -9.20000002E-02   6.93001065E-15
  -9.00000036E-02   7.61626276E-15
  -8.79999995E-02   7.51289340E-15
  -8.60000029E-02   6.50249194E-15
  -8.39999989E-02   4.56132113E-15
  -8.20000023E-02   1.77453307E-15
  -7.99999982E-02  -1.66070762E-15
  -7.80000016E-02  -5.44583697E-15
  -7.59999976E-02  -9.20520086E-15
  -7.40000010E-02  -1.25221853E-14
  -7.19999969E-02  -1.49835707E-14
  -7.00000003E-02  -1.62271845E-14
  -6.80000037E-02  -1.59871506E-14
  -6.59999996E-02  -1.41310159E-14
  -6.40000030E-02  -1.06837756E-14
  -6.19999990E-02  -5.83524513E-15
  -5.99999987E-02   7.07739636E-17
  -5.79999983E-02   6.56486575E-15
  -5.60000017E-02   1.30949947E-14
  -5.40000014E-02   1.90793477E-14
  -5.20000011E-02   2.39629703E-14
  -5.00000007E-02   2.72716657E-14
  -4.80000004E-02   2.86569949E-14
  -4.60000001E-02   2.79274928E-14
  -4.39999998E-02   2.50629561E-14
  -4.19999994E-02   2.02109871E-14
  -3.99999991E-02   1.36671993E-14
  -3.79999988E-02   5.84252622E-15
  -3.59999985E-02  -2.77747567E-15
  -3.40000018E-02  -1.16757435E-14
  -3.20000015E-02  -2.03438154E-14
  -2.99999993E-02  -2.83143937E-14
  -2.80000009E-02  -3.51834481E-14
  -2.60000005E-02  -4.06208135E-14
  -2.40000002E-02  -4.43702082E-14
  -2.19999999E-02  -4.62413650E-14
  -1.99999996E-02  -4.60980605E-14
  -1.79999992E-02  -4.38463556E-14
  -1.60000008E-02  -3.94269984E-14
  -1.40000004E-02  -3.28149915E-14
  -1.20000001E-02  -2.40276989E-14
  -9.99999978E-03  -1.31410877E-14
  -8.00000038E-03  -3.11875837E-16
  -6.00000005E-03   1.41980586E-14
  -4.00000019E-03   2.99996776E-14
  -2.00000009E-03   4.65619263E-14
   0.00000000       6.32082480E-14
   2.00000009E-03   7.91275614E-14
   4.00000019E-03   9.34008865E-14
   6.00000005E-03   1.05043070E-13
   8.00000038E-03   1.13057059E-13
   9.99999978E-03   1.16496602E-13
   1.20000001E-02   1.14532597E-13
   1.40000004E-02   1.06517185E-13
   1.60000008E-02   9.20412631E-14
   1.79999992E-02   7.09806630E-14
   1.99999996E-02   4.35288402E-14
   2.19999999E-02   1.02144186E-14
   2.40000002E-02  -2.80960473E-14
   2.60000005E-02  -7.02089889E-14
   2.80000009E-02  -1.14626719E-13
   2.99999993E-02  -1.59580790E-13
   3.20000015E-02  -2.03074469E-13
   3.40000018E-02  -2.42934579E-13
   3.59999985E-02  -2.76873142E-13
   3.79999988E-02  -3.02561145E-13
   3.99999991E-02  -3.17715933E-13
   4.19999994E-02  -3.20204177E-13
   4.39999998E-02  -3.08160778E-13
   4.60000001E-02  -2.80122334E-13
   4.80000004E-02  -2.35169956E-13
   5.00000007E-02  -1.73073903E-13
   5.20000011E-02  -9.44290964E-14
   5.40000014E-02  -7.67350176E-16
   5.60000017E-02   1.05369279E-13
   5.79999983E-02   2.20409194E-13
   5.99999987E-02   3.39800996E-13
   6.19999990E-02   4.58141012E-13
   6.40000030E-02   5.69384329E-13
   6.59999996E-02   6.67136322E-13
   6.80000037E-02   7.45013534E-13
   7.00000003E-02   7.97053124E-13
   7.19999969E-02   8.18146549E-13
   7.40000010E-02   8.04460394E-13
   7.59999976E-02   7.53809287E-13
   7.80000016E-02   6.65942236E-13
   7.99999982E-02   5.42707535E-13
   8.20000023E-02   3.88069026E-13
   8.39999989E-02   2.07955994E-13
   8.60000029E-02   9.94322490E-15
   8.79999995E-02  -1.97228762E-13
   9.00000036E-02  -4.04265027E-13
   9.20000002E-02  -6.02018435E-13
   9.39999968E-02  -7.82228123E-13
   9.60000008E-02  -9.38230830E-13
   9.79999974E-02  -1.06557818E-12
  0.100000001      -1.16249274E-12
  0.101999998      -1.23010597E-12
  0.104000002      -1.27243160E-12
  0.105999999      -1.29604552E-12
  0.108000003      -1.30946827E-12
  0.109999999      -1.32226749E-12
  0.112000003      -1.34392204E-12
  0.114000000      -1.38251747E-12
  0.115999997      -1.44335596E-12
  0.118000001      -1.52758231E-12
  0.119999997      -1.63093508E-12
  0.122000001      -1.74273508E-12
  0.123999998      -1.84521083E-12
  0.126000002      -1.91324842E-12
  0.128000006      -1.91464054E-12
  0.129999995      -1.81085930E-12
  0.131999999      -1.55837181E-12
  0.134000003      -1.11046220E-12
  0.136000007      -4.19508043E-13
  0.137999997       5.60392065E-13
  0.140000001       1.87055232E-12
  0.142000005       3.54473612E-12
  0.143999994       5.60625808E-12
  0.145999998       8.06531578E-12
  0.148000002       1.09166946E-11
  0.150000006       1.41380154E-11
  0.151999995       1.76886561E-11
  0.153999999       2.15094418E-11
  0.156000003       2.55232103E-11
  0.158000007       2.96362691E-11
  0.159999996       3.37407983E-11
  0.162000000       3.77181446E-11
  0.164000005       4.14429983E-11
  0.165999994       4.47883293E-11
  0.167999998       4.76310137E-11
  0.170000002       4.98579997E-11
  0.172000006       5.13728504E-11
  0.173999995       5.21024959E-11
  0.175999999       5.20040018E-11
  0.178000003       5.10711681E-11
  0.180000007       4.93406496E-11
  0.181999996       4.68974755E-11
  0.184000000       4.38795771E-11
  0.186000004       4.04811913E-11
  0.187999994       3.69547726E-11
  0.189999998       3.36111902E-11
  0.192000002       3.08179454E-11
  0.194000006       2.89952107E-11
  0.195999995       2.86094100E-11
  0.197999999       3.01643224E-11
  0.200000003       3.41895401E-11
  0.202000007       4.12263383E-11
  0.203999996       5.18111283E-11
  0.206000000       6.64565555E-11
  0.208000004       8.56307872E-11
  0.209999993       1.09735214E-10
  0.211999997       1.39081316E-10
  0.214000002       1.73867046E-10
  0.216000006       2.14153681E-10
  0.217999995       2.59843536E-10
  0.219999999       3.10659304E-10
  0.222000003       3.66125796E-10
  0.224000007       4.25554370E-10
  0.225999996       4.88030338E-10
  0.228000000       5.52403956E-10
  0.230000004       6.17285056E-10
  0.231999993       6.81040557E-10
  0.233999997       7.41795847E-10
  0.236000001       7.97438726E-10
  0.238000005       8.45625681E-10
  0.239999995       8.83790430E-10
  0.241999999       9.09154307E-10
  0.244000003       9.18737086E-10
  0.246000007       9.09369413E-10
  0.247999996       8.77705852E-10
  0.250000000       8.20238821E-10
  0.252000004       7.33313910E-10
  0.254000008       6.13146478E-10
  0.256000012       4.55841836E-10
  0.257999986       2.57418559E-10
  0.259999990       1.38362915E-11
  0.261999995      -2.78968709E-10
  0.263999999      -6.25040797E-10
  0.266000003      -1.02835107E-09
  0.268000007      -1.49273238E-09
  0.270000011      -2.02180050E-09
  0.272000015      -2.61885802E-09
  0.273999989      -3.28678307E-09
  0.275999993      -4.02789579E-09
  0.277999997      -4.84380713E-09
  0.280000001      -5.73524073E-09
  0.282000005      -6.70184086E-09
  0.284000009      -7.74194842E-09
  0.286000013      -8.85236418E-09
  0.287999988      -1.00280797E-08
  0.289999992      -1.12620047E-08
  0.291999996      -1.25446622E-08
  0.294000000      -1.38638834E-08
  0.296000004      -1.52044972E-08
  0.298000008      -1.65480003E-08
  0.300000012      -1.78722654E-08
  0.301999986      -1.91512388E-08
  0.303999990      -2.03546655E-08
  0.305999994      -2.14478764E-08
  0.307999998      -2.23915926E-08
  0.310000002      -2.31418120E-08
  0.312000006      -2.36497701E-08
  0.314000010      -2.38619986E-08
  0.316000015      -2.37204798E-08
  0.317999989      -2.31629489E-08
  0.319999993      -2.21233289E-08
  0.321999997      -2.05323314E-08
  0.324000001      -1.83182394E-08
  0.326000005      -1.54078759E-08
  0.328000009      -1.17277974E-08
  0.330000013      -7.20570936E-09
  0.331999987      -1.77210602E-09
  0.333999991       4.63783456E-09
  0.335999995       1.20821175E-08
  0.338000000       2.06095461E-08
  0.340000004       3.02570839E-08
  0.342000008       4.10470129E-08
  0.344000012       5.29838182E-08
  0.345999986       6.60509656E-08
  0.347999990       8.02074283E-08
  0.349999994       9.53841095E-08
  0.351999998       1.11480240E-07
  0.354000002       1.28359673E-07
  0.356000006       1.45847224E-07
  0.358000010       1.63725247E-07
  0.360000014       1.81730130E-07
  0.361999989       1.99549348E-07
  0.363999993       2.16818719E-07
  0.365999997       2.33120147E-07
  0.368000001       2.47980097E-07
  0.370000005       2.60868489E-07
  0.372000009       2.71198729E-07
  0.374000013       2.78328400E-07
  0.375999987       2.81561256E-07
  0.377999991       2.80150175E-07
  0.379999995       2.73301538E-07
  0.381999999       2.60181025E-07
  0.384000003       2.39920809E-07
  0.386000007       2.11628404E-07
  0.388000011       1.74397229E-07
  0.389999986       1.27318785E-07
  0.391999990       6.94965010E-08
  0.393999994       6.15624843E-11
  0.395999998      -8.18096737E-08
  0.398000002      -1.76876782E-07
  0.400000006      -2.85814480E-07
  0.402000010      -4.09190676E-07
  0.404000014      -5.47443051E-07
  0.405999988      -7.00854798E-07
  0.407999992      -8.69529401E-07
  0.409999996      -1.05336505E-06
  0.412000000      -1.25202871E-06
  0.414000005      -1.46493107E-06
  0.416000009      -1.69120085E-06
  0.418000013      -1.92966172E-06
  0.419999987      -2.17880984E-06
  0.421999991      -2.43679506E-06
  0.423999995      -2.70140208E-06
  0.425999999      -2.97003817E-06
  0.428000003      -3.23972267E-06
  0.430000007      -3.50708297E-06
  0.432000011      -3.76835169E-06
  0.433999985      -4.01937587E-06
  0.435999990      -4.25562621E-06
  0.437999994      -4.47221919E-06
  0.439999998      -4.66393931E-06
  0.442000002      -4.82527639E-06
  0.444000006      -4.95046697E-06
  0.446000010      -5.03354522E-06
  0.448000014      -5.06840252E-06
  0.449999988      -5.04885384E-06
  0.451999992      -4.96871689E-06
  0.453999996      -4.82189762E-06
  0.456000000      -4.60248157E-06
  0.458000004      -4.30483806E-06
  0.460000008      -3.92372704E-06
  0.462000012      -3.45441481E-06
  0.463999987      -2.89279660E-06
  0.465999991      -2.23552047E-06
  0.467999995      -1.48011657E-06
  0.469999999      -6.25129815E-07
  0.472000003       3.29750691E-07
  0.474000007       1.38355881E-06
  0.476000011       2.53392363E-06
  0.477999985       3.77694573E-06
  0.479999989       5.10708014E-06
  0.481999993       6.51702749E-06
  0.483999997       7.99763438E-06
  0.486000001       9.53781091E-06
  0.488000005       1.11244526E-05
  0.490000010       1.27423928E-05
  0.492000014       1.43743582E-05
  0.493999988       1.60009604E-05
  0.495999992       1.76006943E-05
  0.497999996       1.91499730E-05
  0.500000000       2.06231798E-05
  0.501999974       2.19927497E-05
  0.504000008       2.32292732E-05
  0.505999982       2.43016366E-05
  0.508000016       2.51771871E-05
  0.509999990       2.58219225E-05
  0.512000024       2.62007070E-05
  0.513999999       2.62775320E-05
  0.515999973       2.60157831E-05
  0.518000007       2.53785420E-05
  0.519999981       2.43289123E-05
  0.522000015       2.28303688E-05
  0.523999989       2.08471247E-05
  0.526000023       1.83445118E-05
  0.527999997       1.52893808E-05
  0.529999971       1.16505144E-05
  0.532000005       7.39904408E-06
  0.533999979       2.50886501E-06
  0.536000013      -3.04293712E-06
  0.537999988      -9.27567180E-06
  0.540000021      -1.62046363E-05
  0.541999996      -2.38407156E-05
  0.544000030      -3.21900079E-05
  0.546000004      -4.12534828E-05
  0.547999978      -5.10266254E-05
  0.550000012      -6.14991513E-05
  0.551999986      -7.26547369E-05
  0.554000020      -8.44708193E-05
  0.555999994      -9.69183457E-05
  0.558000028      -1.09961715E-04
  0.560000002      -1.23558610E-04
  0.561999977      -1.37660041E-04
  0.564000010      -1.52210239E-04
  0.565999985      -1.67146864E-04
  0.568000019      -1.82401025E-04
  0.569999993      -1.97897505E-04
  0.572000027      -2.13555002E-04
  0.574000001      -2.29286408E-04
  0.575999975      -2.44999188E-04
  0.578000009      -2.60595727E-04
  0.579999983      -2.75973929E-04
  0.582000017      -2.91027565E-04
  0.583999991      -3.05646972E-04
  0.586000025      -3.19719577E-04
  0.588000000      -3.33130651E-04
  0.589999974      -3.45763867E-04
  0.592000008      -3.57502169E-04
  0.593999982      -3.68228444E-04
  0.596000016      -3.77826334E-04
  0.597999990      -3.86180996E-04
  0.600000024      -3.93180002E-04
  0.601999998      -3.98714124E-04
  0.603999972      -4.02678124E-04
  0.606000006      -4.04971681E-04
  0.607999980      -4.05500119E-04
  0.610000014      -4.04175196E-04
  0.611999989      -4.00916004E-04
  0.614000022      -3.95649666E-04
  0.615999997      -3.88311979E-04
  0.617999971      -3.78848257E-04
  0.620000005      -3.67213826E-04
  0.621999979      -3.53374722E-04
  0.624000013      -3.37308185E-04
  0.625999987      -3.19003215E-04
  0.628000021      -2.98460975E-04
  0.629999995      -2.75695056E-04
  0.632000029      -2.50731944E-04
  0.634000003      -2.23611132E-04
  0.635999978      -1.94385269E-04
  0.638000011      -1.63120305E-04
  0.639999986      -1.29895416E-04
  0.642000020      -9.48029847E-05
  0.643999994      -5.79483567E-05
  0.646000028      -1.94496315E-05
  0.648000002       2.05626093E-05
  0.649999976       6.19458369E-05
  0.652000010       1.04545965E-04
  0.653999984       1.48197985E-04
  0.656000018       1.92726598E-04
  0.657999992       2.37946966E-04
  0.660000026       2.83665460E-04
  0.662000000       3.29680624E-04
  0.663999975       3.75784060E-04
  0.666000009       4.21761477E-04
  0.667999983       4.67393693E-04
  0.670000017       5.12457802E-04
  0.671999991       5.56728453E-04
  0.674000025       5.99978899E-04
  0.675999999       6.41982362E-04
  0.677999973       6.82513288E-04
  0.680000007       7.21348799E-04
  0.681999981       7.58269860E-04
  0.684000015       7.93062616E-04
  0.685999990       8.25519965E-04
  0.688000023       8.55442660E-04
  0.689999998       8.82640830E-04
  0.691999972       9.06935020E-04
  0.694000006       9.28157999E-04
  0.695999980       9.46155400E-04
  0.698000014       9.60787409E-04
  0.699999988       9.71929403E-04
  0.702000022       9.79473465E-04
  0.703999996       9.83329141E-04
  0.705999970       9.83424368E-04
  0.708000004       9.79706412E-04
  0.709999979       9.72142443E-04
  0.712000012       9.60720121E-04
  0.713999987       9.45448177E-04
  0.716000021       9.26356821E-04
  0.717999995       9.03497916E-04
  0.720000029       8.76944920E-04
  0.722000003       8.46793118E-04
  0.723999977       8.13159335E-04
  0.726000011       7.76181638E-04
  0.727999985       7.36018817E-04
  0.730000019       6.92849746E-04
  0.731999993       6.46872912E-04
  0.734000027       5.98305080E-04
  0.736000001       5.47380594E-04
  0.737999976       4.94350097E-04
  0.740000010       4.39479132E-04
  0.741999984       3.83046980E-04
  0.744000018       3.25344765E-04
  0.745999992       2.66674062E-04
  0.748000026       2.07345016E-04
  0.750000000       1.47674553E-04
  0.751999974       8.79843501E-05
  0.754000008       2.85990063E-05
  0.755999982      -3.01561304E-05
  0.758000016      -8.79569998E-05
  0.759999990      -1.44482867E-04
  0.762000024      -1.99418631E-04
  0.763999999      -2.52456754E-04
  0.765999973      -3.03299399E-04
  0.768000007      -3.51660623E-04
  0.769999981      -3.97268275E-04
  0.772000015      -4.39865864E-04
  0.773999989      -4.79214621E-04
  0.776000023      -5.15095075E-04
  0.777999997      -5.47308999E-04
  0.779999971      -5.75680460E-04
  0.782000005      -6.00057887E-04
  0.783999979      -6.20314619E-04
  0.786000013      -6.36350538E-04
  0.787999988      -6.48092828E-04
  0.790000021      -6.55496668E-04
  0.791999996      -6.58545701E-04
  0.794000030      -6.57252676E-04
  0.796000004      -6.51659502E-04
  0.797999978      -6.41837134E-04
  0.800000012      -6.27885514E-04
  0.801999986      -6.09933049E-04
  0.804000020      -5.88136027E-04
  0.805999994      -5.62677684E-04
  0.808000028      -5.33767336E-04
  0.810000002      -5.01639151E-04
  0.811999977      -4.66550584E-04
  0.814000010      -4.28781059E-04
  0.815999985      -3.88630026E-04
  0.818000019      -3.46415094E-04
  0.819999993      -3.02470173E-04
  0.822000027      -2.57143140E-04
  0.824000001      -2.10793500E-04
  0.825999975      -1.63790202E-04
  0.828000009      -1.16509014E-04
  0.829999983      -6.93300026E-05
  0.832000017      -2.26348875E-05
  0.833999991       2.31953891E-05
  0.836000025       6.77835560E-05
  0.838000000       1.10758570E-04
  0.839999974       1.51758271E-04
  0.842000008       1.90431922E-04
  0.843999982       2.26442789E-04
  0.846000016       2.59470631E-04
  0.847999990       2.89214076E-04
  0.850000024       3.15392797E-04
  0.851999998       3.37749807E-04
  0.853999972       3.56053293E-04
  0.856000006       3.70098569E-04
  0.857999980       3.79709760E-04
  0.860000014       3.84741230E-04
  0.861999989       3.85078980E-04
  0.864000022       3.80641548E-04
  0.865999997       3.71381146E-04
  0.867999971       3.57284123E-04
  0.870000005       3.38371494E-04
  0.871999979       3.14698991E-04
  0.874000013       2.86357186E-04
  0.875999987       2.53471080E-04
  0.878000021       2.16199682E-04
  0.879999995       1.74735149E-04
  0.882000029       1.29301727E-04
  0.884000003       8.01547212E-05
  0.885999978       2.75788043E-05
  0.888000011      -2.81135308E-05
  0.889999986      -8.65838883E-05
  0.892000020      -1.47470055E-04
  0.893999994      -2.10388142E-04
  0.896000028      -2.74935213E-04
  0.898000002      -3.40691709E-04
  0.899999976      -4.07224084E-04
  0.902000010      -4.74087865E-04
  0.903999984      -5.40830370E-04
  0.906000018      -6.06994028E-04
  0.907999992      -6.72118913E-04
  0.910000026      -7.35746464E-04
  0.912000000      -7.97422137E-04
  0.913999975      -8.56698782E-04
  0.916000009      -9.13139782E-04
  0.917999983      -9.66321677E-04
  0.920000017      -1.01583765E-03
  0.921999991      -1.06130028E-03
  0.924000025      -1.10234413E-03
  0.925999999      -1.13862858E-03
  0.927999973      -1.16983999E-03
  0.930000007      -1.19569444E-03
  0.931999981      -1.21593953E-03
  0.934000015      -1.23035652E-03
  0.935999990      -1.23876194E-03
  0.938000023      -1.24100875E-03
  0.939999998      -1.23698846E-03
  0.941999972      -1.22663099E-03
  0.944000006      -1.20990607E-03
  0.945999980      -1.18682371E-03
  0.948000014      -1.15743408E-03
  0.949999988      -1.12182752E-03
  0.952000022      -1.08013442E-03
  0.953999996      -1.03252416E-03
  0.955999970      -9.79204779E-04
  0.958000004      -9.20421036E-04
  0.959999979      -8.56453902E-04
  0.962000012      -7.87618221E-04
  0.963999987      -7.14261027E-04
  0.966000021      -6.36759680E-04
  0.967999995      -5.55519015E-04
  0.970000029      -4.70969360E-04
  0.972000003      -3.83563718E-04
  0.973999977      -2.93774734E-04
  0.976000011      -2.02091862E-04
  0.977999985      -1.09018438E-04
  0.980000019      -1.50682399E-05
  0.981999993       7.92375358E-05
  0.984000027       1.73373614E-04
  0.986000001       2.66814168E-04
  0.987999976       3.59035883E-04
  0.990000010       4.49521322E-04
  0.991999984       5.37762360E-04
  0.994000018       6.23263069E-04
  0.995999992       7.05543440E-04
  0.998000026       7.84141710E-04
   1.00000000       8.58617655E-04
   1.00199997       9.28555150E-04
   1.00399995       9.93565074E-04
   1.00600004       1.05328741E-03
   1.00800002       1.10739353E-03
   1.00999999       1.15558784E-03
   1.01199996       1.19761063E-03
   1.01400006       1.23323838E-03
   1.01600003       1.26228598E-03
   1.01800001       1.28460722E-03
   1.01999998       1.30009605E-03
   1.02199996       1.30868668E-03
   1.02400005       1.31035456E-03
   1.02600002       1.30511564E-03
   1.02800000       1.29302673E-03
   1.02999997       1.27418456E-03
   1.03199995       1.24872557E-03
   1.03400004       1.21682452E-03
   1.03600001       1.17869349E-03
   1.03799999       1.13458012E-03
   1.03999996       1.08476647E-03
   1.04200006       1.02956663E-03
   1.04400003       9.69325018E-04
   1.04600000       9.04413813E-04
   1.04799998       8.35230690E-04
   1.04999995       7.62196491E-04
   1.05200005       6.85752078E-04
   1.05400002       6.06355839E-04
   1.05599999       5.24480827E-04
   1.05799997       4.40611562E-04
   1.05999994       3.55241180E-04
   1.06200004       2.68868374E-04
   1.06400001       1.81994197E-04
   1.06599998       9.51190304E-05
   1.06799996       8.73964291E-06
   1.07000005      -7.66539961E-05
   1.07200003      -1.60581534E-04
   1.07400000      -2.42575145E-04
   1.07599998      -3.22182343E-04
   1.07799995      -3.98968550E-04
   1.08000004      -4.72519634E-04
   1.08200002      -5.42444410E-04
   1.08399999      -6.08376635E-04
   1.08599997      -6.69977220E-04
   1.08800006      -7.26936152E-04
   1.09000003      -7.78973801E-04
   1.09200001      -8.25842842E-04
   1.09399998      -8.67328898E-04
   1.09599996      -9.03252396E-04
   1.09800005      -9.33468516E-04
   1.10000002      -9.57868411E-04
   1.10200000      -9.76379029E-04
   1.10399997      -9.88963759E-04
   1.10599995      -9.95621900E-04
   1.10800004      -9.96388379E-04
   1.11000001      -9.91333392E-04
   1.11199999      -9.80561483E-04
   1.11399996      -9.64210543E-04
   1.11600006      -9.42450424E-04
   1.11800003      -9.15482000E-04
   1.12000000      -8.83534900E-04
   1.12199998      -8.46866344E-04
   1.12399995      -8.05758929E-04
   1.12600005      -7.60518655E-04
   1.12800002      -7.11472472E-04
   1.13000000      -6.58966310E-04
   1.13199997      -6.03362394E-04
   1.13399994      -5.45036863E-04
   1.13600004      -4.84377233E-04
   1.13800001      -4.21779521E-04
   1.13999999      -3.57645884E-04
   1.14199996      -2.92381737E-04
   1.14400005      -2.26393313E-04
   1.14600003      -1.60084688E-04
   1.14800000      -9.38554731E-05
   1.14999998      -2.80981167E-05
   1.15199995       3.68046094E-05
   1.15400004       1.00481913E-04
   1.15600002       1.62577227E-04
   1.15799999       2.22750517E-04
   1.15999997       2.80680164E-04
   1.16199994       3.36064812E-04
   1.16400003       3.88625223E-04
   1.16600001       4.38105664E-04
   1.16799998       4.84275282E-04
   1.16999996       5.26929332E-04
   1.17200005       5.65889932E-04
   1.17400002       6.01007137E-04
   1.17600000       6.32159179E-04
   1.17799997       6.59253099E-04
   1.17999995       6.82224578E-04
   1.18200004       7.01038225E-04
   1.18400002       7.15686940E-04
   1.18599999       7.26191618E-04
   1.18799996       7.32600514E-04
   1.19000006       7.34988309E-04
   1.19200003       7.33454886E-04
   1.19400001       7.28124520E-04
   1.19599998       7.19143951E-04
   1.19799995       7.06681225E-04
   1.20000005       6.90924062E-04
   1.20200002       6.72077644E-04
   1.20400000       6.50363276E-04
   1.20599997       6.26016001E-04
   1.20799994       5.99282677E-04
   1.21000004       5.70420059E-04
   1.21200001       5.39692352E-04
   1.21399999       5.07369405E-04
   1.21599996       4.73724416E-04
   1.21800005       4.39031632E-04
   1.22000003       4.03564598E-04
   1.22200000       3.67593893E-04
   1.22399998       3.31385178E-04
   1.22599995       2.95197387E-04
   1.22800004       2.59280816E-04
   1.23000002       2.23875584E-04
   1.23199999       1.89209895E-04
   1.23399997       1.55498768E-04
   1.23599994       1.22942743E-04
   1.23800004       9.17265934E-05
   1.24000001       6.20186038E-05
   1.24199998       3.39695762E-05
   1.24399996       7.71228952E-06
   1.24600005      -1.66389600E-05
   1.24800003      -3.89886918E-05
   1.25000000      -5.92603901E-05
   1.25199997      -7.73964712E-05
   1.25399995      -9.33580595E-05
   1.25600004      -1.07124695E-04
   1.25800002      -1.18693832E-04
   1.25999999      -1.28080224E-04
   1.26199996      -1.35315189E-04
   1.26400006      -1.40445773E-04
   1.26600003      -1.43533733E-04
   1.26800001      -1.44654565E-04
   1.26999998      -1.43896294E-04
   1.27199996      -1.41358309E-04
   1.27400005      -1.37150157E-04
   1.27600002      -1.31390174E-04
   1.27800000      -1.24204220E-04
   1.27999997      -1.15724411E-04
   1.28199995      -1.06087704E-04
   1.28400004      -9.54346542E-05
   1.28600001      -8.39081404E-05
   1.28799999      -7.16521099E-05
   1.28999996      -5.88103467E-05
   1.29200006      -4.55254012E-05
   1.29400003      -3.19374376E-05
   1.29600000      -1.81832911E-05
   1.29799998      -4.39549240E-06
   1.29999995       9.29854286E-06
   1.30200005       2.27773235E-05
   1.30400002       3.59258920E-05
   1.30599999       4.86364588E-05
   1.30799997       6.08088521E-05
   1.30999994       7.23509147E-05
   1.31200004       8.31788493E-05
   1.31400001       9.32173789E-05
   1.31599998       1.02399928E-04
   1.31799996       1.10668661E-04
   1.32000005       1.17974443E-04
   1.32200003       1.24276776E-04
   1.32400000       1.29543623E-04
   1.32599998       1.33751208E-04
   1.32799995       1.36883740E-04
   1.33000004       1.38933086E-04
   1.33200002       1.39898402E-04
   1.33399999       1.39785770E-04
   1.33599997       1.38607706E-04
   1.33800006       1.36382776E-04
   1.34000003       1.33135138E-04
   1.34200001       1.28893967E-04
   1.34399998       1.23693069E-04
   1.34599996       1.17570351E-04
   1.34800005       1.10567351E-04
   1.35000002       1.02728758E-04
   1.35200000       9.41019971E-05
   1.35399997       8.47367337E-05
   1.35599995       7.46845035E-05
   1.35800004       6.39982682E-05
   1.36000001       5.27320590E-05
   1.36199999       4.09405766E-05
   1.36399996       2.86789364E-05
   1.36600006       1.60022719E-05
   1.36800003       2.96548956E-06
   1.37000000      -1.03769735E-05
   1.37199998      -2.39714445E-05
   1.37399995      -3.77651595E-05
   1.37600005      -5.17064582E-05
   1.37800002      -6.57449709E-05
   1.38000000      -7.98316905E-05
   1.38199997      -9.39190795E-05
   1.38399994      -1.07961212E-04
   1.38600004      -1.21913778E-04
   1.38800001      -1.35734066E-04
   1.38999999      -1.49381071E-04
   1.39199996      -1.62815442E-04
   1.39400005      -1.75999507E-04
   1.39600003      -1.88897175E-04
   1.39800000      -2.01473900E-04
   1.39999998      -2.13696781E-04
   1.40199995      -2.25534270E-04
   1.40400004      -2.36956272E-04
   1.40600002      -2.47934047E-04
   1.40799999      -2.58440035E-04
   1.40999997      -2.68447940E-04
   1.41199994      -2.77932559E-04