 -0.300000012       0.00000000    
 -0.298000008       0.00000000    
 -0.296000004       0.00000000    
 -0.294000000       0.00000000    
 -0.291999996      -1.69284085E-38
 -0.289999992       2.37243863E-24
 -0.287999988       2.38265323E-23
 -0.286000013       1.27795290E-22
 -0.284000009       4.83686997E-22
 -0.282000005       1.44059320E-21
 -0.280000001       3.56864901E-21
 -0.277999997       7.58037441E-21
 -0.275999993       1.40180667E-20
 -0.273999989       2.26114506E-20
 -0.272000015       3.13007179E-20
 -0.270000011       3.50966045E-20
 -0.268000007       2.51913170E-20
 -0.266000003      -1.10216639E-20
 -0.263999999      -8.82198851E-20
 -0.261999995      -2.19012430E-19
 -0.259999990      -4.07132947E-19
 -0.257999986      -6.38563064E-19
 -0.256000012      -8.72378588E-19
 -0.254000008      -1.03441231E-18
 -0.252000004      -1.01784616E-18
 -0.250000000      -6.95074389E-19
 -0.247999996       5.59026688E-20
 -0.246000007       1.31002465E-18
 -0.244000003       3.04252601E-18
 -0.241999999       5.07451483E-18
 -0.239999995       7.03180200E-18
 -0.238000005       8.33604828E-18
 -0.236000001       8.24789068E-18
 -0.233999997       5.97703919E-18
 -0.231999993       8.63401456E-19
 -0.230000004      -7.38381368E-18
 -0.228000000      -1.84233173E-17
 -0.225999996      -3.10513146E-17
 -0.224000007      -4.30761418E-17
 -0.222000003      -5.13761448E-17
 -0.219999999      -5.22073091E-17
 -0.217999995      -4.17947563E-17
 -0.216000006      -1.71887006E-17
 -0.214000002       2.27039505E-17
 -0.211999997       7.60763965E-17
 -0.209999993       1.37396711E-16
 -0.208000004       1.97067933E-16
 -0.206000000       2.41832300E-16
 -0.203999996       2.56111079E-16
 -0.202000007       2.24338608E-16
 -0.200000003       1.34160066E-16
 -0.197999999      -1.98614800E-17
 -0.195999995      -2.32607159E-16
 -0.194000006      -4.85586360E-16
 -0.192000002      -7.45774764E-16
 -0.189999998      -9.66872757E-16
 -0.187999994      -1.09351911E-15
 -0.186000004      -1.06858384E-15
 -0.184000000      -8.43122726E-16
 -0.181999996      -3.87948396E-16
 -0.180000007       2.94820749E-16
 -0.178000003       1.16233164E-15
 -0.175999999       2.12598006E-15
 -0.173999995       3.05292803E-15
 -0.172000006       3.77568917E-15
 -0.170000002       4.11030912E-15
 -0.167999998       3.88232003E-15
 -0.165999994       2.95812683E-15
 -0.164000005       1.27799823E-15
 -0.162000000      -1.11435178E-15
 -0.159999996      -4.05121459E-15
 -0.158000007      -7.23482096E-15
 -0.156000003      -1.02501219E-14
 -0.153999999      -1.25987486E-14
 -0.151999995      -1.37537000E-14
 -0.150000006      -1.32309680E-14
 -0.148000002      -1.06709990E-14
 -0.145999998      -5.91994673E-15
 -0.143999994       9.01268890E-16
 -0.142000005       9.35259391E-15
 -0.140000001       1.86664106E-14
 -0.137999997       2.77832024E-14
 -0.136000007       3.54346814E-14
 -0.134000003       4.02716834E-14
 -0.131999999       4.10274435E-14
 -0.129999995       3.67005112E-14
 -0.128000006       2.67363070E-14
 -0.126000002       1.11832024E-14
 -0.123999998      -9.20135787E-15
 -0.122000001      -3.29162933E-14
 -0.119999997      -5.77695444E-14
 -0.118000001      -8.10245425E-14
 -0.115999997      -9.96363433E-14
 -0.114000000      -1.10561523E-13
 -0.112000003      -1.11114683E-13
 -0.109999999      -9.93354772E-14
 -0.108000003      -7.43241392E-14
 -0.105999999      -3.65024749E-14
 -0.104000002       1.22392195E-14
 -0.101999998       6.85398258E-14
 -0.100000001       1.27726768E-13
  -9.79999974E-02   1.84137915E-13
  -9.60000008E-02   2.31587915E-13
  -9.39999968E-02   2.63943977E-13
  -9.20000002E-02   2.75759586E-13
  -9.00000036E-02   2.62904580E-13
  -8.79999995E-02   2.23124741E-13
  -8.60000029E-02   1.56466487E-13
  -8.39999989E-02   6.55114662E-14
  -8.20000023E-02  -4.46176164E-14
  -7.99999982E-02  -1.66497228E-13
  -7.80000016E-02  -2.90881658E-13
  -7.59999976E-02  -4.07387313E-13
  -7.40000010E-02  -5.05326846E-13
  -7.19999969E-02  -5.74618857E-13
  -7.00000003E-02  -6.06688853E-13
  -6.80000037E-02  -5.95274643E-13
  -6.59999996E-02  -5.37057811E-13
  -6.40000030E-02  -4.32058279E-13
  -6.19999990E-02  -2.83754032E-13
  -5.99999987E-02  -9.89163111E-14
  -5.79999983E-02   1.12820208E-13
  -5.60000017E-02   3.39604403E-13
  -5.40000014E-02   5.68163680E-13
  -5.20000011E-02   7.84664163E-13
  -5.00000007E-02   9.75551779E-13
  -4.80000004E-02   1.12829722E-12
  -4.60000001E-02   1.23198771E-12
  -4.39999998E-02   1.27773356E-12
  -4.19999994E-02   1.25888828E-12
  -3.99999991E-02   1.17111106E-12
  -3.79999988E-02   1.01232542E-12
  -3.59999985E-02   7.82641692E-13
  -3.40000018E-02   4.84318315E-13
  -3.20000015E-02   1.21822501E-13
  -2.99999993E-02  -2.97967244E-13
  -2.80000009E-02  -7.65413124E-13
  -2.60000005E-02  -1.26765536E-12
  -2.40000002E-02  -1.78811057E-12
  -2.19999999E-02  -2.30603969E-12
  -1.99999996E-02  -2.79631765E-12
  -1.79999992E-02  -3.22954532E-12
  -1.60000008E-02  -3.57263394E-12
  -1.40000004E-02  -3.78995403E-12
  -1.20000001E-02  -3.84510002E-12
  -9.99999978E-03  -3.70324908E-12
  -8.00000038E-03  -3.33402663E-12
  -6.00000005E-03  -2.71471734E-12
  -4.00000019E-03  -1.83359426E-12
  -2.00000009E-03  -6.93099441E-13
   0.00000000       6.87425377E-13
   2.00000009E-03   2.26974971E-12
   4.00000019E-03   3.99577897E-12
   6.00000005E-03   5.78779906E-12
   8.00000038E-03   7.55008469E-12
   9.99999978E-03   9.17189501E-12
   1.20000001E-02   1.05318306E-11
   1.40000004E-02   1.15033469E-11
   1.60000008E-02   1.19612046E-11
   1.79999992E-02   1.17885068E-11
   1.99999996E-02   1.08839361E-11
   2.19999999E-02   9.16877338E-12
   2.40000002E-02   6.59324765E-12
   2.60000005E-02   3.14186524E-12
   2.80000009E-02  -1.16269039E-12
   2.99999993E-02  -6.25734360E-12
   3.20000015E-02  -1.20382801E-11
   3.40000018E-02  -1.83625858E-11
   3.59999985E-02  -2.50518373E-11
   3.79999988E-02  -3.18975228E-11
   3.99999991E-02  -3.86681104E-11
   4.19999994E-02  -4.51174167E-11
   4.39999998E-02  -5.09939695E-11
   4.60000001E-02  -5.60509382E-11
   4.80000004E-02  -6.00562725E-11
   5.00000007E-02  -6.28026034E-11
   5.20000011E-02  -6.41166772E-11
   5.40000014E-02  -6.38678346E-11
   5.60000017E-02  -6.19755983E-11
   5.79999983E-02  -5.84159734E-11
   5.99999987E-02  -5.32264892E-11
   6.19999990E-02  -4.65099209E-11
   6.40000030E-02  -3.84366775E-11
   6.59999996E-02  -2.92457759E-11
   6.80000037E-02  -1.92444151E-11
   7.00000003E-02  -8.80597158E-12
   7.19999969E-02   1.63370999E-12
   7.40000010E-02   1.15819620E-11
   7.59999976E-02   2.04971908E-11
   7.80000016E-02   2.77992490E-11
   7.99999982E-02   3.28825543E-11
   8.20000023E-02   3.51321645E-11
   8.39999989E-02   3.39428624E-11
   8.60000029E-02   2.87410339E-11
   8.79999995E-02   1.90092247E-11
   9.00000036E-02   4.31254381E-12
   9.20000002E-02  -1.56735649E-11
   9.39999968E-02  -4.11353937E-11
   9.60000008E-02  -7.20937962E-11
   9.79999974E-02  -1.08379215E-10
  0.100000001      -1.49609866E-10
  0.101999998      -1.95174557E-10
  0.104000002      -2.44220838E-10
  0.105999999      -2.95649449E-10
  0.108000003      -3.48115647E-10
  0.109999999      -4.00037309E-10
  0.112000003      -4.49610016E-10
  0.114000000      -4.94828289E-10
  0.115999997      -5.33512456E-10
  0.118000001      -5.63340041E-10
  0.119999997      -5.81880266E-10
  0.122000001      -5.86630744E-10
  0.123999998      -5.75054560E-10
  0.126000002      -5.44616408E-10
  0.128000006      -4.92818009E-10
  0.129999995      -4.17229279E-10
  0.131999999      -3.15517390E-10
  0.134000003      -1.85471707E-10
  0.136000007      -2.50253551E-11
  0.137999997       1.67725778E-10
  0.140000001       3.94507177E-10
  0.142000005       6.56849797E-10
  0.143999994       9.56073443E-10
  0.145999998       1.29326871E-09
  0.148000002       1.66927538E-09
  0.150000006       2.08465067E-09
  0.151999995       2.53963539E-09
  0.153999999       3.03410541E-09
  0.156000003       3.56751539E-09
  0.158000007       4.13882395E-09
  0.159999996       4.74641304E-09
  0.162000000       5.38798028E-09
  0.164000005       6.06042949E-09
  0.165999994       6.75973233E-09
  0.167999998       7.48078488E-09
  0.170000002       8.21724111E-09
  0.172000006       8.96133656E-09
  0.173999995       9.70370007E-09
  0.175999999       1.04331557E-08
  0.178000003       1.11365237E-08
  0.180000007       1.17984102E-08
  0.181999996       1.24010180E-08
  0.184000000       1.29239490E-08
  0.186000004       1.33440503E-08
  0.187999994       1.36352645E-08
  0.189999998       1.37685445E-08
  0.192000002       1.37117979E-08
  0.194000006       1.34299070E-08
  0.195999995       1.28848203E-08
  0.197999999       1.20357448E-08
  0.200000003       1.08394209E-08
  0.202000007       9.25054255E-09
  0.203999996       7.22227922E-09
  0.206000000       4.70697126E-09
  0.208000004       1.65695446E-09
  0.209999993      -1.97442307E-09
  0.211999997      -6.23163077E-09
  0.214000002      -1.11555893E-08
  0.216000006      -1.67821224E-08
  0.217999995      -2.31401867E-08
  0.219999999      -3.02499892E-08
  0.222000003      -3.81208523E-08
  0.224000007      -4.67489230E-08
  0.225999996      -5.61147573E-08
  0.228000000      -6.61807533E-08
  0.230000004      -7.68884760E-08
  0.231999993      -8.81559146E-08
  0.233999997      -9.98747325E-08
  0.236000001      -1.11907561E-07
  0.238000005      -1.24085261E-07
  0.239999995      -1.36204505E-07
  0.241999999      -1.48025478E-07
  0.244000003      -1.59269803E-07
  0.246000007      -1.69619042E-07
  0.247999996      -1.78713449E-07
  0.250000000      -1.86151439E-07
  0.252000004      -1.91489534E-07
  0.254000008      -1.94243270E-07
  0.256000012      -1.93888837E-07
  0.257999986      -1.89865531E-07
  0.259999990      -1.81579438E-07
  0.261999995      -1.68408107E-07
  0.263999999      -1.49706437E-07
  0.266000003      -1.24813880E-07
  0.268000007      -9.30627522E-08
  0.270000011      -5.37882201E-08
  0.272000015      -6.33934949E-09
  0.273999989       4.99083050E-08
  0.275999993       1.15538988E-07
  0.277999997       1.91081213E-07
  0.280000001       2.76991585E-07
  0.282000005       3.73637477E-07
  0.284000009       4.81277993E-07
  0.286000013       6.00045098E-07
  0.287999988       7.29923954E-07
  0.289999992       8.70732094E-07
  0.291999996       1.02209992E-06
  0.294000000       1.18344997E-06
  0.296000004       1.35397875E-06
  0.298000008       1.53263727E-06
  0.300000012       1.71811462E-06
  0.301999986       1.90882292E-06
  0.303999990       2.10288567E-06
  0.305999994       2.29812599E-06
  0.307999998       2.49206232E-06
  0.310000002       2.68190411E-06
  0.312000006       2.86455384E-06
  0.314000010       3.03661386E-06
  0.316000015       3.19439823E-06
  0.317999989       3.33394814E-06
  0.319999993       3.45105809E-06
  0.321999997       3.54130270E-06
  0.324000001       3.60007448E-06
  0.326000005       3.62262585E-06
  0.328000009       3.60411968E-06
  0.330000013       3.53968562E-06
  0.331999987       3.42448379E-06
  0.333999991       3.25377459E-06
  0.335999995       3.02299554E-06
  0.338000000       2.72784337E-06
  0.340000004       2.36436222E-06
  0.342000008       1.92903667E-06
  0.344000012       1.41888813E-06
  0.345999986       8.31574368E-07
  0.347999990       1.65491144E-07
  0.349999994      -5.80122105E-07
  0.351999998      -1.40508257E-06
  0.354000002      -2.30815976E-06
  0.356000006      -3.28697911E-06
  0.358000010      -4.33792320E-06
  0.360000014      -5.45604826E-06
  0.361999989      -6.63499623E-06
  0.363999993      -7.86692362E-06
  0.365999997      -9.14243992E-06
  0.368000001      -1.04505534E-05
  0.370000005      -1.17786321E-05
  0.372000009      -1.31123825E-05
  0.374000013      -1.44358391E-05
  0.375999987      -1.57313716E-05
  0.377999991      -1.69797113E-05
  0.379999995      -1.81600044E-05
  0.381999999      -1.92498610E-05
  0.384000003      -2.02254560E-05
  0.386000007      -2.10616236E-05
  0.388000011      -2.17319975E-05
  0.389999986      -2.22091421E-05
  0.391999990      -2.24647338E-05
  0.393999994      -2.24697396E-05
  0.395999998      -2.21946393E-05
  0.398000002      -2.16096432E-05
  0.400000006      -2.06849309E-05
  0.402000010      -1.93909382E-05
  0.404000014      -1.76986014E-05
  0.405999988      -1.55796697E-05
  0.407999992      -1.30070030E-05
  0.409999996      -9.95487517E-06
  0.412000000      -6.39930613E-06
  0.414000005      -2.31837839E-06
  0.416000009       2.30743126E-06
  0.418000013       7.49491755E-06
  0.419999987       1.32578416E-05
  0.421999991       1.96065648E-05
  0.423999995       2.65477811E-05
  0.425999999       3.40841580E-05
  0.428000003       4.22140874E-05
  0.430000007       5.09313650E-05
  0.432000011       6.02249420E-05
  0.433999985       7.00786768E-05
  0.435999990       8.04711090E-05
  0.437999994       9.13752301E-05
  0.439999998       1.02758371E-04
  0.442000002       1.14581955E-04
  0.444000006       1.26801460E-04
  0.446000010       1.39366341E-04
  0.448000014       1.52219902E-04
  0.449999988       1.65299323E-04
  0.451999992       1.78535745E-04
  0.453999996       1.91854255E-04
  0.456000000       2.05174030E-04
  0.458000004       2.18408488E-04
  0.460000008       2.31465485E-04
  0.462000012       2.44247640E-04
  0.463999987       2.56652449E-04
  0.465999991       2.68572971E-04
  0.467999995       2.79897853E-04
  0.469999999       2.90512166E-04
  0.472000003       3.00297601E-04
  0.474000007       3.09133378E-04
  0.476000011       3.16896563E-04
  0.477999985       3.23463057E-04
  0.479999989       3.28708207E-04
  0.481999993       3.32507683E-04
  0.483999997       3.34738317E-04
  0.486000001       3.35279125E-04
  0.488000005       3.34012235E-04
  0.490000010       3.30823998E-04
  0.492000014       3.25606059E-04
  0.493999988       3.18256498E-04
  0.495999992       3.08681076E-04
  0.497999996       2.96794402E-04
  0.500000000       2.82521243E-04
  0.501999974       2.65797717E-04
  0.504000008       2.46572687E-04
  0.505999982       2.24809060E-04
  0.508000016       2.00484879E-04
  0.509999990       1.73594832E-04
  0.512000024       1.44151389E-04
  0.513999999       1.12185953E-04
  0.515999973       7.77500609E-05
  0.518000007       4.09163731E-05
  0.519999981       1.77974061E-06
  0.522000015      -3.95420357E-05
  0.523999989      -8.29073251E-05
  0.526000023      -1.28150248E-04
  0.527999997      -1.75079971E-04
  0.529999971      -2.23480645E-04
  0.532000005      -2.73111073E-04
  0.533999979      -3.23704939E-04
  0.536000013      -3.74971045E-04
  0.537999988      -4.26593848E-04
  0.540000021      -4.78234171E-04
  0.541999996      -5.29530167E-04
  0.544000030      -5.80098713E-04
  0.546000004      -6.29536691E-04
  0.547999978      -6.77422737E-04
  0.550000012      -7.23319536E-04
  0.551999986      -7.66775687E-04
  0.554000020      -8.07328732E-04
  0.555999994      -8.44507304E-04
  0.558000028      -8.77834740E-04
  0.560000002      -9.06831934E-04
  0.561999977      -9.31020768E-04
  0.564000010      -9.49928130E-04
  0.565999985      -9.63089289E-04
  0.568000019      -9.70052148E-04
  0.569999993      -9.70381196E-04
  0.572000027      -9.63661645E-04
  0.574000001      -9.49503796E-04
  0.575999975      -9.27547226E-04
  0.578000009      -8.97465041E-04
  0.579999983      -8.58967833E-04
  0.582000017      -8.11808335E-04
  0.583999991      -7.55785033E-04
  0.586000025      -6.90746063E-04
  0.588000000      -6.16592879E-04
  0.589999974      -5.33283572E-04
  0.592000008      -4.40836244E-04
  0.593999982      -3.39331484E-04
  0.596000016      -2.28915043E-04
  0.597999990      -1.09799745E-04
  0.600000024       1.77328147E-05
  0.601999998       1.53331057E-04
  0.603999972       2.96572776E-04
  0.606000006       4.46964987E-04
  0.607999980       6.03943830E-04
  0.610000014       7.66876037E-04
  0.611999989       9.35059972E-04
  0.614000022       1.10772741E-03
  0.615999997       1.28404668E-03
  0.617999971       1.46312488E-03
  0.620000005       1.64401194E-03
  0.621999979       1.82570505E-03
  0.624000013       2.00715289E-03
  0.625999987       2.18726089E-03
  0.628000021       2.36489694E-03
  0.629999995       2.53889756E-03
  0.632000029       2.70807464E-03
  0.634000003       2.87122163E-03
  0.635999978       3.02712107E-03
  0.638000011       3.17455293E-03
  0.639999986       3.31230089E-03
  0.642000020       3.43916123E-03
  0.643999994       3.55395116E-03
  0.646000028       3.65551631E-03
  0.648000002       3.74273909E-03
  0.649999976       3.81454732E-03
  0.652000010       3.86992190E-03
  0.653999984       3.90790449E-03
  0.656000018       3.92760616E-03
  0.657999992       3.92821338E-03
  0.660000026       3.90899694E-03
  0.662000000       3.86931701E-03
  0.663999975       3.80863086E-03
  0.666000009       3.72649776E-03
  0.667999983       3.62258474E-03
  0.670000017       3.49667156E-03
  0.671999991       3.34865460E-03
  0.674000025       3.17854970E-03
  0.675999999       2.98649608E-03
  0.677999973       2.77275825E-03
  0.680000007       2.53772712E-03
  0.681999981       2.28192005E-03
  0.684000015       2.00598128E-03
  0.685999990       1.71068194E-03
  0.688000023       1.39691622E-03
  0.689999998       1.06570031E-03
  0.691999972       7.18169031E-04
  0.694000006       3.55571363E-04
  0.695999980      -2.07348639E-05
  0.698000014      -4.09286906E-04
  0.699999988      -8.08525423E-04
  0.702000022      -1.21680007E-03
  0.703999996      -1.63237704E-03
  0.705999970      -2.05344870E-03
  0.708000004      -2.47814064E-03
  0.709999979      -2.90452177E-03
  0.712000012      -3.33061488E-03
  0.713999987      -3.75440507E-03
  0.716000021      -4.17385204E-03
  0.717999995      -4.58690012E-03
  0.720000029      -4.99148807E-03
  0.722000003      -5.38556417E-03
  0.723999977      -5.76709211E-03
  0.726000011      -6.13406766E-03
  0.727999985      -6.48452621E-03
  0.730000019      -6.81655714E-03
  0.731999993      -7.12831086E-03
  0.734000027      -7.41801411E-03
  0.736000001      -7.68397795E-03
  0.737999976      -7.92460795E-03
  0.740000010      -8.13841447E-03
  0.741999984      -8.32402147E-03
  0.744000018      -8.48017726E-03
  0.745999992      -8.60575773E-03
  0.748000026      -8.69977940E-03
  0.750000000      -8.76140315E-03
  0.751999974      -8.78994074E-03
  0.754000008      -8.78485665E-03
  0.755999982      -8.74577835E-03
  0.758000016      -8.67249537E-03
  0.759999990      -8.56496394E-03
  0.762000024      -8.42330512E-03
  0.763999999      -8.24781135E-03
  0.765999973      -8.03893898E-03
  0.768000007      -7.79731292E-03
  0.769999981      -7.52372108E-03
  0.772000015      -7.21911108E-03
  0.773999989      -6.88458886E-03
  0.776000023      -6.52141124E-03
  0.777999997      -6.13098126E-03
  0.779999971      -5.71483886E-03
  0.782000005      -5.27465716E-03
  0.783999979      -4.81223175E-03
  0.786000013      -4.32947045E-03
  0.787999988      -3.82838887E-03
  0.790000021      -3.31109320E-03
  0.791999996      -2.77977390E-03
  0.794000030      -2.23669363E-03
  0.796000004      -1.68417394E-03
  0.797999978      -1.12458470E-03
  0.800000012      -5.60331682E-04
  0.801999986       6.15650015E-06
  0.804000020       5.72442368E-04
  0.805999994       1.13608933E-03
  0.808000028       1.69467728E-03
  0.810000002       2.24581268E-03
  0.811999977       2.78714322E-03
  0.814000010       3.31636891E-03
  0.815999985       3.83125362E-03
  0.818000019       4.32963623E-03
  0.819999993       4.80944244E-03
  0.822000027       5.26869623E-03
  0.824000001       5.70552703E-03
  0.825999975       6.11818023E-03
  0.828000009       6.50502602E-03
  0.829999983       6.86456775E-03
  0.832000017       7.19544711E-03
  0.833999991       7.49645103E-03
  0.836000025       7.76651921E-03
  0.838000000       8.00474547E-03
  0.839999974       8.21038056E-03
  0.842000008       8.38284194E-03
  0.843999982       8.52170587E-03
  0.846000016       8.62671435E-03
  0.847999990       8.69777426E-03
  0.850000024       8.73495545E-03
  0.851999998       8.73848982E-03
  0.853999972       8.70876666E-03
  0.856000006       8.64633173E-03
  0.857999980       8.55187885E-03
  0.860000014       8.42625275E-03
  0.861999989       8.27043410E-03
  0.864000022       8.08553677E-03
  0.865999997       7.87280127E-03
  0.867999971       7.63358735E-03
  0.870000005       7.36936182E-03
  0.871999979       7.08169350E-03
  0.874000013       6.77224342E-03
  0.875999987       6.44275220E-03
  0.878000021       6.09503174E-03
  0.879999995       5.73095726E-03
  0.882000029       5.35245100E-03
  0.884000003       4.96147899E-03
  0.885999978       4.56003286E-03
  0.888000011       4.15012334E-03
  0.889999986       3.73376883E-03
  0.892000020       3.31298378E-03
  0.893999994       2.88976915E-03
  0.896000028       2.46610190E-03
  0.898000002       2.04392429E-03
  0.899999976       1.62513554E-03
  0.902000010       1.21158105E-03
  0.903999984       8.05044780E-04
  0.906000018       4.07239859E-04
  0.907999992       1.98018042E-05
  0.910000026      -3.55719501E-04
  0.912000000      -7.17866293E-04
  0.913999975      -1.06527901E-03
  0.916000009      -1.39670179E-03
  0.917999983      -1.71098707E-03
  0.920000017      -2.00710003E-03
  0.921999991      -2.28412077E-03
  0.924000025      -2.54124915E-03
  0.925999999      -2.77780462E-03
  0.927999973      -2.99322885E-03
  0.930000007      -3.18708550E-03
  0.931999981      -3.35906027E-03
  0.934000015      -3.50896036E-03
  0.935999990      -3.63671128E-03
  0.938000023      -3.74235818E-03
  0.939999998      -3.82605940E-03
  0.941999972      -3.88808409E-03
  0.944000006      -3.92880989E-03
  0.945999980      -3.94871691E-03
  0.948000014      -3.94838210E-03
  0.949999988      -3.92847555E-03
  0.952000022      -3.88975348E-03
  0.953999996      -3.83305177E-03
  0.955999970      -3.75928008E-03
  0.958000004      -3.66941467E-03
  0.959999979      -3.56449070E-03
  0.962000012      -3.44559597E-03
  0.963999987      -3.31386295E-03
  0.966000021      -3.17046070E-03
  0.967999995      -3.01658805E-03
  0.970000029      -2.85346573E-03
  0.972000003      -2.68232869E-03
  0.973999977      -2.50441907E-03
  0.976000011      -2.32097763E-03
  0.977999985      -2.13323883E-03
  0.980000019      -1.94242131E-03
  0.981999993      -1.74972392E-03
  0.984000027      -1.55631686E-03
  0.986000001      -1.36333751E-03
  0.987999976      -1.17188354E-03
  0.990000010      -9.83008416E-04
  0.991999984      -7.97715387E-04
  0.994000018      -6.16954232E-04
  0.995999992      -4.41616285E-04
  0.998000026      -2.72531208E-04
   1.00000000      -1.10463166E-04
   1.00199997       4.38908901E-05
   1.00399995       1.89904298E-04
   1.00600004       3.27022106E-04
   1.00800002       4.54762427E-04
   1.00999999       5.72717225E-04
   1.01199996       6.80552737E-04
   1.01400006       7.78009300E-04
   1.01600003       8.64900881E-04
   1.01800001       9.41114151E-04
   1.01999998       1.00660685E-03
   1.02199996       1.06140634E-03
   1.02400005       1.10560760E-03
   1.02600002       1.13937003E-03
   1.02800000       1.16291514E-03
   1.02999997       1.17652339E-03
   1.03199995       1.18053064E-03
   1.03400004       1.17532408E-03
   1.03600001       1.16133923E-03
   1.03799999       1.13905454E-03
   1.03999996       1.10898807E-03
   1.04200006       1.07169256E-03
   1.04400003       1.02775078E-03
   1.04600000       9.77771240E-04
   1.04799998       9.22382984E-04
   1.04999995       8.62230954E-04
   1.05200005       7.97971443E-04
   1.05400002       7.30266969E-04
   1.05599999       6.59782032E-04
   1.05799997       5.87178161E-04
   1.05999994       5.13109262E-04
   1.06200004       4.38217830E-04
   1.06400001       3.63130268E-04
   1.06599998       2.88453011E-04
   1.06799996       2.14768734E-04
   1.07000005       1.42632853E-04
   1.07200003       7.25701102E-05
   1.07400000       5.07166669E-06
   1.07599998      -5.94077319E-05
   1.07799995      -1.20452118E-04
   1.08000004      -1.77686365E-04
   1.08200002      -2.30777980E-04
   1.08399999      -2.79438536E-04
   1.08599997      -3.23424640E-04
   1.08800006      -3.62538733E-04
   1.09000003      -3.96629359E-04
   1.09200001      -4.25591221E-04
   1.09399998      -4.49364714E-04
   1.09599996      -4.67935402E-04
   1.09800005      -4.81332710E-04
   1.10000002      -4.89628699E-04
   1.10200000      -4.92936582E-04
   1.10399997      -4.91408166E-04
   1.10599995      -4.85232275E-04
   1.10800004      -4.74631757E-04
   1.11000001      -4.59860981E-04
   1.11199999      -4.41202923E-04
   1.11399996      -4.18965850E-04
   1.11600006      -3.93480295E-04
   1.11800003      -3.65095504E-04
   1.12000000      -3.34176089E-04
   1.12199998      -3.01098422E-04
   1.12399995      -2.66247051E-04
   1.12600005      -2.30011239E-04
   1.12800002      -1.92781314E-04
   1.13000000      -1.54945345E-04
   1.13199997      -1.16885676E-04
   1.13399994      -7.89757178E-05
   1.13600004      -4.15768773E-05
   1.13800001      -5.03566889E-06
   1.13999999       3.03190591E-05
   1.14199996       6.41784864E-05
   1.14400005       9.62562117E-05
   1.14600003       1.26290106E-04
   1.14800000       1.54044043E-04
   1.14999998       1.79309456E-04
   1.15199995       2.01906325E-04
   1.15400004       2.21684197E-04
   1.15600002       2.38522654E-04
   1.15799999       2.52331665E-04
   1.15999997       2.63051625E-04
   1.16199994       2.70652963E-04
   1.16400003       2.75135797E-04
   1.16600001       2.76528997E-04
   1.16799998       2.74889142E-04
   1.16999996       2.70299410E-04
   1.17200005       2.62867921E-04
   1.17400002       2.52726197E-04
   1.17600000       2.40027206E-04
   1.17799997       2.24943593E-04
   1.17999995       2.07665347E-04
   1.18200004       1.88397738E-04
   1.18400002       1.67358958E-04
   1.18599999       1.44777805E-04
   1.18799996       1.20891345E-04
   1.19000006       9.59424287E-05
   1.19200003       7.01773824E-05
   1.19400001       4.38436291E-05
   1.19599998       1.71873671E-05
   1.19799995      -9.54866664E-06
   1.20000005      -3.61273051E-05
   1.20200002      -6.23190499E-05
   1.20400000      -8.79039653E-05
   1.20599997      -1.12673428E-04
   1.20799994      -1.36431860E-04
   1.21000004      -1.58998126E-04
   1.21200001      -1.80206829E-04
   1.21399999      -1.99909511E-04
   1.21599996      -2.17975612E-04
   1.21800005      -2.34293155E-04
   1.22000003      -2.48769502E-04
   1.22200000      -2.61331705E-04
   1.22399998      -2.71926663E-04
   1.22599995      -2.80521403E-04
   1.22800004      -2.87102797E-04
   1.23000002      -2.91677483E-04
   1.23199999      -2.94271245E-04
   1.23399997      -2.94928526E-04
   1.23599994      -2.93711666E-04
   1.23800004      -2.90700031E-04
   1.24000001      -2.85988936E-04
   1.24199998      -2.79688509E-04
   1.24399996      -2.71922327E-04
   1.24600005      -2.62826157E-04
   1.24800003      -2.52546364E-04
   1.25000000      -2.41238449E-04
   1.25199997      -2.29065263E-04
   1.25399995      -2.16195491E-04
   1.25600004      -2.02801835E-04
   1.25800002      -1.89059327E-04
   1.25999999      -1.75143592E-04
   1.26199996      -1.61229036E-04
   1.26400006      -1.47487139E-04
   1.26600003      -1.34084810E-04
   1.26800001      -1.21182595E-04
   1.26999998      -1.08933178E-04
   1.27199996      -9.74797804E-05
   1.27400005      -8.69546784E-05
   1.27600002      -7.74778455E-05
   1.27800000      -6.91557289E-05
   1.27999997      -6.20800638E-05
   1.28199995      -5.63268804E-05
   1.28400004      -5.19556852E-05
   1.28600001      -4.90087514E-05
   1.28799999      -4.75105990E-05
   1.28999996      -4.74676817E-05
   1.29200006      -4.88681726E-05
   1.29400003      -5.16820401E-05
   1.29600000      -5.58612301E-05
   1.29799998      -6.13400625E-05
   1.29999995      -6.80358135E-05
   1.30200005      -7.58495080E-05
   1.30400002      -8.46667826E-05
   1.30599999      -9.43591076E-05
   1.30799997      -1.04784966E-04
   1.30999994      -1.15791321E-04
   1.31200004      -1.27215186E-04
   1.31400001      -1.38885283E-04
   1.31599998      -1.50623920E-04
   1.31799996      -1.62248805E-04
   1.32000005      -1.73575070E-04
   1.32200003      -1.84417295E-04
   1.32400000      -1.94591586E-04
   1.32599998      -2.03917632E-04
   1.32799995      -2.12220795E-04
   1.33000004      -2.19334106E-04
   1.33200002      -2.25100273E-04
   1.33399999      -2.29373603E-04
   1.33599997      -2.32021717E-04
   1.33800006      -2.32927283E-04
   1.34000003      -2.31989630E-04
   1.34200001      -2.29125901E-04
   1.34399998      -2.24272502E-04
   1.34599996      -2.17385939E-04
   1.34800005      -2.08443686E-04
   1.35000002      -1.97444722E-04
   1.35200000      -1.84409888E-04
   1.35399997      -1.69381994E-04
   1.35599995      -1.52425768E-04
   1.35800004      -1.33627371E-04
   1.36000001      -1.13093949E-04
   1.36199999      -9.09526862E-05
   1.36399996      -6.73498798E-05
   1.36600006      -4.24496029E-05
   1.36800003      -1.64323137E-05
   1.37000000       1.05067857E-05
   1.37199998       3.81595491E-05
   1.37399995       6.63067985E-05
   1.37600005       9.47204098E-05
   1.37800002       1.23165431E-04
   1.38000000       1.51402390E-04
   1.38199997       1.79189505E-04
   1.38399994       2.06285084E-04
   1.38600004       2.32449835E-04
   1.38800001       2.57449137E-04
   1.38999999       2.81055283E-04
   1.39199996       3.03049805E-04
   1.39400005       3.23225308E-04
   1.39600003       3.41387757E-04
   1.39800000       3.57358076E-04
   1.39999998       3.70973925E-04
   1.40199995       3.82091297E-04
   1.40400004       3.90585628E-04
   1.40600002       3.96353251E-04
   1.40799999       3.99312034E-04
   1.40999997       3.99402343E-04
   1.41199994       3.96587478E-04