  -10.0000000       0.00000000    
  -9.96000004       0.00000000    
  -9.92000008       0.00000000    
  -9.88000011       0.00000000    
  -9.84000015       0.00000000    
  -9.80000019       0.00000000    
  -9.76000023      -1.59703850E-31
  -9.72000027      -8.15634259E-27
  -9.68000031      -8.37279462E-26
  -9.64000034      -3.89089421E-25
  -9.60000038      -8.42426927E-25
  -9.56000042       1.09474202E-24
  -9.52000046       1.75605423E-23
  -9.47999954       8.58787618E-23
  -9.43999958       2.91123551E-22
  -9.39999962       7.77432949E-22
  -9.35999966       1.69669769E-21
  -9.31999969       2.99925855E-21
  -9.27999973       3.94330286E-21
  -9.23999977       2.24431508E-21
  -9.19999981      -7.01563947E-21
  -9.15999985      -3.21716454E-20
  -9.11999989      -8.42437183E-20
  -9.07999992      -1.72738822E-19
  -9.03999996      -2.95624451E-19
  -9.00000000      -4.21724232E-19
  -8.96000004      -4.66321002E-19
  -8.92000008      -2.66028833E-19
  -8.88000011       4.32764560E-19
  -8.84000015       1.94743814E-18
  -8.80000019       4.56118722E-18
  -8.76000023       8.31762366E-18
  -8.72000027       1.26835152E-17
  -8.68000031       1.60890285E-17
  -8.64000034       1.54170518E-17
  -8.60000038       5.60380123E-18
  -8.56000042      -2.03786962E-17
  -8.52000046      -7.07870199E-17
  -8.47999954      -1.53196496E-16
  -8.43999958      -2.71052211E-16
  -8.39999962      -4.18541664E-16
  -8.35999966      -5.74092409E-16
  -8.31999969      -6.93476144E-16
  -8.27999973      -7.04362529E-16
  -8.23999977      -5.05087123E-16
  -8.19999981       2.88653079E-17
  -8.15999985       1.02692231E-15
  -8.11999989       2.59094250E-15
  -8.07999992       4.74700345E-15
  -8.03999996       7.38367683E-15
  -8.00000000       1.01839042E-14
  -7.96000004       1.25635806E-14
  -7.92000008       1.36362089E-14
  -7.88000011       1.22280327E-14
  -7.84000015       6.97015154E-15
  -7.80000019      -3.50884796E-15
  -7.76000023      -2.02762069E-14
  -7.71999979      -4.36788972E-14
  -7.67999983      -7.28492787E-14
  -7.63999987      -1.05196640E-13
  -7.59999990      -1.35984526E-13
  -7.55999994      -1.58125222E-13
  -7.51999998      -1.62342646E-13
  -7.48000002      -1.37853135E-13
  -7.44000006      -7.36802587E-14
  -7.40000010       3.93496610E-14
  -7.36000013       2.05995716E-13
  -7.32000017       4.23583315E-13
  -7.28000021       6.78955264E-13
  -7.23999977       9.45937339E-13
  -7.19999981       1.18399821E-12
  -7.15999985       1.33885025E-12
  -7.11999989       1.34569970E-12
  -7.07999992       1.13566860E-12
  -7.03999996       6.45578046E-13
  -7.00000000      -1.69231315E-13
  -6.96000004      -1.31998785E-12
  -6.92000008      -2.76914320E-12
  -6.88000011      -4.41692863E-12
  -6.84000015      -6.09268278E-12
  -6.80000019      -7.55407369E-12
  -6.76000023      -8.49718039E-12
  -6.71999979      -8.57969945E-12
  -6.67999983      -7.45828052E-12
  -6.63999987      -4.83913560E-12
  -6.59999990      -5.38764834E-13
  -6.55999994       5.45088757E-12
  -6.51999998       1.29010561E-11
  -6.48000002       2.12987111E-11
  -6.44000006       2.98243548E-11
  -6.40000010       3.73661033E-11
  -6.36000013       4.25791451E-11
  -6.32000017       4.39959562E-11
  -6.28000021       4.01869545E-11
  -6.23999977       2.99641492E-11
  -6.19999981       1.26122975E-11
  -6.15999985      -1.18760262E-11
  -6.11999989      -4.25919924E-11
  -6.07999992      -7.75638442E-11
  -6.03999996      -1.13708133E-10
  -6.00000000      -1.46911330E-10
  -5.96000004      -1.72265424E-10
  -5.92000008      -1.84466956E-10
  -5.88000011      -1.78369750E-10
  -5.84000015      -1.49659882E-10
  -5.80000019      -9.55977242E-11
  -5.76000023      -1.57505085E-11
  -5.71999979       8.73776954E-11
  -5.67999983       2.07920389E-10
  -5.63999987       3.36527001E-10
  -5.59999990       4.60628702E-10
  -5.55999994       5.65147262E-10
  -5.51999998       6.33658959E-10
  -5.48000002       6.49974685E-10
  -5.44000006       6.00038019E-10
  -5.40000010       4.73986128E-10
  -5.36000013       2.68166850E-10
  -5.32000017      -1.31306025E-11
  -5.28000021      -3.56486257E-10
  -5.23999977      -7.38944739E-10
  -5.19999981      -1.12859189E-09
  -5.15999985      -1.48623414E-09
  -5.11999989      -1.76819981E-09
  -5.07999992      -1.93015381E-09
  -5.03999996      -1.93168903E-09
  -5.00000000      -1.74132697E-09
  -4.96000004      -1.34145184E-09
  -4.92000008      -7.32630734E-10
  -4.88000011       6.32469285E-11
  -4.84000015       1.00154374E-09
  -4.80000019       2.01559103E-09
  -4.76000023       3.01980929E-09
  -4.71999979       3.91527788E-09
  -4.67999983       4.59754412E-09
  -4.63999987       4.96618924E-09
  -4.59999990       4.93541430E-09
  -4.55999994       4.44470771E-09
  -4.51999998       3.46850393E-09
  -4.48000002       2.02371231E-09
  -4.44000006       1.74066275E-10
  -4.40000010      -1.96956051E-09
  -4.36000013      -4.25343272E-09
  -4.32000017      -6.48995346E-09
  -4.28000021      -8.47108694E-09
  -4.23999977      -9.98539740E-09
  -4.19999981      -1.08374438E-08
  -4.15999985      -1.08678977E-08
  -4.11999989      -9.97250638E-09
  -4.07999992      -8.11792589E-09
  -4.03999996      -5.35257350E-09
  -4.00000000      -1.81095150E-09
  -3.96000004       2.28963470E-09
  -3.92000008       6.66035582E-09
  -3.88000011       1.09598188E-08
  -3.83999991       1.48196033E-08
  -3.79999995       1.78745285E-08
  -3.75999999       1.97952108E-08
  -3.72000003       2.03200550E-08
  -3.68000007       1.92836502E-08
  -3.64000010       1.66386496E-08
  -3.59999990       1.24686723E-08
  -3.55999994       6.99040559E-09
  -3.51999998       5.43998957E-10
  -3.48000002      -6.42806874E-09
  -3.44000006      -1.34124267E-08
  -3.40000010      -1.98642400E-08
  -3.35999990      -2.52514614E-08
  -3.31999993      -2.91001427E-08
  -3.27999997      -3.10367305E-08
  -3.24000001      -3.08234007E-08
  -3.20000005      -2.83829618E-08
  -3.16000009      -2.38107098E-08
  -3.11999989      -1.73717485E-08
  -3.07999992      -9.48356238E-09
  -3.03999996      -6.85103918E-10
  -3.00000000       8.40518588E-09
  -2.96000004       1.71387864E-08
  -2.92000008       2.48895944E-08
  -2.88000011       3.11047934E-08
  -2.83999991       3.53494727E-08
  -2.79999995       3.73408717E-08
  -2.75999999       3.69691833E-08
  -2.72000003       3.43029924E-08
  -2.68000007       2.95790166E-08
  -2.64000010       2.31772663E-08
  -2.59999990       1.55841686E-08
  -2.55999994       7.34739913E-09
  -2.51999998      -9.73073289E-10
  -2.48000002      -8.85289708E-09
  -2.44000006      -1.58455151E-08
  -2.40000010      -2.16145679E-08
  -2.35999990      -2.59535877E-08
  -2.31999993      -2.87913675E-08
  -2.27999997      -3.01830134E-08
  -2.24000001      -3.02881062E-08
  -2.20000005      -2.93389562E-08
  -2.16000009      -2.76027805E-08
  -2.11999989      -2.53424624E-08
  -2.07999992      -2.27805508E-08
  -2.03999996      -2.00708090E-08
  -2.00000000      -1.72807706E-08
  -1.96000004      -1.43874104E-08
  -1.91999996      -1.12866134E-08
  -1.88000000      -7.81542386E-09
  -1.84000003      -3.78458953E-09
  -1.79999995       9.82425918E-10
  -1.75999999       6.60859900E-09
  -1.72000003       1.31257343E-08
  -1.67999995       2.04449435E-08
  -1.63999999       2.83393327E-08
  -1.60000002       3.64418753E-08
  -1.55999994       4.42598065E-08
  -1.51999998       5.12052516E-08
  -1.48000002       5.66397880E-08
  -1.44000006       5.99294268E-08
  -1.39999998       6.05048456E-08
  -1.36000001       5.79212411E-08
  -1.32000005       5.19117407E-08
  -1.27999997       4.24290114E-08
  -1.24000001       2.96702964E-08
  -1.20000005       1.40828682E-08
  -1.15999997      -3.65148001E-09
  -1.12000000      -2.26523191E-08
  -1.08000004      -4.18943245E-08
  -1.03999996      -6.02746724E-08
  -1.00000000      -7.66886217E-08
 -0.959999979      -9.01070720E-08
 -0.920000017      -9.96495473E-08
 -0.879999995      -1.04646638E-07
 -0.839999974      -1.04686968E-07
 -0.800000012      -9.96449145E-08
 -0.759999990      -8.96874752E-08
 -0.720000029      -7.52600684E-08
 -0.680000007      -5.70535086E-08
 -0.639999986      -3.59552459E-08
 -0.600000024      -1.29898021E-08
 -0.560000002       1.07463540E-08
 -0.519999981       3.41500943E-08
 -0.479999989       5.61718707E-08
 -0.439999998       7.58670780E-08
 -0.400000006       9.24353714E-08
 -0.360000014       1.05246940E-07
 -0.319999993       1.13855606E-07
 -0.280000001       1.18000742E-07
 -0.239999995       1.17600166E-07
 -0.200000003       1.12737567E-07
 -0.159999996       1.03647650E-07
 -0.119999997       9.07018674E-08
  -7.99999982E-02   7.43966524E-08
  -3.99999991E-02   5.53450015E-08
   0.00000000       3.42703963E-08
   3.99999991E-02   1.20012036E-08
   7.99999982E-02  -1.05378906E-08
  0.119999997      -3.23412195E-08
  0.159999996      -5.23483124E-08
  0.200000003      -6.94839883E-08
  0.239999995      -8.27143722E-08
  0.280000001      -9.11184728E-08
  0.319999993      -9.39725098E-08
  0.360000014      -9.08413682E-08
  0.400000006      -8.16691212E-08
  0.439999998      -6.68581421E-08
  0.479999989      -4.73250985E-08
  0.519999981      -2.45223557E-08
  0.560000002      -4.13923340E-10
  0.600000024       2.26016397E-08
  0.639999986       4.18249542E-08
  0.680000007       5.44450884E-08
  0.720000029       5.77761980E-08
  0.759999990       4.95279338E-08
  0.800000012       2.80898718E-08
  0.839999974      -7.19485760E-09
  0.879999995      -5.57937234E-08
  0.920000017      -1.15816128E-07
  0.959999979      -1.83936990E-07
   1.00000000      -2.55435538E-07
   1.03999996      -3.24362446E-07
   1.08000004      -3.83840302E-07
   1.12000000      -4.26489862E-07
   1.15999997      -4.44962893E-07
   1.20000005      -4.32549740E-07
   1.24000001      -3.83821003E-07
   1.27999997      -2.95252192E-07
   1.32000005      -1.65779198E-07
   1.36000001       2.77022227E-09
   1.39999998       2.05416995E-07
   1.44000006       4.33982819E-07
   1.48000002       6.77279672E-07
   1.51999998       9.21544483E-07
   1.55999994       1.15110936E-06
   1.60000002       1.34927723E-06
   1.63999999       1.49935261E-06
   1.67999995       1.58576665E-06
   1.72000003       1.59521710E-06
   1.75999999       1.51774452E-06
   1.79999995       1.34766287E-06
   1.84000003       1.08426821E-06
   1.88000000       7.32267665E-07
   1.91999996       3.01881386E-07
   1.96000004      -1.91400915E-07
   2.00000000      -7.27407439E-07
   2.03999996      -1.28218790E-06
   2.07999992      -1.82918200E-06
   2.11999989      -2.34058416E-06
   2.16000009      -2.78881930E-06
   2.20000005      -3.14804015E-06
   2.24000001      -3.39554686E-06
   2.27999997      -3.51304902E-06
   2.31999993      -3.48768594E-06
   2.35999990      -3.31275305E-06
   2.40000010      -2.98809414E-06
   2.44000006      -2.52014252E-06
   2.48000002      -1.92162361E-06
   2.51999998      -1.21094808E-06
   2.55999994      -4.11343819E-07
   2.59999990       4.50208518E-07
   2.64000010       1.34416314E-06
   2.68000007       2.23964753E-06
   2.72000003       3.10567407E-06
   2.75999999       3.91226422E-06
   2.79999995       4.63143078E-06
   2.83999991       5.23797962E-06
   2.88000011       5.71011788E-06
   2.92000008       6.02985665E-06
   2.96000004       6.18323475E-06
   3.00000000       6.16038415E-06
   3.03999996       5.95548136E-06
   3.07999992       5.56663144E-06
   3.11999989       4.99572752E-06
   3.16000009       4.24833479E-06
   3.20000005       3.33362755E-06
   3.24000001       2.26440557E-06
   3.27999997       1.05718925E-06
   3.31999993      -2.67616286E-07
   3.35999990      -1.68552322E-06
   3.40000010      -3.16777277E-06
   3.44000006      -4.68122562E-06
   3.48000002      -6.18839204E-06
   3.51999998      -7.64768174E-06
   3.55999994      -9.01392832E-06
   3.59999990      -1.02392532E-05
   3.64000010      -1.12742846E-05
   3.68000007      -1.20697414E-05
   3.72000003      -1.25783554E-05
   3.75999999      -1.27570565E-05
   3.79999995      -1.25693332E-05
   3.83999991      -1.19876286E-05
   3.88000011      -1.09956318E-05
   3.92000008      -9.59028876E-06
   3.96000004      -7.78337289E-06
   4.00000000      -5.60246190E-06
   4.03999996      -3.09119423E-06
   4.07999992      -3.08712913E-07
   4.11999989       2.67173027E-06
   4.15999985       5.76500133E-06
   4.19999981       8.87705301E-06
   4.23999977       1.19085125E-05
   4.28000021       1.47586861E-05
   4.32000017       1.73297685E-05
   4.36000013       1.95310040E-05
   4.40000010       2.12825453E-05
   4.44000006       2.25187723E-05
   4.48000002       2.31908652E-05
   4.51999998       2.32684924E-05
   4.55999994       2.27404744E-05
   4.59999990       2.16144490E-05
   4.63999987       1.99155402E-05
   4.67999983       1.76841804E-05
   4.71999979       1.49732014E-05
   4.76000023       1.18444450E-05
   4.80000019       8.36511390E-06
   4.84000015       4.60408455E-06
   4.88000011       6.28431394E-07
   4.92000008      -3.49967263E-06
   4.96000004      -7.72549629E-06
   5.00000000      -1.20036666E-05
   5.03999996      -1.62993838E-05
   5.07999992      -2.05889792E-05
   5.11999989      -2.48598590E-05
   5.15999985      -2.91099313E-05
   5.19999981      -3.33466523E-05
   5.23999977      -3.75858217E-05
   5.28000021      -4.18502532E-05
   5.32000017      -4.61684685E-05
   5.36000013      -5.05734861E-05
   5.40000010      -5.51018093E-05
   5.44000006      -5.97926191E-05
   5.48000002      -6.46872431E-05
   5.51999998      -6.98288495E-05
   5.55999994      -7.52623309E-05
   5.59999990      -8.10343699E-05
   5.63999987      -8.71937082E-05
   5.67999983      -9.37913792E-05
   5.71999979      -1.00881101E-04
   5.76000023      -1.08519627E-04
   5.80000019      -1.16767136E-04
   5.84000015      -1.25687642E-04
   5.88000011      -1.35349372E-04
   5.92000008      -1.45825165E-04
   5.96000004      -1.57192713E-04
   6.00000000      -1.69535138E-04
   6.03999996      -1.82941207E-04
   6.07999992      -1.97505724E-04
   6.11999989      -2.13329797E-04
   6.15999985      -2.30521226E-04
   6.19999981      -2.49194680E-04
   6.23999977      -2.69471813E-04
   6.28000021      -2.91481672E-04
   6.32000017      -3.15360492E-04
   6.36000013      -3.41251958E-04
   6.40000010      -3.69307207E-04
   6.44000006      -3.99684912E-04
   6.48000002      -4.32551169E-04
   6.51999998      -4.68079728E-04
   6.55999994      -5.06452110E-04
   6.59999990      -5.47857897E-04
   6.63999987      -5.92494616E-04
   6.67999983      -6.40568556E-04
   6.71999979      -6.92295027E-04
   6.76000023      -7.47899059E-04
   6.80000019      -8.07615928E-04
   6.84000015      -8.71692551E-04
   6.88000011      -9.40388243E-04
   6.92000008      -1.01397641E-03
   6.96000004      -1.09274639E-03
   7.00000000      -1.17700547E-03
   7.03999996      -1.26708124E-03
   7.07999992      -1.36332482E-03
   7.11999989      -1.46611407E-03
   7.15999985      -1.57585659E-03
   7.19999981      -1.69299403E-03
   7.23999977      -1.81800604E-03
   7.28000021      -1.95141323E-03
   7.32000017      -2.09378148E-03
   7.36000013      -2.24572420E-03
   7.40000010      -2.40790634E-03
   7.44000006      -2.58104550E-03
   7.48000002      -2.76591256E-03
   7.51999998      -2.96333362E-03
   7.55999994      -3.17418901E-03
   7.59999990      -3.39941238E-03
   7.63999987      -3.63998907E-03
   7.67999983      -3.89695470E-03
   7.71999979      -4.17139288E-03
   7.76000023      -4.46443213E-03
   7.80000019      -4.77724522E-03
   7.84000015      -5.11104893E-03
   7.88000011      -5.46709960E-03
   7.92000008      -5.84669597E-03
   7.96000004      -6.25117915E-03
   8.00000000      -6.68193493E-03
   8.03999996      -7.14039383E-03
   8.07999992      -7.62803806E-03
   8.11999989      -8.14640056E-03
   8.15999985      -8.69707484E-03
   8.19999981      -9.28171445E-03
   8.23999977      -9.90204047E-03
   8.27999973      -1.05598494E-02
   8.31999969      -1.12570152E-02
   8.35999966      -1.19954981E-02
   8.39999962      -1.27773480E-02
   8.43999958      -1.36047127E-02
   8.47999954      -1.44798420E-02
   8.52000046      -1.54050943E-02
   8.56000042      -1.63829457E-02
   8.60000038      -1.74159929E-02
   8.64000034      -1.85069591E-02
   8.68000031      -1.96586996E-02
   8.72000027      -2.08742172E-02
   8.76000023      -2.21566427E-02
   8.80000019      -2.35092714E-02
   8.84000015      -2.49355417E-02
   8.88000011      -2.64390465E-02
   8.92000008      -2.80235410E-02
   8.96000004      -2.96929274E-02
   9.00000000      -3.14512774E-02
   9.03999996      -3.33028138E-02
   9.07999992      -3.52519304E-02
   9.11999989      -3.73031646E-02
   9.15999985      -3.94612104E-02
   9.19999981      -4.17309217E-02
   9.23999977      -4.41173092E-02
   9.27999973      -4.66255285E-02
   9.31999969      -4.92608920E-02
   9.35999966      -5.20288534E-02
   9.39999962      -5.49350418E-02
   9.43999958      -5.79852127E-02
   9.47999954      -6.11852929E-02
   9.52000046      -6.45413548E-02
   9.56000042      -6.80596381E-02
   9.60000038      -7.17465132E-02
   9.64000034      -7.56085217E-02
   9.68000031      -7.96523616E-02
   9.72000027      -8.38848650E-02
   9.76000023      -8.83130357E-02
   9.80000019      -9.29440111E-02
   9.84000015      -9.77850854E-02
   9.88000011     -0.102843694    
   9.92000008     -0.108127415    
   9.96000004     -0.113643996    
   10.0000000     -0.119401298    
   10.0400000     -0.125407338    
   10.0799999     -0.131670311    
   10.1199999     -0.138198569    
   10.1599998     -0.145000592    
   10.1999998     -0.152085066    
   10.2399998     -0.159460828    
   10.2799997     -0.167136893    
   10.3199997     -0.175122410    
   10.3599997     -0.183426797    
   10.3999996     -0.192059562    
   10.4399996     -0.201030403    
   10.4799995     -0.210349113    
   10.5200005     -0.220025674    
   10.5600004     -0.230070189    
   10.6000004     -0.240492851    
   10.6400003     -0.251303941    
   10.6800003     -0.262513816    
   10.7200003     -0.274132878    
   10.7600002     -0.286171526    
   10.8000002     -0.298640192    
   10.8400002     -0.311549276    
   10.8800001     -0.324909240    
   10.9200001     -0.338730425    
   10.9600000     -0.353023022    
   11.0000000     -0.367797345    
   11.0400000     -0.383063465    
   11.0799999     -0.398831427    
   11.1199999     -0.415111065    
   11.1599998     -0.431912124    
   11.1999998     -0.449244231    
   11.2399998     -0.467116892    
   11.2799997     -0.485539287    
   11.3199997     -0.504520535    
   11.3599997     -0.524069548    
   11.3999996     -0.544194996    
   11.4399996     -0.564905226    
   11.4799995     -0.586208582    
   11.5200005     -0.608112872    
   11.5600004     -0.630625784    
   11.6000004     -0.653754771    
   11.6400003     -0.677506745    
   11.6800003     -0.701888382    
   11.7200003     -0.726906121    
   11.7600002     -0.752565742    
   11.8000002     -0.778872848    
   11.8400002     -0.805832624    
   11.8800001     -0.833449483    
   11.9200001     -0.861727715    
   11.9600000     -0.890670955    
   12.0000000     -0.920282364    
   12.0400000     -0.950564504    
   12.0799999     -0.981519401    
   12.1199999      -1.01314855    
   12.1599998      -1.04545283    
   12.1999998      -1.07843220    
   12.2399998      -1.11208630    
   12.2799997      -1.14641416    
   12.3199997      -1.18141389    
   12.3599997      -1.21708298    
   12.3999996      -1.25341809    
   12.4399996      -1.29041541    
   12.4799995      -1.32807016    
   12.5200005      -1.36637676    
   12.5600004      -1.40532911    
   12.6000004      -1.44492018    
   12.6400003      -1.48514223    
   12.6800003      -1.52598619    
   12.7200003      -1.56744289    
   12.7600002      -1.60950184    
   12.8000002      -1.65215170    
   12.8400002      -1.69538069    
   12.8800001      -1.73917580    
   12.9200001      -1.78352332    
   12.9600000      -1.82840848    
   13.0000000      -1.87381613    
   13.0400000      -1.91972995    
   13.0799999      -1.96613288    
   13.1199999      -2.01300693    
   13.1599998      -2.06033349    
   13.1999998      -2.10809278    
   13.2399998      -2.15626502    
   13.2799997      -2.20482850    
   13.3199997      -2.25376177    
   13.3599997      -2.30304170    
   13.3999996      -2.35264468    
   13.4399996      -2.40254664    
   13.4799995      -2.45272255    
   13.5200005      -2.50314617    
   13.5600004      -2.55379152    
   13.6000004      -2.60463095    
   13.6400003      -2.65563726    
   13.6800003      -2.70678210    
   13.7200003      -2.75803638    
   13.7600002      -2.80937076    
   13.8000002      -2.86075568    
   13.8400002      -2.91216087    
   13.8800001      -2.96355510    
   13.9200001      -3.01490736    
   13.9600000      -3.06618595    
   14.0000000      -3.11735892    
   14.0400000      -3.16839457    
   14.0799999      -3.21925950    
   14.1199999      -3.26992178    
   14.1599998      -3.32034802    
   14.1999998      -3.37050557    
   14.2399998      -3.42036104    
   14.2799997      -3.46988153    
   14.3199997      -3.51903391    
   14.3599997      -3.56778479    
   14.3999996      -3.61610126    
   14.4399996      -3.66395044    
   14.4799995      -3.71129966    
   14.5200005      -3.75811648    
   14.5600004      -3.80436802    
   14.6000004      -3.85002279    
   14.6400003      -3.89504814    
   14.6800003      -3.93941283    
   14.7200003      -3.98308539    
   14.7600002      -4.02603531    
   14.8000002      -4.06823111    
   14.8400002      -4.10964394    
   14.8800001      -4.15024376    
   14.9200001      -4.19000196    
   14.9600000      -4.22889042    
   15.0000000      -4.26688147    
   15.0400000      -4.30394840    
   15.0799999      -4.34006548    
   15.1199999      -4.37520742    
   15.1599998      -4.40934992    
   15.1999998      -4.44246960    
   15.2399998      -4.47454453    
   15.2799997      -4.50555277    
   15.3199997      -4.53547430    
   15.3599997      -4.56428957    
   15.3999996      -4.59198046    
   15.4399996      -4.61853075    
   15.4799995      -4.64392376    
   15.5200005      -4.66814470    
   15.5600004      -4.69118023    
   15.6000004      -4.71301842    
   15.6400003      -4.73364782    
   15.6800003      -4.75305796    
   15.7200003      -4.77124119    
   15.7600002      -4.78818941    
   15.8000002      -4.80389595    
   15.8400002      -4.81835556    
   15.8800001      -4.83156443    
   15.9200001      -4.84351969    
   15.9600000      -4.85421944    
   16.0000000      -4.86366367    
   16.0400009      -4.87185383    
   16.0799999      -4.87879181    
   16.1200008      -4.88448048    
   16.1599998      -4.88892460    
   16.2000008      -4.89212894    
   16.2399998      -4.89410162    
   16.2800007      -4.89484882    
   16.3199997      -4.89438057    
   16.3600006      -4.89270687    
   16.3999996      -4.88983870    
   16.4400005      -4.88578892    
   16.4799995      -4.88057041    
   16.5200005      -4.87419748    
   16.5599995      -4.86668539    
   16.6000004      -4.85804987    
   16.6399994      -4.84830761    
   16.6800003      -4.83747673    
   16.7199993      -4.82557535    
   16.7600002      -4.81262207    
   16.7999992      -4.79863787    
   16.8400002      -4.78364277    
   16.8799992      -4.76765776    
   16.9200001      -4.75070572    
   16.9599991      -4.73280907    
   17.0000000      -4.71399164    
   17.0400009      -4.69427729    
   17.0799999      -4.67369127    
   17.1200008      -4.65225792    
   17.1599998      -4.63000488    
   17.2000008      -4.60695696    
   17.2399998      -4.58314180    
   17.2800007      -4.55858517    
   17.3199997      -4.53331518    
   17.3600006      -4.50735903    
   17.3999996      -4.48074389    
   17.4400005      -4.45349789    
   17.4799995      -4.42564917    
   17.5200005      -4.39722586    
   17.5599995      -4.36825705    
   17.6000004      -4.33877039    
   17.6399994      -4.30879450    
   17.6800003      -4.27835894    
   17.7199993      -4.24749184    
   17.7600002      -4.21622229    
   17.7999992      -4.18457842    
   17.8400002      -4.15258884    
   17.8799992      -4.12028170    
   17.9200001      -4.08768415    
   17.9599991      -4.05482435    
   18.0000000      -4.02172852    
   18.0400009      -3.98842382    
   18.0799999      -3.95493650    
   18.1200008      -3.92129207    
   18.1599998      -3.88751650    
   18.2000008      -3.85363412    
   18.2399998      -3.81967020    
   18.2800007      -3.78564930    
   18.3199997      -3.75159526    
   18.3600006      -3.71753144    
   18.3999996      -3.68348098    
   18.4400005      -3.64946580    
   18.4799995      -3.61550879    
   18.5200005      -3.58163023    
   18.5599995      -3.54785156    
   18.6000004      -3.51419234    
   18.6399994      -3.48067188    
   18.6800003      -3.44730902    
   18.7199993      -3.41412091    
   18.7600002      -3.38112545    
   18.7999992      -3.34833884    
   18.8400002      -3.31577754    
   18.8799992      -3.28345728    
   18.9200001      -3.25139332    
   18.9599991      -3.21960092    
   19.0000000      -3.18809438    
   19.0400009      -3.15688825    
   19.0799999      -3.12599611    
   19.1200008      -3.09543180    
   19.1599998      -3.06520796    
   19.2000008      -3.03533626    
   19.2399998      -3.00582910    
   19.2800007      -2.97669768    
   19.3199997      -2.94795132    
   19.3600006      -2.91960025    
   19.3999996      -2.89165378    
   19.4400005      -2.86412001    
   19.4799995      -2.83700705    
   19.5200005      -2.81032252    
   19.5599995      -2.78407359    
   19.6000004      -2.75826669    
   19.6399994      -2.73290777    
   19.6800003      -2.70800233    
   19.7199993      -2.68355513    
   19.7600002      -2.65957022    
   19.7999992      -2.63605118    
   19.8400002      -2.61300111    
   19.8799992      -2.59042192    
   19.9200001      -2.56831551    
   19.9599991      -2.54668283    
   20.0000000      -2.52552438    
   20.0400009      -2.50484061    
   20.0799999      -2.48463035    
   20.1200008      -2.46489310    
   20.1599998      -2.44562769    
   20.2000008      -2.42683291    
   20.2399998      -2.40850735    
   20.2800007      -2.39064908    
   20.3199997      -2.37325621    
   20.3600006      -2.35632706    
   20.3999996      -2.33985877    
   20.4400005      -2.32384920    
   20.4799995      -2.30829525    
   20.5200005      -2.29319358    
   20.5599995      -2.27853990    
   20.6000004      -2.26433015    
   20.6399994      -2.25055933    
   20.6800003      -2.23722148    
   20.7199993      -2.22431159    
   20.7600002      -2.21182323    
   20.7999992      -2.19975090    
   20.8400002      -2.18808770    
   20.8799992      -2.17682791    
   20.9200001      -2.16596580    
   20.9599991      -2.15549541    
   21.0000000      -2.14541125    
   21.0400009      -2.13570762    
   21.0799999      -2.12637949    
   21.1200008      -2.11742115    
   21.1599998      -2.10882688    
   21.2000008      -2.10059094    
   21.2399998      -2.09270763    
   21.2800007      -2.08517027    
   21.3199997      -2.07797289    
   21.3600006      -2.07110882    
   21.3999996      -2.06457090    
   21.4400005      -2.05835319    
   21.4799995      -2.05244851    
   21.5200005      -2.04685020    
   21.5599995      -2.04155231    
   21.6000004      -2.03654838    
   21.6399994      -2.03183293    
   21.6800003      -2.02740049    
   21.7199993      -2.02324533    
   21.7600002      -2.01936316    
   21.7999992      -2.01574922    
   21.8400002      -2.01239944    
   21.8799992      -2.00930977    
   21.9200001      -2.00647712    
   21.9599991      -2.00389838    
   22.0000000      -2.00157189    
   22.0400009      -1.99949527    
   22.0799999      -1.99766815    
   22.1200008      -1.99608994    
   22.1599998      -1.99476111    
   22.2000008      -1.99368298    
   22.2399998      -1.99285734    
   22.2800007      -1.99228704    
   22.3199997      -1.99197543    
   22.3600006      -1.99192715    
   22.3999996      -1.99214709    
   22.4400005      -1.99264121    
   22.4799995      -1.99341631    
   22.5200005      -1.99447966    
   22.5599995      -1.99583960    
   22.6000004      -1.99750555    
   22.6399994      -1.99948800    
   22.6800003      -2.00179839    
   22.7199993      -2.00444961    
   22.7600002      -2.00745535    
   22.7999992      -2.01083159    
   22.8400002      -2.01459527    
   22.8799992      -2.01876473    
   22.9200001      -2.02336025    
   22.9599991      -2.02840352    
   23.0000000      -2.03391695    
   23.0400009      -2.03992558    
   23.0799999      -2.04645467    
   23.1200008      -2.05353236    
   23.1599998      -2.06118703    
   23.2000008      -2.06944895    
   23.2399998      -2.07835007    
   23.2800007      -2.08792377    
   23.3199997      -2.09820461    
   23.3600006      -2.10922933    
   23.3999996      -2.12103558    
   23.4400005      -2.13366318    
   23.4799995      -2.14715314    
   23.5200005      -2.16154885    
   23.5599995      -2.17689443    
   23.6000004      -2.19323611    
   23.6399994      -2.21062136    
   23.6800003      -2.22909999    
   23.7199993      -2.24872327    
   23.7600002      -2.26954412    
   23.7999992      -2.29161787    
   23.8400002      -2.31500125    
   23.8799992      -2.33975196    
   23.9200001      -2.36593056    
   23.9599991      -2.39359832    
   24.0000000      -2.42281818    
   24.0400009      -2.45365453    
   24.0799999      -2.48617315    
   24.1200008      -2.52044058    
   24.1599998      -2.55652523    
   24.2000008      -2.59449601    
   24.2399998      -2.63442349    