  -10.0000000       1.00000002E-24
  -9.94999981       1.00000002E-24
  -9.89999962       1.00000002E-24
  -9.85000038       1.00000002E-24
  -9.80000019       1.00000012E-24
  -9.75000000       1.00000022E-24
  -9.69999981       1.00000032E-24
  -9.64999962       1.00000032E-24
  -9.60000038       1.00000022E-24
  -9.55000019       1.00000022E-24
  -9.50000000       1.00000012E-24
  -9.44999981       1.00000002E-24
  -9.39999962       1.00000012E-24
  -9.35000038       1.00000012E-24
  -9.30000019       1.00000022E-24
  -9.25000000       1.00000032E-24
  -9.19999981       1.00000032E-24
  -9.14999962       1.00000032E-24
  -9.10000038       1.00000032E-24
  -9.05000019       1.00000061E-24
  -9.00000000       1.00000179E-24
  -8.94999981       1.00000554E-24
  -8.89999962       1.00001392E-24
  -8.85000038       1.00002891E-24
  -8.80000019       1.00004863E-24
  -8.75000000       1.00006757E-24
  -8.69999981       1.00009113E-24
  -8.64999962       1.00017791E-24
  -8.60000038       1.00049385E-24
  -8.55000019       1.00124987E-24
  -8.50000000       1.00221514E-24
  -8.44999981       1.00140695E-24
  -8.39999962       9.93012487E-25
  -8.35000038       9.66267144E-25
  -8.30000019       9.10128252E-25
  -8.25000000       8.31546563E-25
  -8.19999981       7.92903965E-25
  -8.14999962       9.58349544E-25
  -8.10000038       1.60259479E-24
  -8.05000019       2.98667294E-24
  -8.00000000       4.98202856E-24
  -7.94999981       6.40590948E-24
  -7.90000010       4.31138793E-24
  -7.84999990      -6.02048940E-24
  -7.80000019      -2.90967621E-23
  -7.75000000      -6.38972600E-23
  -7.69999981      -9.51754561E-23
  -7.65000010      -8.47083826E-23
  -7.59999990       2.88927406E-23
  -7.55000019       3.08367041E-22
  -7.50000000       7.61349072E-22
  -7.44999981       1.25016899E-21
  -7.40000010       1.40009729E-21
  -7.34999990       5.83279058E-22
  -7.30000019      -1.90639019E-21
  -7.25000000      -6.38169560E-21
  -7.19999981      -1.19951367E-20
  -7.15000010      -1.59129210E-20
  -7.09999990      -1.29942869E-20
  -7.05000019       3.18400983E-21
  -7.00000000       3.71597190E-20
  -6.94999981       8.61461497E-20
  -6.90000010       1.33676613E-19
  -6.84999990       1.45770162E-19
  -6.80000019       7.49017150E-20
  -6.75000000      -1.22828450E-19
  -6.69999981      -4.55314124E-19
  -6.65000010      -8.52805324E-19
  -6.59999990      -1.13461552E-18
  -6.55000019      -1.01301863E-18
  -6.50000000      -1.66577748E-19
  -6.44999981       1.59833049E-18
  -6.40000010       4.11567726E-18
  -6.34999990       6.63290118E-18
  -6.30000019       7.72550958E-18
  -6.25000000       5.52204105E-18
  -6.19999981      -1.63018015E-18
  -6.15000010      -1.40711777E-17
  -6.09999990      -2.95672600E-17
  -6.05000019      -4.24387859E-17
  -6.00000000      -4.38476995E-17
  -5.94999981      -2.39745115E-17
  -5.90000010       2.36464269E-17
  -5.84999990       9.62988581E-17
  -5.80000019       1.76679029E-16
  -5.75000000       2.30960977E-16
  -5.69999981       2.13736734E-16
  -5.65000010       8.21122342E-17
  -5.59999990      -1.81769578E-16
  -5.55000019      -5.45127853E-16
  -5.50000000      -9.06195340E-16
  -5.44999981      -1.09658664E-15
  -5.40000010      -9.16475249E-16
  -5.34999990      -2.06692067E-16
  -5.30000019       1.05290642E-15
  -5.25000000       2.64808609E-15
  -5.19999981       4.08324895E-15
  -5.15000010       4.63272727E-15
  -5.09999990       3.52471988E-15
  -5.05000019       2.52328309E-16
  -5.00000000      -5.05355272E-15
  -4.94999981      -1.13182736E-14
  -4.90000010      -1.64543926E-14
  -4.84999990      -1.76883282E-14
  -4.80000019      -1.23552579E-14
  -4.75000000       9.27774457E-16
  -4.69999981       2.10082704E-14
  -4.65000010       4.33483815E-14
  -4.59999990       6.01381534E-14
  -4.55000019       6.18086108E-14
  -4.50000000       4.00165808E-14
  -4.44999981      -8.39783700E-15
  -4.40000010      -7.76172339E-14
  -4.34999990      -1.50824001E-13
  -4.30000019      -2.01592242E-13
  -4.25000000      -1.99725002E-13
  -4.19999981      -1.21263107E-13
  -4.15000010       3.93869880E-14
  -4.09999990       2.59006114E-13
  -4.05000019       4.81601792E-13
  -4.00000000       6.25288558E-13
  -3.95000005       6.02018706E-13
  -3.90000010       3.48062291E-13
  -3.84999990      -1.41864344E-13
  -3.79999995      -7.88229833E-13
  -3.75000000      -1.42117112E-12
  -3.70000005      -1.80628104E-12
  -3.65000010      -1.70452628E-12
  -3.59999990      -9.57459914E-13
  -3.54999995       4.23906000E-13
  -3.50000000       2.19776758E-12
  -3.45000005       3.89047822E-12
  -3.40000010       4.87853117E-12
  -3.34999990       4.55434735E-12
  -3.29999995       2.54652354E-12
  -3.25000000      -1.06486456E-12
  -3.20000005      -5.61626830E-12
  -3.15000010      -9.88754564E-12
  -3.09999990      -1.23323912E-11
  -3.04999995      -1.14998358E-11
  -3.00000000      -6.56288869E-12
  -2.95000005       2.19448721E-12
  -2.90000010       1.31138520E-11
  -2.84999990       2.32836077E-11
  -2.79999995       2.91233287E-11
  -2.75000000       2.73736103E-11
  -2.70000005       1.62774360E-11
  -2.65000010      -3.38956272E-12
  -2.59999990      -2.78309754E-11
  -2.54999995      -5.06028101E-11
  -2.50000000      -6.39664710E-11
  -2.45000005      -6.10434620E-11
  -2.40000010      -3.82769060E-11
  -2.34999990       2.52993004E-12
  -2.29999995       5.33791206E-11
  -2.25000000       1.01032196E-10
  -2.20000005       1.29895775E-10
  -2.15000010       1.26382307E-10
  -2.09999990       8.36944472E-11
  -2.04999995       5.58983979E-12
  -2.00000000      -9.23258206E-11
  -1.95000005      -1.84764412E-10
  -1.89999998      -2.42471765E-10
  -1.85000002      -2.40460679E-10
  -1.79999995      -1.66688899E-10
  -1.75000000      -2.85202192E-11
  -1.70000005       1.45546367E-10
  -1.64999998       3.10402926E-10
  -1.60000002       4.14950879E-10
  -1.54999995       4.16672502E-10
  -1.50000000       2.96335984E-10
  -1.45000005       6.82307960E-11
  -1.39999998      -2.18125254E-10
  -1.35000002      -4.86922391E-10
  -1.29999995      -6.54767240E-10
  -1.25000000      -6.55037524E-10
  -1.20000005      -4.61232719E-10
  -1.14999998      -1.01814356E-10
  -1.10000002       3.39581169E-10
  -1.04999995       7.41095352E-10
  -1.00000000       9.74306857E-10
 -0.949999988       9.43072731E-10
 -0.899999976       6.18512408E-10
 -0.850000024       5.85039031E-11
 -0.800000012      -5.96930227E-10
 -0.750000000      -1.15673704E-09
 -0.699999988      -1.43085033E-09
 -0.649999976      -1.29002531E-09
 -0.600000024      -7.15885851E-10
 -0.550000012       1.76080692E-10
 -0.500000000       1.15200249E-09
 -0.449999988       1.91465443E-09
 -0.400000006       2.18686824E-09
 -0.349999994       1.80156268E-09
 -0.300000012       7.71293585E-10
 -0.250000000      -6.87425172E-10
 -0.200000003      -2.18936491E-09
 -0.150000006      -3.27335248E-09
 -0.100000001      -3.53245122E-09
  -5.00000007E-02  -2.74704215E-09
   0.00000000      -9.80531212E-10
   5.00000007E-02   1.39676548E-09
  0.100000001       3.77289044E-09
  0.150000006       5.44133361E-09
  0.200000003       5.79699178E-09
  0.250000000       4.52913662E-09
  0.300000012       1.75384418E-09
  0.349999994      -1.96081795E-09
  0.400000006      -5.69760417E-09
  0.449999988      -8.40656256E-09
  0.500000000      -9.18613008E-09
  0.550000012      -7.55568230E-09
  0.600000024      -3.64105324E-09
  0.649999976       1.78871373E-09
  0.699999988       7.45905382E-09
  0.750000000       1.18810828E-08
  0.800000012       1.37306388E-08
  0.850000024       1.22195782E-08
  0.899999976       7.35808303E-09
  0.949999988       2.86204168E-11
   1.00000000      -8.16274426E-09
   1.04999995      -1.52348356E-08
   1.10000002      -1.93026413E-08
   1.14999998      -1.90579197E-08
   1.20000005      -1.41374787E-08
   1.25000000      -5.28068833E-09
   1.29999995       5.77300385E-09
   1.35000002       1.66326206E-08
   1.39999998       2.47755114E-08
   1.45000005       2.81205299E-08
   1.50000000       2.55220094E-08
   1.54999995       1.70692758E-08
   1.60000002       4.12111190E-09
   1.64999998      -1.09349152E-08
   1.70000005      -2.51466226E-08
   1.75000000      -3.55849643E-08
   1.79999995      -3.99309990E-08
   1.85000002      -3.69416462E-08
   1.89999998      -2.67036473E-08
   1.95000005      -1.06325677E-08
   2.00000000       8.77243167E-09
   2.04999995       2.83598869E-08
   2.09999990       4.48534507E-08
   2.15000010       5.53755051E-08
   2.20000005       5.78790917E-08
   2.25000000       5.14293390E-08
   2.29999995       3.63133132E-08
   2.34999990       1.39928362E-08
   2.40000010      -1.30613147E-08
   2.45000005      -4.16087502E-08
   2.50000000      -6.79191032E-08
   2.54999995      -8.80818618E-08
   2.59999990      -9.83612694E-08
   2.65000010      -9.56223474E-08
   2.70000005      -7.78433034E-08
   2.75000000      -4.46901751E-08
   2.79999995       1.93011385E-09
   2.84999990       5.74849111E-08
   2.90000010       1.14786516E-07
   2.95000005       1.64497663E-07
   3.00000000       1.96277227E-07
   3.04999995       2.00531943E-07
   3.09999990       1.70556760E-07
   3.15000010       1.04664522E-07
   3.20000005       7.78204523E-09
   3.25000000      -1.08023649E-07
   3.29999995      -2.24491401E-07
   3.34999990      -3.19710580E-07
   3.40000010      -3.72014739E-07
   3.45000005      -3.64583315E-07
   3.50000000      -2.89807360E-07
   3.54999995      -1.52358680E-07
   3.59999990       2.99627843E-08
   3.65000010       2.28137878E-07
   3.70000005       4.06542199E-07
   3.75000000       5.29561305E-07
   3.79999995       5.68939754E-07
   3.84999990       5.10281893E-07
   3.90000010       3.57159365E-07
   3.95000005       1.31702393E-07
   4.00000000      -1.28718966E-07
   4.05000019      -3.78230936E-07
   4.09999990      -5.71294152E-07
   4.15000010      -6.71773421E-07
   4.19999981      -6.60247451E-07
   4.25000000      -5.37923029E-07
   4.30000019      -3.26286766E-07
   4.34999990      -6.26257091E-08
   4.40000010       2.07490388E-07
   4.44999981       4.38990639E-07
   4.50000000       5.95366942E-07
   4.55000019       6.54354608E-07
   4.59999990       6.10309371E-07
   4.65000010       4.73303515E-07
   4.69999981       2.65808353E-07
   4.75000000       1.83050588E-08
   4.80000019      -2.34871408E-07
   4.84999990      -4.58689499E-07
   4.90000010      -6.19620948E-07
   4.94999981      -6.87673207E-07
   5.00000000      -6.39378868E-07
   5.05000019      -4.62546410E-07
   5.09999990      -1.62616246E-07
   5.15000010       2.30869730E-07
   5.19999981       6.60382113E-07
   5.25000000       1.04229173E-06
   5.30000019       1.27705846E-06
   5.34999990       1.26830025E-06
   5.40000010       9.48425964E-07
   5.44999981       3.05427704E-07
   5.50000000      -5.96793257E-07
   5.55000019      -1.61257969E-06
   5.59999990      -2.52907921E-06
   5.65000010      -3.10266182E-06
   5.69999981      -3.11263534E-06
   5.75000000      -2.42165902E-06
   5.80000019      -1.02806564E-06
   5.84999990       9.05488378E-07
   5.90000010       3.05910862E-06
   5.94999981       5.00305168E-06
   6.00000000       6.28000271E-06
   6.05000019       6.50682887E-06
   6.09999990       5.47316631E-06
   6.15000010       3.21209154E-06
   6.19999981       2.23131593E-08
   6.25000000      -3.56865939E-06
   6.30000019      -6.89721082E-06
   6.34999990      -9.29491398E-06
   6.40000010      -1.02304357E-05
   6.44999981      -9.42966471E-06
   6.50000000      -6.94520759E-06
   6.55000019      -3.15730404E-06
   6.59999990       1.29600221E-06
   6.65000010       5.64482298E-06
   6.69999981       9.14142493E-06
   6.75000000       1.12074695E-05
   6.80000019       1.15415614E-05
   6.84999990       1.01641672E-05
   6.90000010       7.39244842E-06
   6.94999981       3.75458944E-06
   7.00000000      -1.32760519E-07
   7.05000019      -3.69264330E-06
   7.09999990      -6.49101503E-06
   7.15000010      -8.29306555E-06
   7.19999981      -9.06455352E-06
   7.25000000      -8.92536445E-06
   7.30000019      -8.07490233E-06
   7.34999990      -6.71513135E-06
   7.40000010      -4.99544194E-06
   7.44999981      -2.99477097E-06
   7.50000000      -7.43270505E-07
   7.55000019       1.72773048E-06
   7.59999990       4.32852312E-06
   7.65000010       6.87061174E-06
   7.69999981       9.06228252E-06
   7.75000000       1.05479048E-05
   7.80000019       1.09842103E-05
   7.84999990       1.01335581E-05
   7.90000010       7.94664084E-06
   7.94999981       4.60777437E-06
   8.00000000       5.25196469E-07
   8.05000019      -3.73587386E-06
   8.10000038      -7.56275904E-06
   8.14999962      -1.04195151E-05
   8.19999981      -1.19526339E-05
   8.25000000      -1.20498298E-05
   8.30000019      -1.08370905E-05
   8.35000038      -8.61760418E-06
   8.39999962      -5.77372248E-06
   8.44999981      -2.66405300E-06
   8.50000000       4.51544196E-07
   8.55000019       3.43635475E-06
   8.60000038       6.24556696E-06
   8.64999962       8.85386089E-06
   8.69999981       1.11711433E-05
   8.75000000       1.29807613E-05
   8.80000019       1.39278800E-05
   8.85000038       1.35693399E-05
   8.89999962       1.14756394E-05
   8.94999981       7.35760068E-06
   9.00000000       1.18073217E-06
   9.05000019      -6.76742047E-06
   9.10000038      -1.58786715E-05
   9.14999962      -2.52968384E-05
   9.19999981      -3.40451334E-05
   9.25000000      -4.11794172E-05
   9.30000019      -4.59356706E-05
   9.35000038      -4.78469046E-05
   9.39999962      -4.68169637E-05
   9.44999981      -4.31507142E-05
   9.50000000      -3.75467716E-05
   9.55000019      -3.10583091E-05
   9.60000038      -2.50210378E-05
   9.64999962      -2.09405734E-05
   9.69999981      -2.03301806E-05
   9.75000000      -2.44983767E-05
   9.80000019      -3.43045758E-05
   9.85000038      -4.99243870E-05
   9.89999962      -7.06851715E-05
   9.94999981      -9.50372414E-05
   10.0000000      -1.20709694E-04
   10.0500002      -1.45061262E-04
   10.1000004      -1.65584686E-04
   10.1499996      -1.80470437E-04
   10.1999998      -1.89100174E-04
   10.2500000      -1.92336272E-04
   10.3000002      -1.92506370E-04
   10.3500004      -1.93048822E-04
   10.3999996      -1.97868765E-04
   10.4499998      -2.10535422E-04
   10.5000000      -2.33503888E-04
   10.5500002      -2.67553958E-04
   10.6000004      -3.11597978E-04
   10.6499996      -3.62925173E-04
   10.6999998      -4.17844974E-04
   10.7500000      -4.72589047E-04
   10.8000002      -5.24262490E-04
   10.8500004      -5.71611628E-04
   10.8999996      -6.15416910E-04
   10.9499998      -6.58403325E-04
   11.0000000      -7.04681035E-04
   11.0500002      -7.58842682E-04
   11.1000004      -8.24936142E-04
   11.1499996      -9.05567897E-04
   11.1999998      -1.00136478E-03
   11.2500000      -1.11093954E-03
   11.3000002      -1.23137911E-03
   11.3500004      -1.35914364E-03
   11.3999996      -1.49115094E-03
   11.4499998      -1.62577070E-03
   11.5000000      -1.76346418E-03
   11.5500002      -1.90689438E-03
   11.6000004      -2.06046877E-03
   11.6499996      -2.22943118E-03
   11.6999998      -2.41874438E-03
   11.7500000      -2.63207359E-03
   11.8000002      -2.87115760E-03
   11.8500004      -3.13575100E-03
   11.8999996      -3.42415646E-03
   11.9499998      -3.73419444E-03
   12.0000000      -4.06432291E-03
   12.0500002      -4.41456912E-03
   12.1000004      -4.78697615E-03
   12.1499996      -5.18542994E-03
   12.1999998      -5.61490702E-03
   12.2500000      -6.08037272E-03
   12.3000002      -6.58569159E-03
   12.3500004      -7.13290460E-03
   12.3999996      -7.72214681E-03
   12.4499998      -8.35224707E-03
   12.5000000      -9.02189501E-03
   12.5500002      -9.73100588E-03
   12.6000004      -1.04818903E-02
   12.6499996      -1.12798437E-02
   12.6999998      -1.21329566E-02
   12.7500000      -1.30511587E-02
   12.8000002      -1.40447365E-02
   12.8500004      -1.51227424E-02
   12.8999996      -1.62917208E-02
   12.9499998      -1.75551288E-02
   13.0000000      -1.89135652E-02
   13.0500002      -2.03657895E-02
   13.1000004      -2.19102185E-02
   13.1499996      -2.35465001E-02
   13.1999998      -2.52767950E-02
   13.2500000      -2.71064155E-02
   13.3000002      -2.90437471E-02
   13.3500004      -3.10994834E-02
   13.3999996      -3.32854427E-02
   13.4499998      -3.56132537E-02
   13.5000000      -3.80933210E-02
   13.5500002      -4.07341905E-02
   13.6000004      -4.35426012E-02
   13.6499996      -4.65240330E-02
   13.6999998      -4.96837199E-02
   13.7500000      -5.30277900E-02
   13.8000002      -5.65642864E-02
   13.8500004      -6.03038594E-02
   13.8999996      -6.42598271E-02
   13.9499998      -6.84476942E-02
   14.0000000      -7.28840902E-02
   14.0500002      -7.75854513E-02
   14.1000004      -8.25666189E-02
   14.1499996      -8.78398418E-02
   14.1999998      -9.34143066E-02
   14.2500000      -9.92964730E-02
   14.3000002     -0.105491102    
   14.3500004     -0.112002842    
   14.3999996     -0.118838087    
   14.4499998     -0.126006514    
   14.5000000     -0.133522183    
   14.5500002     -0.141403988    
   14.6000004     -0.149674982    
   14.6499996     -0.158361182    
   14.6999998     -0.167489827    
   14.7500000     -0.177087456    
   14.8000002     -0.187178120    
   14.8500004     -0.197782010    
   14.8999996     -0.208914816    
   14.9499998     -0.220587581    
   15.0000000     -0.232807785    
   15.0500002     -0.245580852    
   15.1000004     -0.258912623    
   15.1499996     -0.272811800    
   15.1999998     -0.287292570    
   15.2500000     -0.302376032    
   15.3000002     -0.318090588    
   15.3500004     -0.334470481    
   15.3999996     -0.351552933    
   15.4499998     -0.369373739    
   15.5000000     -0.387963325    
   15.5500002     -0.407343298    
   15.6000004     -0.427525580    
   15.6499996     -0.448513985    
   15.6999998     -0.470308334    
   15.7500000     -0.492910504    
   15.8000002     -0.516329765    
   15.8500004     -0.540587008    
   15.8999996     -0.565715015    
   15.9499998     -0.591755569    
   16.0000000     -0.618753552    
   16.0499992     -0.646749139    
   16.1000004     -0.675771534    
   16.1499996     -0.705835104    
   16.2000008     -0.736940265    
   16.2500000     -0.769077897    
   16.2999992     -0.802237272    
   16.3500004     -0.836414158    
   16.3999996     -0.871617019    
   16.4500008     -0.907869339    
   16.5000000     -0.945206881    
   16.5499992     -0.983672202    
   16.6000004      -1.02330613    
   16.6499996      -1.06414127    
   16.7000008      -1.10619700    
   16.7500000      -1.14947951    
   16.7999992      -1.19398546    
   16.8500004      -1.23970747    
   16.8999996      -1.28664112    
   16.9500008      -1.33478761    
   17.0000000      -1.38415682    
   17.0499992      -1.43476367    
   17.1000004      -1.48662496    
   17.1499996      -1.53975463    
   17.2000008      -1.59415996    
   17.2500000      -1.64984107    
   17.2999992      -1.70679188    
   17.3500004      -1.76500332    
   17.3999996      -1.82446671    
   17.4500008      -1.88517654    
   17.5000000      -1.94713223    
   17.5499992      -2.01033640    
   17.6000004      -2.07479477    
   17.6499996      -2.14051342    
   17.7000008      -2.20749760    
   17.7500000      -2.27575016    
   17.7999992      -2.34527040    
   17.8500004      -2.41605258    
   17.8999996      -2.48808575    
   17.9500008      -2.56135011    
   18.0000000      -2.63581896    
   18.0499992      -2.71145749    
   18.1000004      -2.78822780    
   18.1499996      -2.86609387    
   18.2000008      -2.94502735    
   18.2500000      -3.02501273    
   18.2999992      -3.10604811    
   18.3500004      -3.18814158    
   18.3999996      -3.27130508    
   18.4500008      -3.35554338    
   18.5000000      -3.44084692    
   18.5499992      -3.52718425    
   18.6000004      -3.61450624    
   18.6499996      -3.70275116    
   18.7000008      -3.79185748    
   18.7500000      -3.88177490    
   18.7999992      -3.97247195    
   18.8500004      -4.06393909    
   18.8999996      -4.15617990    
   18.9500008      -4.24920177    
   19.0000000      -4.34300089    
   19.0499992      -4.43755531    
   19.1000004      -4.53282022    
   19.1499996      -4.62873316    
   19.2000008      -4.72522783    
   19.2500000      -4.82224512    
   19.2999992      -4.91974068    
   19.3500004      -5.01769161    
   19.3999996      -5.11609125    
   19.4500008      -5.21493626    
   19.5000000      -5.31421614    
   19.5499992      -5.41390467    
   19.6000004      -5.51395607    
   19.6499996      -5.61431503    
   19.7000008      -5.71492481    
   19.7500000      -5.81573915    
   19.7999992      -5.91673279    
   19.8500004      -6.01789618    
   19.8999996      -6.11923170    
   19.9500008      -6.22073746    
   20.0000000      -6.32239485    
   20.0499992      -6.42416191    
   20.1000004      -6.52597666    
   20.1499996      -6.62776804    
   20.2000008      -6.72947216    
   20.2500000      -6.83104706    
   20.2999992      -6.93248272    
   20.3500004      -7.03379679    
   20.3999996      -7.13501930    
   20.4500008      -7.23617649    
   20.5000000      -7.33727217    
   20.5499992      -7.43827486    
   20.6000004      -7.53912258    
   20.6499996      -7.63973808    
   20.7000008      -7.74004412    
   20.7500000      -7.83998775    
   20.7999992      -7.93954897    
   20.8500004      -8.03874302    
   20.8999996      -8.13760948    
   20.9500008      -8.23618603    
   21.0000000      -8.33449745    
   21.0499992      -8.43253899    
   21.1000004      -8.53027630    
   21.1499996      -8.62765980    
   21.2000008      -8.72463512    
   21.2500000      -8.82116413    
   21.2999992      -8.91723442    
   21.3500004      -9.01286125    
   21.3999996      -9.10807514    
   21.4500008      -9.20290756    
   21.5000000      -9.29737949    
   21.5499992      -9.39148712    
   21.6000004      -9.48521328    
   21.6499996      -9.57852650    
   21.7000008      -9.67139626    
   21.7500000      -9.76380730    
   21.7999992      -9.85576153    
   21.8500004      -9.94727135    
   21.8999996      -10.0383568    
   21.9500008      -10.1290302    
   22.0000000      -10.2192926    
   22.0499992      -10.3091335    
   22.1000004      -10.3985415    
   22.1499996      -10.4875126    
   22.2000008      -10.5760603    
   22.2500000      -10.6642160    
   22.2999992      -10.7520247    
   22.3500004      -10.8395271    
   22.3999996      -10.9267492    
   22.4500008      -11.0136881    
   22.5000000      -11.1003170    
   22.5499992      -11.1865921    
   22.6000004      -11.2724733    
   22.6499996      -11.3579445    
   22.7000008      -11.4430189    
   22.7500000      -11.5277510    
   22.7999992      -11.6122103    
   22.8500004      -11.6964684    
   22.8999996      -11.7805681    
   22.9500008      -11.8645144    
   23.0000000      -11.9482689    
   23.0499992      -12.0317688    
   23.1000004      -12.1149521    
   23.1499996      -12.1977816    
   23.2000008      -12.2802639    
   23.2500000      -12.3624525    
   23.2999992      -12.4444332    
   23.3500004      -12.5262976    
   23.3999996      -12.6081171    
   23.4500008      -12.6899214    
   23.5000000      -12.7716961    
   23.5499992      -12.8533907    
   23.6000004      -12.9349432    
   23.6499996      -13.0163136    
   23.7000008      -13.0974922    
   23.7500000      -13.1785135    
   23.7999992      -13.2594376    
   23.8500004      -13.3403339    
   23.8999996      -13.4212513    
   23.9500008      -13.5022087    
   24.0000000      -13.5831842    
   24.0499992      -13.6641321    
   24.1000004      -13.7449999    
   24.1499996      -13.8257542    
   24.2000008      -13.9063931    
   24.2500000      -13.9869547    
   24.2999992      -14.0674992    
   24.3500004      -14.1480951    
   24.3999996      -14.2287912    
   24.4500008      -14.3096066    
   24.5000000      -14.3905239    
   24.5499992      -14.4715042    
   24.6000004      -14.5525036    
   24.6499996      -14.6334896    
   24.7000008      -14.7144594    
   24.7500000      -14.7954388    
   24.7999992      -14.8764753    
   24.8500004      -14.9576216    
   24.8999996      -15.0389194    
   24.9500008      -15.1203852    
   25.0000000      -15.2020073    
   25.0499992      -15.2837601    
   25.1000004      -15.3656054    
   25.1499996      -15.4475174    
   25.2000008      -15.5294828    
   25.2500000      -15.6115093    
   25.2999992      -15.6936188    
   25.3500004      -15.7758389    
   25.3999996      -15.8581905    
   25.4500008      -15.9406824    
   25.5000000      -16.0233135    
   25.5499992      -16.1060791    
   25.6000004      -16.1889687    
   25.6499996      -16.2719822    
   25.7000008      -16.3551292    
   25.7500000      -16.4384251    
   25.7999992      -16.5218887    
   25.8500004      -16.6055317    
   25.8999996      -16.6893578    
   25.9500008      -16.7733631    
   26.0000000      -16.8575344    
   26.0499992      -16.9418564    
   26.1000004      -17.0263119    
   26.1499996      -17.1108913    
   26.2000008      -17.1955872    
   26.2500000      -17.2804050    
   26.2999992      -17.3653488    
   26.3500004      -17.4504166    
   26.3999996      -17.5356178    
   26.4500008      -17.6209412    
   26.5000000      -17.7063789    
   26.5499992      -17.7919273    
   26.6000004      -17.8775692    
   26.6499996      -17.9632988    
   26.7000008      -18.0491066    
   26.7500000      -18.1349888    
   26.7999992      -18.2209396    
   26.8500004      -18.3069630    
   26.8999996      -18.3930511    
   26.9500008      -18.4791908    
   27.0000000      -18.5653725    
   27.0499992      -18.6515732    
   27.1000004      -18.7377605    
   27.1499996      -18.8239040    
   27.2000008      -18.9099731    
   27.2500000      -18.9959412    
   27.2999992      -19.0817928    
   27.3500004      -19.1675243    
   27.3999996      -19.2531376    
   27.4500008      -19.3386250    
   27.5000000      -19.4239674    
   27.5499992      -19.5091228    
   27.6000004      -19.5940285    
   27.6499996      -19.6786079    
   27.7000008      -19.7627754    
   27.7500000      -19.8464642    
   27.7999992      -19.9296227    
   27.8500004      -20.0122204    
   27.8999996      -20.0942516    
   27.9500008      -20.1757050    
   28.0000000      -20.2565632    
   28.0499992      -20.3367786    
   28.1000004      -20.4162807    
   28.1499996      -20.4949665    
   28.2000008      -20.5727272    
   28.2500000      -20.6494522    
   28.2999992      -20.7250462    
   28.3500004      -20.7994289    
   28.3999996      -20.8725243    
   28.4500008      -20.9442501    
   28.5000000      -21.0145035    
   28.5499992      -21.0831490    
   28.6000004      -21.1500282    
   28.6499996      -21.2149734    
   28.7000008      -21.2778244    
   28.7500000      -21.3384438    
   28.7999992      -21.3967190    
   28.8500004      -21.4525604    
   28.8999996      -21.5058689    
   28.9500008      -21.5565147    
   29.0000000      -21.6043167    
   29.0499992      -21.6490440    
   29.1000004      -21.6904221    
   29.1499996      -21.7281685    
   29.2000008      -21.7620239    
   29.2500000      -21.7917767    
   29.2999992      -21.8172646    
   29.3500004      -21.8383522    
   29.3999996      -21.8548927    
   29.4500008      -21.8666973    
   29.5000000      -21.8734875    
   29.5499992      -21.8749084    
   29.6000004      -21.8705578    
   29.6499996      -21.8600197    
   29.7000008      -21.8429146    
   29.7500000      -21.8189316    
   29.7999992      -21.7878361    
   29.8500004      -21.7494373    
   29.8999996      -21.7035332    
   29.9500008      -21.6498623    
   30.0000000      -21.5880623    
   30.0499992      -21.5176716    
   30.1000004      -21.4381618    
   30.1499996      -21.3490009    
   30.2000008      -21.2497005    
   30.2500000      -21.1398659    
   30.2999992      -21.0191994    
   30.3500004      -20.8874550    
   30.3999996      -20.7443886    
   30.4500008      -20.5896816    
   30.5000000      -20.4229145    
   30.5499992      -20.2435493    
   30.6000004      -20.0509911    
   30.6499996      -19.8446388    
   30.7000008      -19.6239586    
   30.7500000      -19.3885250    
   30.7999992      -19.1380196    
   30.8500004      -18.8721924    
   30.8999996      -18.5907898    
   30.9500008      -18.2934856    
   31.0000000      -17.9798412    
   31.0499992      -17.6493149    
   31.1000004      -17.3012981    
   31.1499996      -16.9352016    
   31.2000008      -16.5505257    
   31.2500000      -16.1469021    
   31.2999992      -15.7240896    
   31.3500004      -15.2819242    
   31.3999996      -14.8202467    
   31.4500008      -14.3388290    
   31.5000000      -13.8373423    
   31.5499992      -13.3153601    
   31.6000004      -12.7724190    
   31.6499996      -12.2080984    
   31.7000008      -11.6220837    
   31.7500000      -11.0142107    
   31.7999992      -10.3844509    
   31.8500004      -9.73284912    
   31.8999996      -9.05945206    
   31.9500008      -8.36423683    
   32.0000000      -7.64708710    
   32.0499992      -6.90781212    
   32.0999985      -6.14621592    
   32.1500015      -5.36218023    
   32.2000008      -4.55573320    
   32.2500000      -3.72707653    
   32.2999992      -2.87655854    
   32.3499985      -2.00460529    
   32.4000015      -1.11163211    
   32.4500008     -0.197975665    
   32.5000000      0.736126423    
   32.5499992       1.69050634    
   32.5999985       2.66498876    
   32.6500015       3.65930080    
   32.7000008       4.67300224    
   32.7500000       5.70546341    
   32.7999992       6.75589848    