  -10.0000000       1.00000002E-24
  -9.94999981       1.00000002E-24
  -9.89999962       1.00000002E-24
  -9.85000038       1.00000002E-24
  -9.80000019       1.00000002E-24
  -9.75000000       1.00000002E-24
  -9.69999981       1.00000002E-24
  -9.64999962       1.00000012E-24
  -9.60000038       1.00000022E-24
  -9.55000019       1.00000012E-24
  -9.50000000       1.00001175E-24
  -9.44999981       1.00014941E-24
  -9.39999962       1.00093028E-24
  -9.35000038       1.00422516E-24
  -9.30000019       1.01815200E-24
  -9.25000000       1.08077760E-24
  -9.19999981       1.33848781E-24
  -9.14999962       2.20619211E-24
  -9.10000038       4.48410548E-24
  -9.05000019       8.90298636E-24
  -9.00000000       1.41718231E-23
  -8.94999981       1.33368911E-23
  -8.89999962      -8.03731801E-24
  -8.85000038      -6.14198455E-23
  -8.80000019      -1.18069178E-22
  -8.75000000      -4.52977153E-23
  -8.69999981       4.30547054E-22
  -8.64999962       1.59523932E-21
  -8.60000038       3.26582215E-21
  -8.55000019       3.92239111E-21
  -8.50000000      -6.23844267E-23
  -8.44999981      -1.37593627E-20
  -8.39999962      -3.96287820E-20
  -8.35000038      -6.89581961E-20
  -8.30000019      -7.13754893E-20
  -8.25000000       8.25443776E-21
  -8.19999981       2.29598842E-19
  -8.14999962       5.98341251E-19
  -8.10000038       9.72998389E-19
  -8.05000019       9.81856356E-19
  -8.00000000       4.73101654E-20
  -7.94999981      -2.35800552E-18
  -7.90000010      -6.15479617E-18
  -7.84999990      -9.91985927E-18
  -7.80000019      -1.03938462E-17
  -7.75000000      -2.95113972E-18
  -7.69999981       1.62407583E-17
  -7.65000010       4.62270746E-17
  -7.59999990       7.66113706E-17
  -7.55000019       8.51693217E-17
  -7.50000000       4.19042750E-17
  -7.44999981      -7.69968235E-17
  -7.40000010      -2.65838114E-16
  -7.34999990      -4.64584760E-16
  -7.30000019      -5.48745689E-16
  -7.25000000      -3.54471218E-16
  -7.19999981       2.46958676E-16
  -7.15000010       1.23260563E-15
  -7.09999990       2.31124798E-15
  -7.05000019       2.88353330E-15
  -7.00000000       2.16803843E-15
  -6.94999981      -4.53906533E-16
  -6.90000010      -4.92040211E-15
  -6.84999990      -9.98894520E-15
  -6.80000019      -1.30789798E-14
  -6.75000000      -1.08129660E-14
  -6.69999981      -4.46671760E-16
  -6.65000010       1.80206022E-14
  -6.59999990       3.98223223E-14
  -6.55000019       5.47436479E-14
  -6.50000000       4.91259526E-14
  -6.44999981       1.12643854E-14
  -6.40000010      -6.05613514E-14
  -6.34999990      -1.50182818E-13
  -6.30000019      -2.20269603E-13
  -6.25000000      -2.18544190E-13
  -6.19999981      -9.62443084E-14
  -6.15000010       1.63309728E-13
  -6.09999990       5.14933745E-13
  -6.05000019       8.35559486E-13
  -6.00000000       9.38767510E-13
  -5.94999981       6.30805141E-13
  -5.90000010      -1.95841675E-13
  -5.84999990      -1.45653574E-12
  -5.80000019      -2.80191560E-12
  -5.75000000      -3.63328248E-12
  -5.69999981      -3.24742685E-12
  -5.65000010      -1.11200545E-12
  -5.59999990       2.78941215E-12
  -5.55000019       7.66831650E-12
  -5.50000000       1.18620305E-11
  -5.44999981       1.31284220E-11
  -5.40000010       9.35256126E-12
  -5.34999990      -4.50970153E-13
  -5.30000019      -1.51454179E-11
  -5.25000000      -3.09330096E-11
  -5.19999981      -4.17176987E-11
  -5.15000010      -4.06240215E-11
  -5.09999990      -2.25363513E-11
  -5.05000019       1.29767577E-11
  -5.00000000       5.94253119E-11
  -4.94999981       1.03078518E-10
  -4.90000010       1.25493144E-10
  -4.84999990       1.09003785E-10
  -4.80000019       4.41034327E-11
  -4.75000000      -6.35553624E-11
  -4.69999981      -1.89521787E-10
  -4.65000010      -2.93002261E-10
  -4.59999990      -3.26678656E-10
  -4.55000019      -2.52647375E-10
  -4.50000000      -6.03412459E-11
  -4.44999981       2.19938484E-10
  -4.40000010       5.14689513E-10
  -4.34999990       7.20742077E-10
  -4.30000019       7.34610817E-10
  -4.25000000       4.91383267E-10
  -4.19999981       1.12710774E-12
  -4.15000010      -6.32006336E-10
  -4.09999990      -1.22063482E-09
  -4.05000019      -1.53979884E-09
  -4.00000000      -1.40020628E-09
  -3.95000005      -7.29029559E-10
  -3.90000010       3.70526138E-10
  -3.84999990       1.60971692E-09
  -3.79999995       2.57247001E-09
  -3.75000000       2.83774626E-09
  -3.70000005       2.13672435E-09
  -3.65000010       4.93975194E-10
  -3.59999990      -1.70585790E-09
  -3.54999995      -3.77137965E-09
  -3.50000000      -4.88912422E-09
  -3.45000005      -4.40324355E-09
  -3.40000010      -2.10753015E-09
  -3.34999990       1.55949542E-09
  -3.29999995       5.51698154E-09
  -3.25000000       8.29232238E-09
  -3.20000005       8.48817994E-09
  -3.15000010       5.34261213E-09
  -3.09999990      -8.08802414E-10
  -3.04999995      -8.37173886E-09
  -3.00000000      -1.47727288E-08
  -2.95000005      -1.71869541E-08
  -2.90000010      -1.35527394E-08
  -2.84999990      -3.56113805E-09
  -2.79999995       1.07602922E-08
  -2.75000000       2.51932217E-08
  -2.70000005       3.43340432E-08
  -2.65000010       3.32997203E-08
  -2.59999990       1.96741734E-08
  -2.54999995      -4.96627051E-09
  -2.50000000      -3.46139757E-08
  -2.45000005      -5.99024759E-08
  -2.40000010      -7.06616916E-08
  -2.34999990      -5.93790794E-08
  -2.29999995      -2.45273064E-08
  -2.25000000       2.74705823E-08
  -2.20000005       8.26536635E-08
  -2.15000010       1.22701493E-07
  -2.09999990       1.30362949E-07
  -2.04999995       9.57071364E-08
  -2.00000000       2.11707682E-08
  -1.95000005      -7.66249499E-08
  -1.89999998      -1.69598678E-07
  -1.85000002      -2.25459971E-07
  -1.79999995      -2.17886637E-07
  -1.75000000      -1.36689323E-07
  -1.70000005       5.54542856E-09
  -1.64999998       1.73299796E-07
  -1.60000002       3.15744757E-07
  -1.54999995       3.80985909E-07
  -1.50000000       3.33298715E-07
  -1.45000005       1.68031491E-07
  -1.39999998      -8.12956671E-08
  -1.35000002      -3.47471826E-07
  -1.29999995      -5.46145600E-07
  -1.25000000      -6.00924238E-07
  -1.20000005      -4.70015607E-07
  -1.14999998      -1.65730825E-07
  -1.10000002       2.40840649E-07
  -1.04999995       6.33911611E-07
  -1.00000000       8.84083988E-07
 -0.949999988       8.88722809E-07
 -0.899999976       6.09612471E-07
 -0.850000024       9.49994288E-08
 -0.800000012      -5.23576034E-07
 -0.750000000      -1.06225730E-06
 -0.699999988      -1.33738445E-06
 -0.649999976      -1.22523966E-06
 -0.600000024      -7.10341681E-07
 -0.550000012       9.51499075E-08
 -0.500000000       9.71140707E-07
 -0.449999988       1.64707023E-06
 -0.400000006       1.88315414E-06
 -0.349999994       1.55177861E-06
 -0.300000012       6.92397634E-07
 -0.250000000      -4.81298798E-07
 -0.200000003      -1.63006632E-06
 -0.150000006      -2.38436542E-06
 -0.100000001      -2.46050013E-06
  -5.00000007E-02  -1.76206674E-06
   0.00000000      -4.31841357E-07
   5.00000007E-02   1.16845638E-06
  0.100000001       2.55194141E-06
  0.150000006       3.25129554E-06
  0.200000003       2.97263136E-06
  0.250000000       1.70910278E-06
  0.300000012      -2.27240463E-07
  0.349999994      -2.27442911E-06
  0.400000006      -3.77834976E-06
  0.449999988      -4.19683283E-06
  0.500000000      -3.28792476E-06
  0.550000012      -1.21897767E-06
  0.600000024       1.44728278E-06
  0.649999976       3.89758861E-06
  0.699999988       5.30949410E-06
  0.750000000       5.11971984E-06
  0.800000012       3.23409131E-06
  0.850000024       1.04374969E-07
  0.899999976      -3.36632138E-06
  0.949999988      -6.07536140E-06
   1.00000000      -7.06233595E-06
   1.04999995      -5.83736755E-06
   1.10000002      -2.58695604E-06
   1.14999998       1.82197994E-06
   1.20000005       6.06060530E-06
   1.25000000       8.72890359E-06
   1.29999995       8.80703283E-06
   1.35000002       6.02516184E-06
   1.39999998       1.02289323E-06
   1.45000005      -4.77388858E-06
   1.50000000      -9.54514508E-06
   1.54999995      -1.16348810E-05
   1.60000002      -1.01084715E-05
   1.64999998      -5.12686665E-06
   1.70000005       2.00186378E-06
   1.75000000       9.14080283E-06
   1.79999995       1.39432732E-05
   1.85000002       1.45992817E-05
   1.89999998       1.04783376E-05
   1.95000005       2.44996340E-06
   2.00000000      -7.25236669E-06
   2.04999995      -1.56225269E-05
   2.09999990      -1.97795944E-05
   2.15000010      -1.79110484E-05
   2.20000005      -9.96191284E-06
   2.25000000       2.17482625E-06
   2.29999995       1.50729074E-05
   2.34999990       2.47147400E-05
   2.40000010       2.77075669E-05
   2.45000005       2.24117230E-05
   2.50000000       9.61616570E-06
   2.54999995      -7.49046785E-06
   2.59999990      -2.41026228E-05
   2.65000010      -3.51497474E-05
   2.70000005      -3.68387919E-05
   2.75000000      -2.79194701E-05
   2.79999995      -1.02564891E-05
   2.84999990       1.15203711E-05
   2.90000010       3.12446573E-05
   2.95000005       4.29981410E-05
   3.00000000       4.29337888E-05
   3.04999995       3.05715184E-05
   3.09999990       9.12943324E-06
   3.15000010      -1.52725897E-05
   3.20000005      -3.53565956E-05
   3.25000000      -4.48881510E-05
   3.29999995      -4.06720173E-05
   3.34999990      -2.37020304E-05
   3.40000010       9.47086164E-07
   3.45000005       2.55258765E-05
   3.50000000       4.19457647E-05
   3.54999995       4.43581921E-05
   3.59999990       3.11714793E-05
   3.65000010       5.82767552E-06
   3.70000005      -2.39868878E-05
   3.75000000      -4.85460878E-05
   3.79999995      -5.90922573E-05
   3.84999990      -5.07411096E-05
   3.90000010      -2.43496816E-05
   3.95000005       1.33187605E-05
   4.00000000       5.13021259E-05
   4.05000019       7.76059096E-05
   4.09999990       8.29254350E-05
   4.15000010       6.37846315E-05
   4.19999981       2.40608970E-05
   4.25000000      -2.56935946E-05
   4.30000019      -7.10682434E-05
   4.34999990      -9.80060140E-05
   4.40000010      -9.71832123E-05
   4.44999981      -6.71991947E-05
   4.50000000      -1.55063699E-05
   4.55000019       4.33476307E-05
   4.59999990       9.17793368E-05
   4.65000010       1.14402472E-04
   4.69999981       1.02874794E-04
   4.75000000       5.88305484E-05
   4.80000019      -6.11699033E-06
   4.84999990      -7.34592468E-05
   4.90000010      -1.23162172E-04
   4.94999981      -1.39763477E-04
   5.00000000      -1.17328316E-04
   5.05000019      -6.16530233E-05
   5.09999990       1.11127365E-05
   5.15000010       7.91726052E-05
   5.19999981       1.21802732E-04
   5.25000000       1.26061670E-04
   5.30000019       9.13612530E-05
   5.34999990       3.03279103E-05
   5.40000010      -3.45305234E-05
   5.44999981      -7.75372828E-05
   5.50000000      -7.80058617E-05
   5.55000019      -2.73413243E-05
   5.59999990       6.72374954E-05
   5.65000010       1.83751341E-04
   5.69999981       2.91269185E-04
   5.75000000       3.58958845E-04
   5.80000019       3.65759246E-04
   5.84999990       3.07701353E-04
   5.90000010       2.00456881E-04
   5.94999981       7.60289113E-05
   6.00000000      -2.57558968E-05
   6.05000019      -6.86568019E-05
   6.09999990      -3.10166797E-05
   6.15000010       8.70175718E-05
   6.19999981       2.62439396E-04
   6.25000000       4.55123663E-04
   6.30000019       6.18962862E-04
   6.34999990       7.15298404E-04
   6.40000010       7.24714017E-04
   6.44999981       6.53586292E-04
   6.50000000       5.33222512E-04
   6.55000019       4.11566696E-04
   6.59999990       3.39691731E-04
   6.65000010       3.56947450E-04
   6.69999981       4.79170005E-04
   6.75000000       6.93579030E-04
   6.80000019       9.62088176E-04
   6.84999990       1.23226875E-03
   6.90000010       1.45287602E-03
   6.94999981       1.58938137E-03
   7.00000000       1.63483166E-03
   7.05000019       1.61264662E-03
   7.09999990       1.57032546E-03
   7.15000010       1.56576466E-03
   7.19999981       1.65017927E-03
   7.25000000       1.85275020E-03
   7.30000019       2.17171665E-03
   7.34999990       2.57477630E-03
   7.40000010       3.00887576E-03
   7.44999981       3.41659994E-03
   7.50000000       3.75427748E-03
   7.55000019       4.00626939E-03
   7.59999990       4.19095578E-03
   7.65000010       4.35638381E-03
   7.69999981       4.56668157E-03
   7.75000000       4.88323392E-03
   7.80000019       5.34633128E-03
   7.84999990       5.96302515E-03
   7.90000010       6.70511555E-03
   7.94999981       7.51817692E-03
   8.00000000       8.33908655E-03
   8.05000019       9.11679398E-03
   8.10000038       9.82990302E-03
   8.14999962       1.04954289E-02
   8.19999981       1.11656943E-02
   8.25000000       1.19139645E-02
   8.30000019       1.28129600E-02
   8.35000038       1.39128221E-02
   8.39999962       1.52254757E-02
   8.44999981       1.67206097E-02
   8.50000000       1.83350220E-02
   8.55000019       1.99929737E-02
   8.60000038       2.16316134E-02
   8.64999962       2.32237242E-02
   8.69999981       2.47905795E-02
   8.75000000       2.64004488E-02
   8.80000019       2.81526279E-02
   8.85000038       3.01513392E-02
   8.89999962       3.24770845E-02
   8.94999981       3.51641811E-02
   9.00000000       3.81915420E-02
   9.05000019       4.14899364E-02
   9.10000038       4.49640527E-02
   9.14999962       4.85230684E-02
   9.19999981       5.21107279E-02
   9.25000000       5.57258166E-02
   9.30000019       5.94266839E-02
   9.35000038       6.33182302E-02
   9.39999962       6.75249770E-02
   9.44999981       7.21583590E-02
   9.50000000       7.72879347E-02
   9.55000019       8.29254016E-02
   9.60000038       8.90263170E-02
   9.64999962       9.55091044E-02
   9.69999981      0.102285512    
   9.75000000      0.109293364    
   9.80000019      0.116521321    
   9.85000038      0.124018252    
   9.89999962      0.131883994    
   9.94999981      0.140244618    
   10.0000000      0.149219558    
   10.0500002      0.158891022    
   10.1000004      0.169285059    
   10.1499996      0.180370316    
   10.1999998      0.192074925    
   10.2500000      0.204316437    
   10.3000002      0.217035562    
   10.3500004      0.230222955    
   10.3999996      0.243931144    
   10.4499998      0.258267254    
   10.5000000      0.273368984    
   10.5500002      0.289370775    
   10.6000004      0.306370825    
   10.6499996      0.324409276    
   10.6999998      0.343463898    
   10.7500000      0.363465399    
   10.8000002      0.384327352    
   10.8500004      0.405982196    
   10.8999996      0.428411394    
   10.9499998      0.451661736    
   11.0000000      0.475841075    
   11.0500002      0.501095712    
   11.1000004      0.527575731    
   11.1499996      0.555398941    
   11.1999998      0.584624290    
   11.2500000      0.615243852    
   11.3000002      0.647194803    
   11.3500004      0.680389464    
   11.3999996      0.714752972    
   11.4499998      0.750257850    
   11.5000000      0.786943972    
   11.5500002      0.824917495    
   11.6000004      0.864328742    
   11.6499996      0.905334711    
   11.6999998      0.948058426    
   11.7500000      0.992557347    
   11.8000002       1.03881145    
   11.8500004       1.08673489    
   11.8999996       1.13620853    
   11.9499998       1.18712449    
   12.0000000       1.23942828    
   12.0500002       1.29314446    
   12.1000004       1.34837961    
   12.1499996       1.40529835    
   12.1999998       1.46407986    
   12.2500000       1.52486932    
   12.3000002       1.58773696    
   12.3500004       1.65265965    
   12.3999996       1.71953130    
   12.4499998       1.78819931    
   12.5000000       1.85851467    
   12.5500002       1.93038440    
   12.6000004       2.00380421    
   12.6499996       2.07886553    
   12.6999998       2.15572810    
   12.7500000       2.23457313    
   12.8000002       2.31554341    
   12.8500004       2.39869404    
   12.8999996       2.48396945    
   12.9499998       2.57121062    
   13.0000000       2.66019773    
   13.0500002       2.75070882    
   13.1000004       2.84258413    
   13.1499996       2.93576908    
   13.1999998       3.03033066    
   13.2500000       3.12643170    
   13.3000002       3.22428203    
   13.3500004       3.32406974    
   13.3999996       3.42589903    
   13.4499998       3.52975059    
   13.5000000       3.63547754    
   13.5500002       3.74283504    
   13.6000004       3.85153651    
   13.6499996       3.96132040    
   13.6999998       4.07200670    
   13.7500000       4.18353033    
   13.8000002       4.29593897    
   13.8500004       4.40936470    
   13.8999996       4.52396917    
   13.9499998       4.63988638    
   14.0000000       4.75717545    
   14.0500002       4.87579536    
   14.1000004       4.99560690    
   14.1499996       5.11640120    
   14.1999998       5.23793936    
   14.2500000       5.36000061    
   14.3000002       5.48241806    
   14.3500004       5.60509777    
   14.3999996       5.72801352    
   14.4499998       5.85118914    
   14.5000000       5.97466469    
   14.5500002       6.09846878    
   14.6000004       6.22259045    
   14.6499996       6.34697104    
   14.6999998       6.47151041    
   14.7500000       6.59608173    
   14.8000002       6.72055912    
   14.8500004       6.84483194    
   14.8999996       6.96882153    
   14.9499998       7.09247875    
   15.0000000       7.21577168    
   15.0500002       7.33866596    
   15.1000004       7.46110582    
   15.1499996       7.58300018    
   15.1999998       7.70422506    
   15.2500000       7.82463932    
   15.3000002       7.94410706    
   15.3500004       8.06253242    
   15.3999996       8.17987633    
   15.4499998       8.29616451    
   15.5000000       8.41147423    
   15.5500002       8.52590179    
   15.6000004       8.63952160    
   15.6499996       8.75234509    
   15.6999998       8.86429787    
   15.7500000       8.97521877    
   15.8000002       9.08488941    
   15.8500004       9.19308186    
   15.8999996       9.29961014    
   15.9499998       9.40438175    
   16.0000000       9.50741291    
   16.0499992       9.60882854    
   16.1000004       9.70881939    
   16.1499996       9.80758572    
   16.2000008       9.90527916    
   16.2500000       10.0019579    
   16.2999992       10.0975714    
   16.3500004       10.1919737    
   16.3999996       10.2849636    
   16.4500008       10.3763475    
   16.5000000       10.4659834    
   16.5499992       10.5538225    
   16.6000004       10.6399117    
   16.6499996       10.7243757    
   16.7000008       10.8073864    
   16.7500000       10.8891115    
   16.7999992       10.9696817    
   16.8500004       11.0491734    
   16.8999996       11.1276026    
   16.9500008       11.2049379    
   17.0000000       11.2811270    
   17.0499992       11.3561134    
   17.1000004       11.4298611    
   17.1499996       11.5023556    
   17.2000008       11.5736122    
   17.2500000       11.6436710    
   17.2999992       11.7125921    
   17.3500004       11.7804546    
   17.3999996       11.8473492    
   17.4500008       11.9133787    
   17.5000000       11.9786463    
   17.5499992       12.0432482    
   17.6000004       12.1072607    
   17.6499996       12.1707315    
   17.7000008       12.2336750    
   17.7500000       12.2960825    
   17.7999992       12.3579321    
   17.8500004       12.4192057    
   17.8999996       12.4799070    
   17.9500008       12.5400715    
   18.0000000       12.5997686    
   18.0499992       12.6590881    
   18.1000004       12.7181349    
   18.1499996       12.7770061    
   18.2000008       12.8357859    
   18.2500000       12.8945379    
   18.2999992       12.9533100    
   18.3500004       13.0121346    
   18.3999996       13.0710411    
   18.4500008       13.1300573    
   18.5000000       13.1892080    
   18.5499992       13.2485123    
   18.6000004       13.3079872    
   18.6499996       13.3676434    
   18.7000008       13.4274998    
   18.7500000       13.4875793    
   18.7999992       13.5479269    
   18.8500004       13.6086025    
   18.8999996       13.6696758    
   18.9500008       13.7312164    
   19.0000000       13.7932758    
   19.0499992       13.8558807    
   19.1000004       13.9190254    
   19.1499996       13.9826965    
   19.2000008       14.0468712    
   19.2500000       14.1115541    
   19.2999992       14.1767740    
   19.3500004       14.2425928    
   19.3999996       14.3090858    
   19.4500008       14.3763189    
   19.5000000       14.4443274    
   19.5499992       14.5130997    
   19.6000004       14.5825844    
   19.6499996       14.6527052    
   19.7000008       14.7233944    
   19.7500000       14.7946205    
   19.7999992       14.8663998    
   19.8500004       14.9388008    
   19.8999996       15.0119190    
   19.9500008       15.0858450    
   20.0000000       15.1606379    
   20.0499992       15.2362976    
   20.1000004       15.3127785    
   20.1499996       15.3899975    
   20.2000008       15.4678764    
   20.2500000       15.5463676    
   20.2999992       15.6254635    
   20.3500004       15.7051907    
   20.3999996       15.7855988    
   20.4500008       15.8667192    
   20.5000000       15.9485502    
   20.5499992       16.0310497    
   20.6000004       16.1141434    
   20.6499996       16.1977615    
   20.7000008       16.2818584    
   20.7500000       16.3664379    
   20.7999992       16.4515533    
   20.8500004       16.5372810    
   20.8999996       16.6236916    
   20.9500008       16.7108192    
   21.0000000       16.7986317    
   21.0499992       16.8870506    
   21.1000004       16.9759598    
   21.1499996       17.0652485    
   21.2000008       17.1548443    
   21.2500000       17.2447186    
   21.2999992       17.3348904    
   21.3500004       17.4253941    
   21.3999996       17.5162449    
   21.4500008       17.6074276    
   21.5000000       17.6988850    
   21.5499992       17.7905407    
   21.6000004       17.8823299    
   21.6499996       17.9742298    
   21.7000008       18.0662746    
   21.7500000       18.1585312    
   21.7999992       18.2510681    
   21.8500004       18.3439178    
   21.8999996       18.4370270    
   21.9500008       18.5302715    
   22.0000000       18.6234665    
   22.0499992       18.7164230    
   22.1000004       18.8090115    
   22.1499996       18.9011898    
   22.2000008       18.9930115    
   22.2500000       19.0845966    
   22.2999992       19.1760578    
   22.3500004       19.2674484    
   22.3999996       19.3587074    
   22.4500008       19.4496765    
   22.5000000       19.5401402    
   22.5499992       19.6298962    
   22.6000004       19.7188263    
   22.6499996       19.8069286    
   22.7000008       19.8943100    
   22.7500000       19.9811172    
   22.7999992       20.0674667    
   22.8500004       20.1533566    
   22.8999996       20.2386379    
   22.9500008       20.3230476    
   23.0000000       20.4062786    
   23.0499992       20.4880695    
   23.1000004       20.5682907    
   23.1499996       20.6469727    
   23.2000008       20.7242775    
   23.2500000       20.8004169    
   23.2999992       20.8755398    
   23.3500004       20.9496498    
   23.3999996       21.0225754    
   23.4500008       21.0940075    
   23.5000000       21.1635838    
   23.5499992       21.2310009    
   23.6000004       21.2961102    
   23.6499996       21.3589249    
   23.7000008       21.4195919    
   23.7500000       21.4783077    
   23.7999992       21.5351982    
   23.8500004       21.5902538    
   23.8999996       21.6433105    
   23.9500008       21.6940918    
   24.0000000       21.7423019    
   24.0499992       21.7877159    
   24.1000004       21.8302364    
   24.1499996       21.8698921    
   24.2000008       21.9067860    
   24.2500000       21.9410000    
   24.2999992       21.9725189    
   24.3500004       22.0011959    
   24.3999996       22.0267811    
   24.4500008       22.0490017    
   24.5000000       22.0676556    
   24.5499992       22.0826817    
   24.6000004       22.0941696    
   24.6499996       22.1023140    
   24.7000008       22.1072884    
   24.7500000       22.1091652    
   24.7999992       22.1078415    
   24.8500004       22.1030464    
   24.8999996       22.0944233    
   24.9500008       22.0816555    
   25.0000000       22.0645714    
   25.0499992       22.0432110    
   25.1000004       22.0177956    
   25.1499996       21.9886189    
   25.2000008       21.9559174    
   25.2500000       21.9197521    
   25.2999992       21.8799572    
   25.3500004       21.8361950    
   25.3999996       21.7880783    
   25.4500008       21.7353153    
   25.5000000       21.6778469    
   25.5499992       21.6158733    
   25.6000004       21.5497913    
   25.6499996       21.4800472    
   25.7000008       21.4069672    
   25.7500000       21.3306255    
   25.7999992       21.2508354    
   25.8500004       21.1672096    
   25.8999996       21.0793228    
   25.9500008       20.9868965    
   26.0000000       20.8899155    
   26.0499992       20.7886486    
   26.1000004       20.6835613    
   26.1499996       20.5751495    
   26.2000008       20.4637737    
   26.2500000       20.3495407    
   26.2999992       20.2322941    
   26.3500004       20.1117249    
   26.3999996       19.9875336    
   26.4500008       19.8595867    
   26.5000000       19.7280121    
   26.5499992       19.5931988    
   26.6000004       19.4556522    
   26.6499996       19.3158569    
   26.7000008       19.1741066    
   26.7500000       19.0304394    
   26.7999992       18.8846722    
   26.8500004       18.7365303    
   26.8999996       18.5858059    
   26.9500008       18.4325027    
   27.0000000       18.2768841    
   27.0499992       18.1194057    
   27.1000004       17.9605961    
   27.1499996       17.8008728    
   27.2000008       17.6404552    
   27.2500000       17.4793205    
   27.2999992       17.3172894    
   27.3500004       17.1541710    
   27.3999996       16.9899082    
   27.4500008       16.8246632    
   27.5000000       16.6588116    
   27.5499992       16.4928398    
   27.6000004       16.3271885    
   27.6499996       16.1621323    
   27.7000008       15.9977093    
   27.7500000       15.8337669    
   27.7999992       15.6700926    
   27.8500004       15.5065613    
   27.8999996       15.3432550    
   27.9500008       15.1804914    
   28.0000000       15.0187464    
   28.0499992       14.8585081    
   28.1000004       14.7001190    
   28.1499996       14.5436773    
   28.2000008       14.3890362    
   28.2500000       14.2359133    
   28.2999992       14.0840559    
   28.3500004       13.9333935    
   28.3999996       13.7841225    
   28.4500008       13.6366615    
   28.5000000       13.4915190    
   28.5499992       13.3491087    
   28.6000004       13.2096004    
   28.6499996       13.0728655    
   28.7000008       12.9385414    
   28.7500000       12.8062057    
   28.7999992       12.6755667    
   28.8500004       12.5466156    
   28.8999996       12.4196606    
   28.9500008       12.2952309    
   29.0000000       12.1738901    
   29.0499992       12.0560207    
   29.1000004       11.9416847    
   29.1499996       11.8306007    
   29.2000008       11.7222538    
   29.2500000       11.6160946    
   29.2999992       11.5117493    
   29.3500004       11.4091501    
   29.3999996       11.3085451    
   29.4500008       11.2103815    
   29.5000000       11.1151085    
   29.5499992       11.0229959    
   29.6000004       10.9340258    
   29.6499996       10.8479033    
   29.7000008       10.7641869    
   29.7500000       10.6824636    
   29.7999992       10.6025057    
   29.8500004       10.5243368    
   29.8999996       10.4481792    
   29.9500008       10.3743200    
   30.0000000       10.3029423    
   30.0499992       10.2340117    
   30.1000004       10.1672516    
   30.1499996       10.1022425    
   30.2000008       10.0385761    
   30.2500000       9.97601414    
   30.2999992       9.91457844    
   30.3500004       9.85451889    
   30.3999996       9.79618740    
   30.4500008       9.73985481    
   30.5000000       9.68556213    
   30.5499992       9.63305473    
   30.6000004       9.58185101    
   30.6499996       9.53139973    
   30.7000008       9.48127651    
   30.7500000       9.43132782    
   30.7999992       9.38170147    
   30.8500004       9.33275890    
   30.8999996       9.28489780    
   30.9500008       9.23835373    
   31.0000000       9.19308662    
   31.0499992       9.14876938    
   31.1000004       9.10490894    
   31.1499996       9.06103516    
   31.2000008       9.01688004    
   31.2500000       8.97247314    
   31.2999992       8.92809963    
   31.3500004       8.88415718    
   31.3999996       8.84094620    
   31.4500008       8.79851818    
   31.5000000       8.75661373    
   31.5499992       8.71473789    
   31.6000004       8.67235470    
   31.6499996       8.62909031    
   31.7000008       8.58488941    
   31.7500000       8.54003906    
   31.7999992       8.49505520    
   31.8500004       8.45046806    
   31.8999996       8.40660191    
   31.9500008       8.36343670    
   32.0000000       8.32060337    
   32.0499992       8.27752972    
   32.0999985       8.23366070    
   32.1500015       8.18867588    
   32.2000008       8.14260483    
   32.2500000       8.09580421    
   32.2999992       8.04879570    
   32.3499985       8.00204754    
   32.4000015       7.95577717    
   32.4500008       7.90987444    
   32.5000000       7.86395884    
   32.5499992       7.81756067    
   32.5999985       7.77033710    
   32.6500015       7.72223377    
   32.7000008       7.67352104    
   32.7500000       7.62469006    
   32.7999992       7.57624388    