  -10.0000000       0.00000000    
  -9.96000004       0.00000000    
  -9.92000008       0.00000000    
  -9.88000011       0.00000000    
  -9.84000015       0.00000000    
  -9.80000019       0.00000000    
  -9.76000023       0.00000000    
  -9.72000027      -2.03072809E-31
  -9.68000031       9.46576362E-30
  -9.64000034       1.44033885E-28
  -9.60000038       1.01016306E-27
  -9.56000042       4.59868275E-27
  -9.52000046       1.51234080E-26
  -9.47999954       3.69404857E-26
  -9.43999958       6.40303914E-26
  -9.39999962       6.03115963E-26
  -9.35999966      -3.68846738E-26
  -9.31999969      -1.58854930E-25
  -9.27999973       5.49758545E-25
  -9.23999977       5.57487410E-24
  -9.19999981       2.51824848E-23
  -9.15999985       8.42632631E-23
  -9.11999989       2.34900286E-22
  -9.07999992       5.72951922E-22
  -9.03999996       1.25396905E-21
  -9.00000000       2.49695615E-21
  -8.96000004       4.55511077E-21
  -8.92000008       7.62271572E-21
  -8.88000011       1.16411333E-20
  -8.84000015       1.59714149E-20
  -8.80000019       1.89251363E-20
  -8.76000023       1.71972206E-20
  -8.72000027       5.32879444E-21
  -8.68000031      -2.45605256E-20
  -8.64000034      -8.24132517E-20
  -8.60000038      -1.78802444E-19
  -8.56000042      -3.21981527E-19
  -8.52000046      -5.13119159E-19
  -8.47999954      -7.39783087E-19
  -8.43999958      -9.68335158E-19
  -8.39999962      -1.13670850E-18
  -8.35999966      -1.14993956E-18
  -8.31999969      -8.81608476E-19
  -8.27999973      -1.84693844E-19
  -8.23999977       1.08508974E-18
  -8.19999981       3.03196850E-18
  -8.15999985       5.67019116E-18
  -8.11999989       8.86705522E-18
  -8.07999992       1.22893992E-17
  -8.03999996       1.53689413E-17
  -8.00000000       1.73052868E-17
  -7.96000004       1.71257356E-17
  -7.92000008       1.38166294E-17
  -7.88000011       6.53050656E-18
  -7.84000015      -5.14327174E-18
  -7.80000019      -2.08786657E-17
  -7.76000023      -3.93419672E-17
  -7.71999979      -5.80289964E-17
  -7.67999983      -7.33016489E-17
  -7.63999987      -8.07107189E-17
  -7.59999990      -7.56642554E-17
  -7.55999994      -5.44468940E-17
  -7.51999998      -1.55155872E-17
  -7.48000002       3.91031437E-17
  -7.44000006       1.02592829E-16
  -7.40000010       1.62670878E-16
  -7.36000013       2.01868439E-16
  -7.32000017       1.99152732E-16
  -7.28000021       1.33153976E-16
  -7.23999977      -1.29724510E-17
  -7.19999981      -2.45359822E-16
  -7.15999985      -5.52652258E-16
  -7.11999989      -8.99814111E-16
  -7.07999992      -1.22410311E-15
  -7.03999996      -1.43502406E-15
  -7.00000000      -1.42006101E-15
  -6.96000004      -1.05760788E-15
  -6.92000008      -2.37708997E-16
  -6.88000011       1.11001254E-15
  -6.84000015       2.98348340E-15
  -6.80000019       5.27442546E-15
  -6.76000023       7.73956111E-15
  -6.71999979       9.98405358E-15
  -6.67999983       1.14651127E-14
  -6.63999987       1.15232175E-14
  -6.59999990       9.44658238E-15
  -6.55999994       4.57088413E-15
  -6.51999998      -3.58868759E-15
  -6.48000002      -1.51824235E-14
  -6.44000006      -2.98644166E-14
  -6.40000010      -4.66472259E-14
  -6.36000013      -6.38013202E-14
  -6.32000017      -7.88302393E-14
  -6.28000021      -8.85516297E-14
  -6.23999977      -8.93079556E-14
  -6.19999981      -7.73195527E-14
  -6.15999985      -4.91762054E-14
  -6.11999989      -2.44212749E-15
  -6.07999992       6.36736893E-14
  -6.03999996       1.47653794E-13
  -6.00000000       2.45106832E-13
  -5.96000004       3.48405061E-13
  -5.92000008       4.46631962E-13
  -5.88000011       5.25935361E-13
  -5.84000015       5.70354853E-13
  -5.80000019       5.63148432E-13
  -5.76000023       4.88588662E-13
  -5.71999979       3.34127230E-13
  -5.67999983       9.27612005E-14
  -5.63999987      -2.34635553E-13
  -5.59999990      -6.37303524E-13
  -5.55999994      -1.09322685E-12
  -5.51999998      -1.56871478E-12
  -5.48000002      -2.01920425E-12
  -5.44000006      -2.39147070E-12
  -5.40000010      -2.62731070E-12
  -5.36000013      -2.66859950E-12
  -5.32000017      -2.46345587E-12
  -5.28000021      -1.97305627E-12
  -5.23999977      -1.17848613E-12
  -5.19999981      -8.68853532E-14
  -5.15999985       1.26391551E-12
  -5.11999989       2.80305423E-12
  -5.07999992       4.42726888E-12
  -5.03999996       6.00497560E-12
  -5.00000000       7.38397798E-12
  -4.96000004       8.40262148E-12
  -4.92000008       8.90382039E-12
  -4.88000011       8.75097130E-12
  -4.84000015       7.84441869E-12
  -4.80000019       6.13685708E-12
  -4.76000023       3.64593945E-12
  -4.71999979       4.62379104E-13
  -4.67999983      -3.24793014E-12
  -4.63999987      -7.24884475E-12
  -4.59999990      -1.12464413E-11
  -4.55999994      -1.49087721E-11
  -4.51999998      -1.78918807E-11
  -4.48000002      -1.98702825E-11
  -4.44000006      -2.05693726E-11
  -4.40000010      -1.97967545E-11
  -4.36000013      -1.74691962E-11
  -4.32000017      -1.36319983E-11
  -4.28000021      -8.46790780E-12
  -4.23999977      -2.29351065E-12
  -4.19999981       4.45791277E-12
  -4.15999985       1.12668546E-11
  -4.11999989       1.75696766E-11
  -4.07999992       2.28093204E-11
  -4.03999996       2.64903308E-11
  -4.00000000       2.82330270E-11
  -3.96000004       2.78211672E-11
  -3.92000008       2.52374927E-11
  -3.88000011       2.06822563E-11
  -3.83999991       1.45710059E-11
  -3.79999995       7.50971420E-12
  -3.75999999       2.47429627E-13
  -3.72000003      -6.39097195E-12
  -3.68000007      -1.15871384E-11
  -3.64000010      -1.46197082E-11
  -3.59999990      -1.49544457E-11
  -3.55999994      -1.23246968E-11
  -3.51999998      -6.79286792E-12
  -3.48000002       1.21556866E-12
  -3.44000006       1.09119016E-11
  -3.40000010       2.11817595E-11
  -3.35999990       3.06608385E-11
  -3.31999993       3.78454872E-11
  -3.27999997       4.12311990E-11
  -3.24000001       3.94684112E-11
  -3.20000005       3.15227393E-11
  -3.16000009       1.68244967E-11
  -3.11999989      -4.60759859E-12
  -3.07999992      -3.20830550E-11
  -3.03999996      -6.42082498E-11
  -3.00000000      -9.89156673E-11
  -2.96000004      -1.33557040E-10
  -2.92000008      -1.65058550E-10
  -2.88000011      -1.90130467E-10
  -2.83999991      -2.05518144E-10
  -2.79999995      -2.08276826E-10
  -2.75999999      -1.96048927E-10
  -2.72000003      -1.67321171E-10
  -2.68000007      -1.21638574E-10
  -2.64000010      -5.97546040E-11
  -2.59999990       1.62995260E-11
  -2.55999994       1.03237405E-10
  -2.51999998       1.96636568E-10
  -2.48000002       2.91151131E-10
  -2.44000006       3.80807413E-10
  -2.40000010       4.59364768E-10
  -2.35999990       5.20718413E-10
  -2.31999993       5.59316204E-10
  -2.27999997       5.70560654E-10
  -2.24000001       5.51165280E-10
  -2.20000005       4.99439767E-10
  -2.16000009       4.15481261E-10
  -2.11999989       3.01256381E-10
  -2.07999992       1.60566366E-10
  -2.03999996      -1.10386071E-12
  -2.00000000      -1.76843457E-10
  -1.96000004      -3.58663266E-10
  -1.91999996      -5.37910105E-10
  -1.88000000      -7.05720204E-10
  -1.84000003      -8.53481785E-10
  -1.79999995      -9.73277792E-10
  -1.75999999      -1.05828113E-09
  -1.72000003      -1.10308107E-09
  -1.67999995      -1.10392373E-09
  -1.63999999      -1.05885889E-09
  -1.60000002      -9.67790181E-10
  -1.55999994      -8.32437119E-10
  -1.51999998      -6.56217913E-10
  -1.48000002      -4.44071974E-10
  -1.44000006      -2.02239878E-10
  -1.39999998       6.19782559E-11
  -1.36000001       3.40469597E-10
  -1.32000005       6.24544916E-10
  -1.27999997       9.05155340E-10
  -1.24000001       1.17308552E-09
  -1.20000005       1.41912659E-09
  -1.15999997       1.63423364E-09
  -1.12000000       1.80968118E-09
  -1.08000004       1.93723015E-09
  -1.03999996       2.00931760E-09
  -1.00000000       2.01928230E-09
 -0.959999979       1.96163019E-09
 -0.920000017       1.83233995E-09
 -0.879999995       1.62920133E-09
 -0.839999974       1.35216571E-09
 -0.800000012       1.00368824E-09
 -0.759999990       5.89027049E-10
 -0.720000029       1.16465171E-10
 -0.680000007      -4.02580219E-10
 -0.639999986      -9.53597312E-10
 -0.600000024      -1.51919388E-09
 -0.560000002      -2.07950324E-09
 -0.519999981      -2.61279109E-09
 -0.479999989      -3.09624482E-09
 -0.439999998      -3.50693008E-09
 -0.400000006      -3.82285936E-09
 -0.360000014      -4.02413125E-09
 -0.319999993      -4.09406420E-09
 -0.280000001      -4.02025391E-09
 -0.239999995      -3.79548792E-09
 -0.200000003      -3.41843998E-09
 -0.159999996      -2.89409430E-09
 -0.119999997      -2.23384999E-09
  -7.99999982E-02  -1.45529244E-09
  -3.99999991E-02  -5.81618309E-10
   0.00000000       3.59248908E-10
   3.99999991E-02   1.33581646E-09
   7.99999982E-02   2.31438824E-09
  0.119999997       3.26055560E-09
  0.159999996       4.14072554E-09
  0.200000003       4.92359131E-09
  0.239999995       5.58146773E-09
  0.280000001       6.09139672E-09
  0.319999993       6.43597220E-09
  0.360000014       6.60384814E-09
  0.400000006       6.58989308E-09
  0.439999998       6.39502096E-09
  0.479999989       6.02570882E-09
  0.519999981       5.49326407E-09
  0.560000002       4.81289675E-09
  0.600000024       4.00267819E-09
  0.639999986       3.08246784E-09
  0.680000007       2.07288453E-09
  0.720000029       9.94391347E-10
  0.759999990      -1.33442160E-10
  0.800000012      -1.29245836E-09
  0.839999974      -2.46618148E-09
  0.879999995      -3.63983776E-09
  0.920000017      -4.80013362E-09
  0.959999979      -5.93481575E-09
   1.00000000      -7.03206204E-09
   1.03999996      -8.07975464E-09
   1.08000004      -9.06469833E-09
   1.12000000      -9.97184291E-09
   1.15999997      -1.07835927E-08
   1.20000005      -1.14792540E-08
   1.24000001      -1.20346986E-08
   1.27999997      -1.24222908E-08
   1.32000005      -1.26111228E-08
   1.36000001      -1.25676110E-08
   1.39999998      -1.22564483E-08
   1.44000006      -1.16419399E-08
   1.48000002      -1.06897158E-08
   1.51999998      -9.36875022E-09
   1.55999994      -7.65367236E-09
   1.60000002      -5.52727331E-09
   1.63999999      -2.98309155E-09
   1.67999995      -2.79824133E-11
   1.72000003       3.31549410E-09
   1.75999999       7.00700786E-09
   1.79999995       1.09868870E-08
   1.84000003       1.51751873E-08
   1.88000000       1.94715692E-08
   1.91999996       2.37560744E-08
   1.96000004       2.78909535E-08
   2.00000000       3.17235340E-08
   2.03999996       3.50901814E-08
   2.07999992       3.78212945E-08
   2.11999989       3.97472242E-08
   2.16000009       4.07049541E-08
   2.20000005       4.05453484E-08
   2.24000001       3.91406552E-08
   2.27999997       3.63920485E-08
   2.31999993       3.22367839E-08
   2.35999990       2.66547016E-08
   2.40000010       1.96737204E-08
   2.44000006       1.13739747E-08
   2.48000002       1.89034610E-09
   2.51999998      -8.58686544E-09
   2.55999994      -1.98133403E-08
   2.59999990      -3.14942739E-08
   2.64000010      -4.32901288E-08
   2.68000007      -5.48245396E-08
   2.72000003      -6.56942234E-08
   2.75999999      -7.54807701E-08
   2.79999995      -8.37638581E-08
   2.83999991      -9.01357780E-08
   2.88000011      -9.42165315E-08
   2.92000008      -9.56692645E-08
   2.96000004      -9.42154585E-08
   3.00000000      -8.96492338E-08
   3.03999996      -8.18502457E-08
   3.07999992      -7.07947194E-08
   3.11999989      -5.65639766E-08
   3.16000009      -3.93500166E-08
   3.20000005      -1.94577776E-08
   3.24000001       2.69627631E-09
   3.27999997       2.65894489E-08
   3.31999993       5.16020933E-08
   3.35999990       7.70308901E-08
   3.40000010       1.02105794E-07
   3.44000006       1.26010562E-07
   3.48000002       1.47906249E-07
   3.51999998       1.66957079E-07
   3.55999994       1.82358065E-07
   3.59999990       1.93363505E-07
   3.64000010       1.99315380E-07
   3.68000007       1.99670794E-07
   3.72000003       1.94027379E-07
   3.75999999       1.82145683E-07
   3.79999995       1.63967741E-07
   3.83999991       1.39630757E-07
   3.88000011       1.09475302E-07
   3.92000008       7.40474064E-08
   3.96000004       3.40941924E-08
   4.00000000      -9.44723411E-09
   4.03999996      -5.54675132E-08
   4.07999992      -1.02709201E-07
   4.11999989      -1.49796861E-07
   4.15999985      -1.95272364E-07
   4.19999981      -2.37634509E-07
   4.23999977      -2.75381808E-07
   4.28000021      -3.07057462E-07
   4.32000017      -3.31294643E-07
   4.36000013      -3.46861583E-07
   4.40000010      -3.52703893E-07
   4.44000006      -3.47984042E-07
   4.48000002      -3.32115377E-07
   4.51999998      -3.04790660E-07
   4.55999994      -2.66003241E-07
   4.59999990      -2.16060442E-07
   4.63999987      -1.55588410E-07
   4.67999983      -8.55280149E-08
   4.71999979      -7.12171211E-09
   4.76000023       7.81084779E-08
   4.80000019       1.68391622E-07
   4.84000015       2.61746294E-07
   4.88000011       3.56025964E-07
   4.92000008       4.48970326E-07
   4.96000004       5.38260679E-07
   5.00000000       6.21578522E-07
   5.03999996       6.96665211E-07
   5.07999992       7.61381273E-07
   5.11999989       8.13763108E-07
   5.15999985       8.52076028E-07
   5.19999981       8.74861428E-07
   5.23999977       8.80977211E-07
   5.28000021       8.69630128E-07
   5.32000017       8.40398911E-07
   5.36000013       7.93247921E-07
   5.40000010       7.28531575E-07
   5.44000006       6.46988667E-07
   5.48000002       5.49728668E-07
   5.51999998       4.38209355E-07
   5.55999994       3.14208023E-07
   5.59999990       1.79787548E-07
   5.63999987       3.72576636E-08
   5.67999983      -1.10865599E-07
   5.71999979      -2.61901903E-07
   5.76000023      -4.13048525E-07
   5.80000019      -5.61421245E-07
   5.84000015      -7.04093338E-07
   5.88000011      -8.38132280E-07
   5.92000008      -9.60634566E-07
   5.96000004      -1.06875711E-06
   6.00000000      -1.15974819E-06
   6.03999996      -1.23097504E-06
   6.07999992      -1.27995168E-06
   6.11999989      -1.30436581E-06
   6.15999985      -1.30210435E-06
   6.19999981      -1.27128033E-06
   6.23999977      -1.21025914E-06
   6.28000021      -1.11768327E-06
   6.32000017      -9.92498258E-07
   6.36000013      -8.33975719E-07
   6.40000010      -6.41734232E-07
   6.44000006      -4.15757853E-07
   6.48000002      -1.56409300E-07
   6.51999998       1.35560057E-07
   6.55999994       4.59007339E-07
   6.59999990       8.12401254E-07
   6.63999987       1.19383083E-06
   6.67999983       1.60102149E-06
   6.71999979       2.03135801E-06
   6.76000023       2.48191373E-06
   6.80000019       2.94948472E-06
   6.84000015       3.43063061E-06
   6.88000011       3.92171887E-06
   6.92000008       4.41897419E-06
   6.96000004       4.91852916E-06
   7.00000000       5.41647887E-06
   7.03999996       5.90893796E-06
   7.07999992       6.39209475E-06
   7.11999989       6.86226986E-06
   7.15999985       7.31597129E-06
   7.19999981       7.74994805E-06
   7.23999977       8.16124430E-06
   7.28000021       8.54724021E-06
   7.32000017       8.90570482E-06
   7.36000013       9.23482185E-06
   7.40000010       9.53322979E-06
   7.44000006       9.80003369E-06
   7.48000002       1.00348243E-05
   7.51999998       1.02376771E-05
   7.55999994       1.04091459E-05
   7.59999990       1.05502422E-05
   7.63999987       1.06624111E-05
   7.67999983       1.07474916E-05
   7.71999979       1.08076692E-05
   7.76000023       1.08454278E-05
   7.80000019       1.08634868E-05
   7.84000015       1.08647446E-05
   7.88000011       1.08522099E-05
   7.92000008       1.08289441E-05
   7.96000004       1.07979995E-05
   8.00000000       1.07623637E-05
   8.03999996       1.07249080E-05
   8.07999992       1.06883417E-05
   8.11999989       1.06551688E-05
   8.15999985       1.06276739E-05
   8.19999981       1.06078860E-05
   8.23999977       1.05975678E-05
   8.27999973       1.05982081E-05
   8.31999969       1.06110219E-05
   8.35999966       1.06369498E-05
   8.39999962       1.06766684E-05
   8.43999958       1.07305941E-05
   8.47999954       1.07988926E-05
   8.52000046       1.08814829E-05
   8.56000042       1.09780531E-05
   8.60000038       1.10880355E-05
   8.64000034       1.12106090E-05
   8.68000031       1.13446667E-05
   8.72000027       1.14887816E-05
   8.76000023       1.16411584E-05
   8.80000019       1.17995514E-05
   8.84000015       1.19611987E-05
   8.88000011       1.21226813E-05
   8.92000008       1.22798347E-05
   8.96000004       1.24275830E-05
   9.00000000       1.25597553E-05
   9.03999996       1.26689629E-05
   9.07999992       1.27463445E-05
   9.11999989       1.27814083E-05
   9.15999985       1.27617859E-05
   9.19999981       1.26730465E-05
   9.23999977       1.24984444E-05
   9.27999973       1.22187093E-05
   9.31999969       1.18118514E-05
   9.35999966       1.12529442E-05
   9.39999962       1.05139306E-05
   9.43999958       9.56340682E-06
   9.47999954       8.36652998E-06
   9.52000046       6.88476530E-06
   9.56000042       5.07576942E-06
   9.60000038       2.89322838E-06
   9.64000034       2.86762884E-07
   9.68000031      -2.79824394E-06
   9.72000027      -6.42073428E-06
   9.76000023      -1.06441366E-05
   9.80000019      -1.55364960E-05
   9.84000015      -2.11705938E-05
   9.88000011      -2.76241226E-05
   9.92000008      -3.49798320E-05
   9.96000004      -4.33256137E-05
   10.0000000      -5.27548655E-05
   10.0400000      -6.33665550E-05
   10.0799999      -7.52655469E-05
   10.1199999      -8.85628833E-05
   10.1599998      -1.03376035E-04
   10.1999998      -1.19829238E-04
   10.2399998      -1.38054063E-04
   10.2799997      -1.58189636E-04
   10.3199997      -1.80383184E-04
   10.3599997      -2.04790718E-04
   10.3999996      -2.31577404E-04
   10.4399996      -2.60918372E-04
   10.4799995      -2.92999321E-04
   10.5200005      -3.28017428E-04
   10.5600004      -3.66182037E-04
   10.6000004      -4.07715474E-04
   10.6400003      -4.52854147E-04
   10.6800003      -5.01849514E-04
   10.7200003      -5.54968719E-04
   10.7600002      -6.12496107E-04
   10.8000002      -6.74734241E-04
   10.8400002      -7.42005126E-04
   10.8800001      -8.14651197E-04
   10.9200001      -8.93036718E-04
   10.9600000      -9.77549120E-04
   11.0000000      -1.06859987E-03
   11.0400000      -1.16662635E-03
   11.0799999      -1.27209281E-03
   11.1199999      -1.38549204E-03
   11.1599998      -1.50734594E-03
   11.1999998      -1.63820793E-03
   11.2399998      -1.77866360E-03
   11.2799997      -1.92933285E-03
   11.3199997      -2.09086970E-03
   11.3599997      -2.26396509E-03
   11.3999996      -2.44934764E-03
   11.4399996      -2.64778431E-03
   11.4799995      -2.86008348E-03
   11.5200005      -3.08709359E-03
   11.5600004      -3.32970684E-03
   11.6000004      -3.58885876E-03
   11.6400003      -3.86552955E-03
   11.6800003      -4.16074600E-03
   11.7200003      -4.47558193E-03
   11.7600002      -4.81115980E-03
   11.8000002      -5.16865076E-03
   11.8400002      -5.54927718E-03
   11.8800001      -5.95431263E-03
   11.9200001      -6.38508331E-03
   11.9600000      -6.84296945E-03
   12.0000000      -7.32940482E-03
   12.0400000      -7.84588046E-03
   12.0799999      -8.39394331E-03
   12.1199999      -8.97519942E-03
   12.1599998      -9.59131308E-03
   12.1999998      -1.02440109E-02
   12.2399998      -1.09350793E-02
   12.2799997      -1.16663659E-02
   12.3199997      -1.24397874E-02
   12.3599997      -1.32573228E-02
   12.3999996      -1.41210174E-02
   12.4399996      -1.50329852E-02
   12.4799995      -1.59954093E-02
   12.5200005      -1.70105454E-02
   12.5600004      -1.80807151E-02
   12.6000004      -1.92083195E-02
   12.6400003      -2.03958265E-02
   12.6800003      -2.16457862E-02
   12.7200003      -2.29608193E-02
   12.7600002      -2.43436247E-02
   12.8000002      -2.57969778E-02
   12.8400002      -2.73237322E-02
   12.8800001      -2.89268158E-02
   12.9200001      -3.06092445E-02
   12.9600000      -3.23740989E-02
   13.0000000      -3.42245512E-02
   13.0400000      -3.61638442E-02
   13.0799999      -3.81952971E-02
   13.1199999      -4.03223075E-02
   13.1599998      -4.25483510E-02
   13.1999998      -4.48769704E-02
   13.2399998      -4.73117940E-02
   13.2799997      -4.98565026E-02
   13.3199997      -5.25148623E-02
   13.3599997      -5.52906916E-02
   13.3999996      -5.81878796E-02
   13.4399996      -6.12103790E-02
   13.4799995      -6.43621981E-02
   13.5200005      -6.76473826E-02
   13.5600004      -7.10700527E-02
   13.6000004      -7.46343657E-02
   13.6400003      -7.83445165E-02
   13.6800003      -8.22047442E-02
   13.7200003      -8.62193257E-02
   13.7600002      -9.03925598E-02
   13.8000002      -9.47287604E-02
   13.8400002      -9.92322713E-02
   13.8800001     -0.103907451    
   13.9200001     -0.108758666    
   13.9600000     -0.113790281    
   14.0000000     -0.119006641    
   14.0400000     -0.124412097    
   14.0799999     -0.130010992    
   14.1199999     -0.135807633    
   14.1599998     -0.141806290    
   14.1999998     -0.148011222    
   14.2399998     -0.154426605    
   14.2799997     -0.161056608    
   14.3199997     -0.167905286    
   14.3599997     -0.174976707    
   14.3999996     -0.182274789    
   14.4399996     -0.189803421    
   14.4799995     -0.197566360    
   14.5200005     -0.205567300    
   14.5600004     -0.213809818    
   14.6000004     -0.222297370    
   14.6400003     -0.231033310    
   14.6800003     -0.240020826    
   14.7200003     -0.249263033    
   14.7600002     -0.258762807    
   14.8000002     -0.268522918    
   14.8400002     -0.278546005    
   14.8800001     -0.288834482    
   14.9200001     -0.299390584    
   14.9600000     -0.310216367    
   15.0000000     -0.321313679    
   15.0400000     -0.332684159    
   15.0799999     -0.344329238    
   15.1199999     -0.356250107    
   15.1599998     -0.368447721    
   15.1999998     -0.380922794    
   15.2399998     -0.393675774    
   15.2799997     -0.406706870    
   15.3199997     -0.420016021    
   15.3599997     -0.433602899    
   15.3999996     -0.447466820    
   15.4399996     -0.461606830    
   15.4799995     -0.476021707    
   15.5200005     -0.490709960    
   15.5600004     -0.505669653    
   15.6000004     -0.520898640    
   15.6400003     -0.536394417    
   15.6800003     -0.552154124    
   15.7200003     -0.568174481    
   15.7600002     -0.584452093    
   15.8000002     -0.600983024    
   15.8400002     -0.617763102    
   15.8800001     -0.634787560    
   15.9200001     -0.652051628    
   15.9600000     -0.669549763    
   16.0000000     -0.687276423    
   16.0400009     -0.705225527    
   16.0799999     -0.723390639    
   16.1200008     -0.741765022    
   16.1599998     -0.760341465    
   16.2000008     -0.779112458    
   16.2399998     -0.798070133    
   16.2800007     -0.817206264    
   16.3199997     -0.836512208    
   16.3600006     -0.855978906    
   16.3999996     -0.875597179    
   16.4400005     -0.895357192    
   16.4799995     -0.915249109    
   16.5200005     -0.935262561    
   16.5599995     -0.955386817    
   16.6000004     -0.975610852    
   16.6399994     -0.995923460    
   16.6800003      -1.01631296    
   16.7199993      -1.03676736    
   16.7600002      -1.05727458    
   16.7999992      -1.07782197    
   16.8400002      -1.09839690    
   16.8799992      -1.11898649    
   16.9200001      -1.13957715    
   16.9599991      -1.16015565    
   17.0000000      -1.18070817    
   17.0400009      -1.20122087    
   17.0799999      -1.22167969    
   17.1200008      -1.24207020    
   17.1599998      -1.26237810    
   17.2000008      -1.28258872    
   17.2399998      -1.30268717    
   17.2800007      -1.32265878    
   17.3199997      -1.34248865    
   17.3600006      -1.36216152    
   17.3999996      -1.38166261    
   17.4400005      -1.40097642    
   17.4799995      -1.42008817    
   17.5200005      -1.43898237    
   17.5599995      -1.45764399    
   17.6000004      -1.47605765    
   17.6399994      -1.49420822    
   17.6800003      -1.51208067    
   17.7199993      -1.52965999    
   17.7600002      -1.54693127    
   17.7999992      -1.56387961    
   17.8400002      -1.58049035    
   17.8799992      -1.59674919    
   17.9200001      -1.61264133    
   17.9599991      -1.62815261    
   18.0000000      -1.64326918    
   18.0400009      -1.65797722    
   18.0799999      -1.67226291    
   18.1200008      -1.68611324    
   18.1599998      -1.69951487    
   18.2000008      -1.71245515    
   18.2399998      -1.72492146    
   18.2800007      -1.73690164    
   18.3199997      -1.74838376    
   18.3600006      -1.75935638    
   18.3999996      -1.76980817    
   18.4400005      -1.77972841    
   18.4799995      -1.78910649    
   18.5200005      -1.79793239    
   18.5599995      -1.80619645    
   18.6000004      -1.81388938    
   18.6399994      -1.82100248    
   18.6800003      -1.82752705    
   18.7199993      -1.83345532    
   18.7600002      -1.83877981    
   18.7999992      -1.84349346    
   18.8400002      -1.84758937    
   18.8799992      -1.85106182    
   18.9200001      -1.85390496    
   18.9599991      -1.85611379    
   19.0000000      -1.85768366    
   19.0400009      -1.85861039    
   19.0799999      -1.85889041    
   19.1200008      -1.85852051    
   19.1599998      -1.85749817    
   19.2000008      -1.85582137    
   19.2399998      -1.85348856    
   19.2800007      -1.85049856    
   19.3199997      -1.84685087    
   19.3600006      -1.84254575    
   19.3999996      -1.83758354    
   19.4400005      -1.83196533    
   19.4799995      -1.82569301    
   19.5200005      -1.81876838    
   19.5599995      -1.81119406    
   19.6000004      -1.80297339    
   19.6399994      -1.79410982    
   19.6800003      -1.78460765    
   19.7199993      -1.77447140    
   19.7600002      -1.76370633    
   19.7999992      -1.75231802    
   19.8400002      -1.74031270    
   19.8799992      -1.72769690    
   19.9200001      -1.71447754    
   19.9599991      -1.70066226    
   20.0000000      -1.68625891    
   20.0400009      -1.67127585    
   20.0799999      -1.65572190    
   20.1200008      -1.63960648    
   20.1599998      -1.62293899    
   20.2000008      -1.60572934    
   20.2399998      -1.58798814    
   20.2800007      -1.56972587    
   20.3199997      -1.55095375    
   20.3600006      -1.53168309    
   20.3999996      -1.51192582    
   20.4400005      -1.49169397    
   20.4799995      -1.47099984    
   20.5200005      -1.44985616    
   20.5599995      -1.42827582    
   20.6000004      -1.40627182    
   20.6399994      -1.38385773    
   20.6800003      -1.36104715    
   20.7199993      -1.33785379    
   20.7600002      -1.31429183    
   20.7999992      -1.29037535    
   20.8400002      -1.26611876    
   20.8799992      -1.24153650    
   20.9200001      -1.21664333    
   20.9599991      -1.19145381    
   21.0000000      -1.16598296    
   21.0400009      -1.14024556    
   21.0799999      -1.11425662    
   21.1200008      -1.08803117    
   21.1599998      -1.06158435    
   21.2000008      -1.03493118    
   21.2399998      -1.00808656    
   21.2800007     -0.981065810    
   21.3199997     -0.953883886    
   21.3600006     -0.926555753    
   21.3999996     -0.899096251    
   21.4400005     -0.871520281    
   21.4799995     -0.843842626    
   21.5200005     -0.816077769    
   21.5599995     -0.788240194    
   21.6000004     -0.760344326    
   21.6399994     -0.732404351    
   21.6800003     -0.704434276    
   21.7199993     -0.676447928    
   21.7600002     -0.648458898    
   21.7999992     -0.620480537    
   21.8400002     -0.592526078    
   21.8799992     -0.564608395    
   21.9200001     -0.536740184    
   21.9599991     -0.508933842    
   22.0000000     -0.481201410    
   22.0400009     -0.453554720    
   22.0799999     -0.426005244    
   22.1200008     -0.398564100    
   22.1599998     -0.371242166    
   22.2000008     -0.344049871    
   22.2399998     -0.316997290    
   22.2800007     -0.290094167    
   22.3199997     -0.263349861    
   22.3600006     -0.236773327    
   22.3999996     -0.210373163    
   22.4400005     -0.184157506    
   22.4799995     -0.158134103    
   22.5200005     -0.132310301    
   22.5599995     -0.106692970    
   22.6000004      -8.12886059E-02
   22.6399994      -5.61032109E-02
   22.6800003      -3.11423689E-02
   22.7199993      -6.41122553E-03
   22.7600002       1.80855505E-02
   22.7999992       4.23437245E-02
   22.8400002       6.63595349E-02
   22.8799992       9.01296660E-02
   22.9200001      0.113651253    
   22.9599991      0.136921912    
   23.0000000      0.159939691    
   23.0400009      0.182703078    
   23.0799999      0.205211088    
   23.1200008      0.227463067    
   23.1599998      0.249458894    
   23.2000008      0.271198839    
   23.2399998      0.292683631    
   23.2800007      0.313914388    
   23.3199997      0.334892690    
   23.3600006      0.355620503    
   23.3999996      0.376100183    
   23.4400005      0.396334469    
   23.4799995      0.416326553    
   23.5200005      0.436079890    
   23.5599995      0.455598384    
   23.6000004      0.474886239    
   23.6399994      0.493947923    
   23.6800003      0.512788355    
   23.7199993      0.531412661    
   23.7600002      0.549826264    
   23.7999992      0.568034887    
   23.8400002      0.586044550    
   23.8799992      0.603861272    
   23.9200001      0.621491551    
   23.9599991      0.638942122    
   24.0000000      0.656219482    
   24.0400009      0.673330843    
   24.0799999      0.690283179    
   24.1200008      0.707083702    
   24.1599998      0.723739743    
   24.2000008      0.740258694    
   24.2399998      0.756648004    