  -10.0000000       0.00000000    
  -9.68000031       9.21071708E-30
  -9.35999966       1.50352174E-18
  -9.03999996      -5.50109783E-17
  -8.72000027       6.42573382E-16
  -8.39999962      -8.02562278E-15
  -8.07999992      -1.89807019E-13
  -7.76000023       2.84273148E-12
  -7.44000006      -1.74993145E-11
  -7.11999989       4.95725856E-11
  -6.80000019       6.00080619E-12
  -6.48000002      -5.70849645E-10
  -6.15999985       2.11093587E-09
  -5.84000015      -3.31273142E-09
  -5.51999998      -9.62967484E-10
  -5.19999981       1.52942619E-08
  -4.88000011      -3.05096926E-08
  -4.55999994       2.24723422E-08
  -4.23999977       1.43828878E-08
  -3.92000008      -4.53807623E-08
  -3.59999990       6.20967384E-08
  -3.27999997      -1.24382595E-07
  -2.96000004       1.68369155E-07
  -2.64000010       8.40999945E-08
  -2.31999993      -5.01649652E-07
  -2.00000000       1.73106372E-07
  -1.67999995       9.07505751E-07
  -1.36000001      -5.32211686E-07
  -1.03999996      -1.87434978E-06
 -0.720000029       1.60941613E-06
 -0.400000006       3.56298142E-06
  -7.99999982E-02  -4.63911920E-06
  0.239999995      -4.50344305E-06
  0.560000002       8.22269158E-06
  0.879999995       5.36873313E-06
   1.20000005      -6.95530889E-06
   1.51999998      -7.66002449E-06
   1.84000003       1.53716937E-05
   2.16000009       1.76696813E-05
   2.48000002      -5.17443368E-05
   2.79999995      -1.60267460E-04
   3.11999989      -3.21821019E-04
   3.44000006      -5.70497883E-04
   3.75999999      -1.02184399E-03
   4.07999992      -1.88920915E-03
   4.40000010      -3.46891582E-03
   4.71999979      -6.27373811E-03
   5.03999996      -1.09746195E-02
   5.36000013      -1.86625235E-02
   5.67999983      -3.11606266E-02
   6.00000000      -5.09117022E-02
   6.32000017      -8.14912841E-02
   6.63999987     -0.127540916    
   6.96000004     -0.195324585    
   7.28000021     -0.292656600    
   7.59999990     -0.429343730    
   7.92000008     -0.616779268    
   8.23999977     -0.867711127    
   8.56000042      -1.19529843    
   8.88000011      -1.61266422    
   9.19999981      -2.13145304    
   9.52000046      -2.76053953    
   9.84000015      -3.50399756    
   10.1599998      -4.36027384    
   10.4799995      -5.32078409    
   10.8000002      -6.36957645    
   11.1199999      -7.48328924    
   11.4399996      -8.63279438    
   11.7600002      -9.78469086    
   12.0799999      -10.9041080    
   12.3999996      -11.9573250    
   12.7200003      -12.9153652    
   13.0400000      -13.7560005    
   13.3599997      -14.4664583    
   13.6800003      -15.0432501    
   14.0000000      -15.4936876    
   14.3199997      -15.8330383    
   14.6400003      -16.0839806    
   14.9600000      -16.2729549    
   15.2799997      -16.4289093    
   15.6000004      -16.5794697    
   15.9200001      -16.7501125    
   16.2399998      -16.9622326    
   16.5599995      -17.2332687    
   16.8799992      -17.5755501    
   17.2000008      -17.9996204    
   17.5200005      -18.5119343    
   17.8400002      -19.1198483    
   18.1599998      -19.8289223    
   18.4799995      -20.6478329    
   18.7999992      -21.5849800    
   19.1200008      -22.6523037    
   19.4400005      -23.8608665    
   19.7600002      -25.2226601    
   20.0799999      -26.7456112    
   20.3999996      -28.4338017    
   20.7199993      -30.2809429    
   21.0400009      -32.2719231    
   21.3600006      -34.3749924    
   21.6800003      -36.5462036    
   22.0000000      -38.7226906    
   22.3199997      -40.8322678    
   22.6399994      -42.7897263    
   22.9599991      -44.5100594    
   23.2800007      -45.9078407    
   23.6000004      -46.9120331    
   23.9200001      -47.4665413    
   24.2399998      -47.5424957    
   24.5599995      -47.1345863    
   24.8799992      -46.2683601    
   25.2000008      -44.9911728    
   25.5200005      -43.3749275    
   25.8400002      -41.5011940    
   26.1599998      -39.4617500    
   26.4799995      -37.3442879    
   26.7999992      -35.2325821    
   27.1200008      -33.1952591    
   27.4400005      -31.2893848    
   27.7600002      -29.5527973    
   28.0799999      -28.0116158    
   28.3999996      -26.6739655    
   28.7199993      -25.5403671    
   29.0400009      -24.5984840    
   29.3600006      -23.8331661    
   29.6800003      -23.2204113    
