  -10.0000000       0.00000000    
  -9.96000004       0.00000000    
  -9.92000008       0.00000000    
  -9.88000011       0.00000000    
  -9.84000015       0.00000000    
  -9.80000019       0.00000000    
  -9.76000023       0.00000000    
  -9.72000027       4.44419356E-30
  -9.68000031      -5.90481616E-25
  -9.64000034      -7.11717408E-24
  -9.60000038      -4.23137416E-23
  -9.56000042      -1.59714723E-22
  -9.52000046      -3.95555734E-22
  -9.47999954      -4.81603495E-22
  -9.43999958       9.90661269E-22
  -9.39999962       8.24473777E-21
  -9.35999966       3.06436263E-20
  -9.31999969       8.41871793E-20
  -9.27999973       1.88532763E-19
  -9.23999977       3.53596732E-19
  -9.19999981       5.49442883E-19
  -9.15999985       6.57455817E-19
  -9.11999989       4.10729166E-19
  -9.07999992      -6.55470428E-19
  -9.03999996      -3.20999514E-18
  -9.00000000      -8.04268040E-18
  -8.96000004      -1.58287429E-17
  -8.92000008      -2.66742123E-17
  -8.88000011      -3.94417682E-17
  -8.84000015      -5.10440848E-17
  -8.80000019      -5.61342829E-17
  -8.76000023      -4.76652108E-17
  -8.72000027      -1.83631697E-17
  -8.68000031       3.75975724E-17
  -8.64000034       1.23766601E-16
  -8.60000038       2.41543171E-16
  -8.56000042       3.89416780E-16
  -8.52000046       5.58545384E-16
  -8.47999954       7.24376912E-16
  -8.43999958       8.39712306E-16
  -8.39999962       8.38859291E-16
  -8.35999966       6.58993751E-16
  -8.31999969       2.72113755E-16
  -8.27999973      -2.92816590E-16
  -8.23999977      -9.59320717E-16
  -8.19999981      -1.64880691E-15
  -8.15999985      -2.34033403E-15
  -8.11999989      -3.11029545E-15
  -8.07999992      -4.13014027E-15
  -8.03999996      -5.62487772E-15
  -8.00000000      -7.80176976E-15
  -7.96000004      -1.07350677E-14
  -7.92000008      -1.41720310E-14
  -7.88000011      -1.72672511E-14
  -7.84000015      -1.83736388E-14
  -7.80000019      -1.51358011E-14
  -7.76000023      -5.08984936E-15
  -7.71999979       1.33161821E-14
  -7.67999983       3.97808346E-14
  -7.63999987       7.19889168E-14
  -7.59999990       1.06607269E-13
  -7.55999994       1.40976694E-13
  -7.51999998       1.74197177E-13
  -7.48000002       2.06169039E-13
  -7.44000006       2.34112019E-13
  -7.40000010       2.47773536E-13
  -7.36000013       2.25970474E-13
  -7.32000017       1.37320507E-13
  -7.28000021      -5.32317788E-14
  -7.23999977      -3.72589736E-13
  -7.19999981      -8.24876408E-13
  -7.15999985      -1.37781670E-12
  -7.11999989      -1.95452812E-12
  -7.07999992      -2.43498277E-12
  -7.03999996      -2.67011673E-12
  -7.00000000      -2.50844983E-12
  -6.96000004      -1.83033319E-12
  -6.92000008      -5.80377706E-13
  -6.88000011       1.21266018E-12
  -6.84000015       3.43505736E-12
  -6.80000019       5.90409405E-12
  -6.76000023       8.38965876E-12
  -6.71999979       1.06272465E-11
  -6.67999983       1.23141965E-11
  -6.63999987       1.30943138E-11
  -6.59999990       1.25497087E-11
  -6.55999994       1.02246293E-11
  -6.51999998       5.69965472E-12
  -6.48000002      -1.28304962E-12
  -6.44000006      -1.06653852E-11
  -6.40000010      -2.19314306E-11
  -6.36000013      -3.40291822E-11
  -6.32000017      -4.54022445E-11
  -6.28000021      -5.41563842E-11
  -6.23999977      -5.83495682E-11
  -6.19999981      -5.63499039E-11
  -6.15999985      -4.71685017E-11
  -6.11999989      -3.06623026E-11
  -6.07999992      -7.53112503E-12
  -6.03999996       2.08961373E-11
  -6.00000000       5.30002153E-11
  -5.96000004       8.71748021E-11
  -5.92000008       1.21917476E-10
  -5.88000011       1.55593205E-10
  -5.84000015       1.85887500E-10
  -5.80000019       2.09128131E-10
  -5.76000023       2.19786106E-10
  -5.71999979       2.10514550E-10
  -5.67999983       1.73011092E-10
  -5.63999987       9.97967334E-11
  -5.59999990      -1.32786906E-11
  -5.55999994      -1.64300032E-10
  -5.51999998      -3.43059442E-10
  -5.48000002      -5.30169464E-10
  -5.44000006      -6.98213432E-10
  -5.40000010      -8.15244594E-10
  -5.36000013      -8.50358950E-10
  -5.32000017      -7.80411513E-10
  -5.28000021      -5.96402427E-10
  -5.23999977      -3.07824349E-10
  -5.19999981       5.65418615E-11
  -5.15999985       4.52240273E-10
  -5.11999989       8.27002078E-10
  -5.07999992       1.13153520E-09
  -5.03999996       1.33088340E-09
  -5.00000000       1.41339285E-09
  -4.96000004       1.39438205E-09
  -4.92000008       1.31247813E-09
  -4.88000011       1.21819699E-09
  -4.84000015       1.15645182E-09
  -4.80000019       1.14679766E-09
  -4.76000023       1.16678167E-09
  -4.71999979       1.14421195E-09
  -4.67999983       9.63100599E-10
  -4.63999987       4.85446183E-10
  -4.59999990      -4.12735096E-10
  -4.55999994      -1.79694193E-09
  -4.51999998      -3.63076702E-09
  -4.48000002      -5.74512304E-09
  -4.44000006      -7.83141729E-09
  -4.40000010      -9.46686640E-09
  -4.36000013      -1.01743760E-08
  -4.32000017      -9.51184642E-09
  -4.28000021      -7.17782678E-09
  -4.23999977      -3.11387405E-09
  -4.19999981       2.41954479E-09
  -4.15999985       8.81585738E-09
  -4.11999989       1.51603583E-08
  -4.07999992       2.03395167E-08
  -4.03999996       2.32143957E-08
  -4.00000000       2.28366890E-08
  -3.96000004       1.86732816E-08
  -3.92000008       1.07971889E-08
  -3.88000011       1.28613190E-12
  -3.83999991      -1.22021282E-08
  -3.79999995      -2.37182238E-08
  -3.75999999      -3.21439337E-08
  -3.72000003      -3.51554164E-08
  -3.68000007      -3.09595336E-08
  -3.64000010      -1.87396250E-08
  -3.59999990       9.85394211E-10
  -3.55999994       2.61687436E-08
  -3.51999998       5.32753752E-08
  -3.48000002       7.75895757E-08
  -3.44000006       9.37870013E-08
  -3.40000010       9.67218199E-08
  -3.35999990       8.23348714E-08
  -3.31999993       4.85527849E-08
  -3.27999997      -3.97181354E-09
  -3.24000001      -7.14271238E-08
  -3.20000005      -1.46836911E-07
  -3.16000009      -2.20553829E-07
  -3.11999989      -2.81251886E-07
  -3.07999992      -3.17339556E-07
  -3.03999996      -3.18636410E-07
  -3.00000000      -2.78093864E-07
  -2.96000004      -1.93303791E-07
  -2.92000008      -6.75384015E-08
  -2.88000011       8.98938950E-08
  -2.83999991       2.64115243E-07
  -2.79999995       4.35995560E-07
  -2.75999999       5.84225177E-07
  -2.72000003       6.87923375E-07
  -2.68000007       7.29462442E-07
  -2.64000010       6.97123937E-07
  -2.59999990       5.87192005E-07
  -2.55999994       4.05136120E-07
  -2.51999998       1.65636351E-07
  -2.48000002      -1.08644699E-07
  -2.44000006      -3.89469506E-07
  -2.40000010      -6.46359240E-07
  -2.35999990      -8.50448600E-07
  -2.31999993      -9.78349362E-07
  -2.27999997      -1.01547460E-06
  -2.24000001      -9.58310920E-07
  -2.20000005      -8.15244164E-07
  -2.16000009      -6.05725802E-07
  -2.11999989      -3.57792970E-07
  -2.07999992      -1.04199053E-07
  -2.03999996       1.22371503E-07
  -2.00000000       2.94355317E-07
  -1.96000004       3.93896414E-07
  -1.91999996       4.16244205E-07
  -1.88000000       3.71356720E-07
  -1.84000003       2.83317547E-07
  -1.79999995       1.87458681E-07
  -1.75999999       1.25410082E-07
  -1.72000003       1.38612052E-07
  -1.67999995       2.61098620E-07
  -1.63999999       5.12534768E-07
  -1.60000002       8.92542914E-07
  -1.55999994       1.37726511E-06
  -1.51999998       1.91888398E-06
  -1.48000002       2.44847729E-06
  -1.44000006       2.88216029E-06
  -1.39999998       3.13002010E-06
  -1.36000001       3.10693281E-06
  -1.32000005       2.74402578E-06
  -1.27999997       1.99936517E-06
  -1.24000001       8.66446044E-07
  -1.20000005      -6.20768844E-07
  -1.15999997      -2.38715484E-06
  -1.12000000      -4.32049137E-06
  -1.08000004      -6.28012594E-06
  -1.03999996      -8.10951042E-06
  -1.00000000      -9.65135405E-06
 -0.959999979      -1.07637834E-05
 -0.920000017      -1.13356837E-05
 -0.879999995      -1.12994403E-05
 -0.839999974      -1.06395401E-05
 -0.800000012      -9.39592064E-06
 -0.759999990      -7.66157154E-06
 -0.720000029      -5.57452449E-06
 -0.680000007      -3.30505145E-06
 -0.639999986      -1.03941886E-06
 -0.600000024       1.03800653E-06
 -0.560000002       2.76233277E-06
 -0.519999981       4.00346698E-06
 -0.479999989       4.67751715E-06
 -0.439999998       4.75308570E-06
 -0.400000006       4.25185726E-06
 -0.360000014       3.24356483E-06
 -0.319999993       1.83605732E-06
 -0.280000001       1.61758692E-07
 -0.239999995      -1.63781738E-06
 -0.200000003      -3.42763769E-06
 -0.159999996      -5.09301071E-06
 -0.119999997      -6.55019494E-06
  -7.99999982E-02  -7.75266653E-06
  -3.99999991E-02  -8.69249743E-06
   0.00000000      -9.39692291E-06
   3.99999991E-02  -9.92073547E-06
   7.99999982E-02  -1.03356315E-05
  0.119999997      -1.07179594E-05
  0.159999996      -1.11364297E-05
  0.200000003      -1.16412957E-05
  0.239999995      -1.22562533E-05
  0.280000001      -1.29739046E-05
  0.319999993      -1.37551551E-05
  0.360000014      -1.45323911E-05
  0.400000006      -1.52158073E-05
  0.439999998      -1.57018840E-05
  0.479999989      -1.58828043E-05
  0.519999981      -1.56555161E-05
  0.560000002      -1.49292700E-05
  0.600000024      -1.36307181E-05
  0.639999986      -1.17060672E-05
  0.680000007      -9.12017458E-06
  0.720000029      -5.85294356E-06
  0.759999990      -1.89376567E-06
  0.800000012       2.76499190E-06
  0.839999974       8.13433508E-06
  0.879999995       1.42337258E-05
  0.920000017       2.10939943E-05
  0.959999979       2.87575185E-05
   1.00000000       3.72755057E-05
   1.03999996       4.67026730E-05
   1.08000004       5.70900411E-05
   1.12000000       6.84769038E-05
   1.15999997       8.08831610E-05
   1.20000005       9.43033519E-05
   1.24000001       1.08703491E-04
   1.27999997       1.24021550E-04
   1.32000005       1.40172080E-04
   1.36000001       1.57054543E-04
   1.39999998       1.74565299E-04
   1.44000006       1.92611522E-04
   1.48000002       2.11126142E-04
   1.51999998       2.30082005E-04
   1.55999994       2.49503530E-04
   1.60000002       2.69474753E-04
   1.63999999       2.90142838E-04
   1.67999995       3.11716227E-04
   1.72000003       3.34458047E-04
   1.75999999       3.58675083E-04
   1.79999995       3.84704326E-04
   1.84000003       4.12898022E-04
   1.88000000       4.43609926E-04
   1.91999996       4.77183756E-04
   1.96000004       5.13946638E-04
   2.00000000       5.54207654E-04
   2.03999996       5.98262821E-04
   2.07999992       6.46405155E-04
   2.11999989       6.98940945E-04
   2.16000009       7.56207679E-04
   2.20000005       8.18594301E-04
   2.24000001       8.86559370E-04
   2.27999997       9.60645499E-04
   2.31999993       1.04148721E-03
   2.35999990       1.12981128E-03
   2.40000010       1.22642715E-03
   2.44000006       1.33220933E-03
   2.48000002       1.44807168E-03
   2.51999998       1.57493539E-03
   2.55999994       1.71369454E-03
   2.59999990       1.86518161E-03
   2.64000010       2.03013746E-03
   2.68000007       2.20918935E-03
   2.72000003       2.40284042E-03
   2.75999999       2.61147134E-03
   2.79999995       2.83535710E-03
   2.83999991       3.07469815E-03
   2.88000011       3.32966354E-03
   2.92000008       3.60044581E-03
   2.96000004       3.88732017E-03
   3.00000000       4.19070618E-03
   3.03999996       4.51122411E-03
   3.07999992       4.84974496E-03
   3.11999989       5.20742591E-03
   3.16000009       5.58573473E-03
   3.20000005       5.98645024E-03
   3.24000001       6.41165441E-03
   3.27999997       6.86370116E-03
   3.31999993       7.34518142E-03
   3.35999990       7.85887148E-03
   3.40000010       8.40768404E-03
   3.44000006       8.99461657E-03
   3.48000002       9.62271076E-03
   3.51999998       1.02950167E-02
   3.55999994       1.10145723E-02
   3.59999990       1.17843999E-02
   3.64000010       1.26075074E-02
   3.68000007       1.34869032E-02
   3.72000003       1.44256260E-02
   3.75999999       1.54267699E-02
   3.79999995       1.64935142E-02
   3.83999991       1.76291559E-02
   3.88000011       1.88371092E-02
   3.92000008       2.01209392E-02
   3.96000004       2.14843433E-02
   4.00000000       2.29311585E-02
   4.03999996       2.44653411E-02
   4.07999992       2.60909591E-02
   4.11999989       2.78121810E-02
   4.15999985       2.96332557E-02
   4.19999981       3.15585360E-02
   4.23999977       3.35924886E-02
   4.28000021       3.57397012E-02
   4.32000017       3.80049534E-02
   4.36000013       4.03932594E-02
   4.40000010       4.29099314E-02
   4.44000006       4.55606431E-02
   4.48000002       4.83515188E-02
   4.51999998       5.12891449E-02
   4.55999994       5.43806553E-02
   4.59999990       5.76337427E-02
   4.63999987       6.10566884E-02
   4.67999983       6.46583289E-02
   4.71999979       6.84480518E-02
   4.76000023       7.24357590E-02
   4.80000019       7.66317472E-02
   4.84000015       8.10467079E-02
   4.88000011       8.56916234E-02
   4.92000008       9.05776769E-02
   4.96000004       9.57162231E-02
   5.00000000      0.101118699    
   5.03999996      0.106796600    
   5.07999992      0.112761430    
   5.11999989      0.119024701    
   5.15999985      0.125597939    
   5.19999981      0.132492736    
   5.23999977      0.139720738    
   5.28000021      0.147293717    
   5.32000017      0.155223593    
   5.36000013      0.163522542    
   5.40000010      0.172203019    
   5.44000006      0.181277812    
   5.48000002      0.190760151    
   5.51999998      0.200663805    
   5.55999994      0.211002961    
   5.59999990      0.221792385    
   5.63999987      0.233047381    
   5.67999983      0.244783878    
   5.71999979      0.257018536    
   5.76000023      0.269768655    
   5.80000019      0.283052117    
   5.84000015      0.296887428    
   5.88000011      0.311293602    
   5.92000008      0.326290190    
   5.96000004      0.341897219    
   6.00000000      0.358135104    
   6.03999996      0.375024557    
   6.07999992      0.392586499    
   6.11999989      0.410842121    
   6.15999985      0.429812789    
   6.19999981      0.449519902    
   6.23999977      0.469984978    
   6.28000021      0.491229355    
   6.32000017      0.513274610    
   6.36000013      0.536142051    
   6.40000010      0.559853017    
   6.44000006      0.584428608    
   6.48000002      0.609890103    
   6.51999998      0.636258602    
   6.55999994      0.663554907    
   6.59999990      0.691799998    
   6.63999987      0.721014619    
   6.67999983      0.751219928    
   6.71999979      0.782436669    
   6.76000023      0.814685941    
   6.80000019      0.847988784    
   6.84000015      0.882366478    
   6.88000011      0.917840362    
   6.92000008      0.954432309    
   6.96000004      0.992164195    
   7.00000000       1.03105795    
   7.03999996       1.07113612    
   7.07999992       1.11242127    
   7.11999989       1.15493619    
   7.15999985       1.19870377    
   7.19999981       1.24374688    
   7.23999977       1.29008794    
   7.28000021       1.33774960    
   7.32000017       1.38675356    
   7.36000013       1.43712139    
   7.40000010       1.48887384    
   7.44000006       1.54203117    
   7.48000002       1.59661269    
   7.51999998       1.65263700    
   7.55999994       1.71012199    
   7.59999990       1.76908433    
   7.63999987       1.82953978    
   7.67999983       1.89150357    
   7.71999979       1.95498991    
   7.76000023       2.02001238    
   7.80000019       2.08658409    
   7.84000015       2.15471745    
   7.88000011       2.22442389    
   7.92000008       2.29571366    
   7.96000004       2.36859560    
   8.00000000       2.44307804    
   8.03999996       2.51916909    
   8.07999992       2.59687614    
   8.11999989       2.67620516    
   8.15999985       2.75716114    
   8.19999981       2.83974767    
   8.23999977       2.92396784    
   8.27999973       3.00982404    
   8.31999969       3.09731698    
   8.35999966       3.18644762    
   8.39999962       3.27721548    
   8.43999958       3.36961913    
   8.47999954       3.46365547    
   8.52000046       3.55932188    
   8.56000042       3.65661359    
   8.60000038       3.75552702    
   8.64000034       3.85605621    
   8.68000031       3.95819545    
   8.72000027       4.06193686    
   8.76000023       4.16727066    
   8.80000019       4.27418756    
   8.84000015       4.38267612    
   8.88000011       4.49272490    
   8.92000008       4.60431910    
   8.96000004       4.71744299    
   9.00000000       4.83207989    
   9.03999996       4.94821310    
   9.07999992       5.06582260    
   9.11999989       5.18488789    
   9.15999985       5.30538416    
   9.19999981       5.42728710    
   9.23999977       5.55057192    
   9.27999973       5.67521191    
   9.31999969       5.80117989    
   9.35999966       5.92844725    
   9.39999962       6.05698156    
   9.43999958       6.18675327    
   9.47999954       6.31773138    
   9.52000046       6.44988441    
   9.56000042       6.58318186    
   9.60000038       6.71759224    
   9.64000034       6.85308361    
   9.68000031       6.98962402    
   9.72000027       7.12717867    
   9.76000023       7.26571226    
   9.80000019       7.40519094    
   9.84000015       7.54558420    
   9.88000011       7.68685913    
   9.92000008       7.82898235    
   9.96000004       7.97191954    
   10.0000000       8.11563396    
   10.0400000       8.26008797    
   10.0799999       8.40524769    
   10.1199999       8.55107594    
   10.1599998       8.69753551    
   10.1999998       8.84458447    
   10.2399998       8.99218655    
   10.2799997       9.14030552    
   10.3199997       9.28890133    
   10.3599997       9.43793964    
   10.3999996       9.58738136    
   10.4399996       9.73718834    
   10.4799995       9.88731956    
   10.5200005       10.0377398    
   10.5600004       10.1884127    
   10.6000004       10.3393040    
   10.6400003       10.4903812    
   10.6800003       10.6416082    
   10.7200003       10.7929497    
   10.7600002       10.9443655    
   10.8000002       11.0958233    
   10.8400002       11.2472887    
   10.8800001       11.3987331    
   10.9200001       11.5501280    
   10.9600000       11.7014418    
   11.0000000       11.8526459    
   11.0400000       12.0037088    
   11.0799999       12.1546021    
   11.1199999       12.3052979    
   11.1599998       12.4557695    
   11.1999998       12.6059971    
   11.2399998       12.7559614    
   11.2799997       12.9056387    
   11.3199997       13.0550070    
   11.3599997       13.2040462    
   11.3999996       13.3527393    
   11.4399996       13.5010719    
   11.4799995       13.6490307    
   11.5200005       13.7965975    
   11.5600004       13.9437542    
   11.6000004       14.0904865    
   11.6400003       14.2367887    
   11.6800003       14.3826580    
   11.7200003       14.5280857    
   11.7600002       14.6730595    
   11.8000002       14.8175659    
   11.8400002       14.9615936    
   11.8800001       15.1051359    
   11.9200001       15.2481880    
   11.9600000       15.3907471    
   12.0000000       15.5328054    
   12.0400000       15.6743574    
   12.0799999       15.8154011    
   12.1199999       15.9559374    
   12.1599998       16.0959702    
   12.1999998       16.2355003    
   12.2399998       16.3745270    
   12.2799997       16.5130501    
   12.3199997       16.6510696    
   12.3599997       16.7885952    
   12.3999996       16.9256306    
   12.4399996       17.0621872    
   12.4799995       17.1982708    
   12.5200005       17.3338928    
   12.5600004       17.4690647    
   12.6000004       17.6037998    
   12.6400003       17.7380962    
   12.6800003       17.8719616    
   12.7200003       18.0054035    
   12.7600002       18.1384373    
   12.8000002       18.2710667    
   12.8400002       18.4033031    
   12.8800001       18.5351486    
   12.9200001       18.6666164    
   12.9600000       18.7977180    
   13.0000000       18.9284706    
   13.0400000       19.0588818    
   13.0799999       19.1889668    
   13.1199999       19.3187332    
   13.1599998       19.4481907    
   13.1999998       19.5773487    
   13.2399998       19.7062187    
   13.2799997       19.8348064    
   13.3199997       19.9631176    
   13.3599997       20.0911598    
   13.3999996       20.2189388    
   13.4399996       20.3464642    
   13.4799995       20.4737415    
   13.5200005       20.6007786    
   13.5600004       20.7275658    
   13.6000004       20.8541088    
   13.6400003       20.9804058    
   13.6800003       21.1064606    
   13.7200003       21.2322712    
   13.7600002       21.3578339    
   13.8000002       21.4831467    
   13.8400002       21.6082134    
   13.8800001       21.7330341    
   13.9200001       21.8576012    
   13.9600000       21.9819088    
   14.0000000       22.1059399    
   14.0400000       22.2296829    
   14.0799999       22.3531322    
   14.1199999       22.4762783    
   14.1599998       22.5991116    
   14.1999998       22.7216206    
   14.2399998       22.8437862    
   14.2799997       22.9656010    
   14.3199997       23.0870476    
   14.3599997       23.2081089    
   14.3999996       23.3287582    
   14.4399996       23.4489708    
   14.4799995       23.5687218    
   14.5200005       23.6879845    
   14.5600004       23.8067341    
   14.6000004       23.9249363    
   14.6400003       24.0425568    
   14.6800003       24.1595573    
   14.7200003       24.2759075    
   14.7600002       24.3915844    
   14.8000002       24.5065632    
   14.8400002       24.6208076    
   14.8800001       24.7342663    
   14.9200001       24.8468952    
   14.9600000       24.9586506    
   15.0000000       25.0694942    
   15.0400000       25.1793804    
   15.0799999       25.2882576    
   15.1199999       25.3960705    
   15.1599998       25.5027752    
   15.1999998       25.6083393    
   15.2399998       25.7127209    
   15.2799997       25.8158627    
   15.3199997       25.9176807    
   15.3599997       26.0181084    
   15.3999996       26.1170807    
   15.4399996       26.2145500    
   15.4799995       26.3104668    
   15.5200005       26.4047661    
   15.5600004       26.4973793    
   15.6000004       26.5882225    
   15.6400003       26.6772232    
   15.6800003       26.7643185    
   15.7200003       26.8494492    
   15.7600002       26.9325504    
   15.8000002       27.0135555    
   15.8400002       27.0923805    
   15.8800001       27.1689453    
   15.9200001       27.2431812    
   15.9600000       27.3150196    
   16.0000000       27.3843880    
   16.0400009       27.4512196    
   16.0799999       27.5154362    
   16.1200008       27.5769558    
   16.1599998       27.6356983    
   16.2000008       27.6915836    
   16.2399998       27.7445393    
   16.2800007       27.7944889    
   16.3199997       27.8413525    
   16.3600006       27.8850517    
   16.3999996       27.9255085    
   16.4400005       27.9626522    
   16.4799995       27.9964142    
   16.5200005       28.0267220    
   16.5599995       28.0534992    
   16.6000004       28.0766544    
   16.6399994       28.0961132    
   16.6800003       28.1117992    
   16.7199993       28.1236477    
   16.7600002       28.1315975    
   16.7999992       28.1355877    
   16.8400002       28.1355457    
   16.8799992       28.1313972    
   16.9200001       28.1230659    
   16.9599991       28.1104832    
   17.0000000       28.0935936    
   17.0400009       28.0723305    
   17.0799999       28.0466423    
   17.1200008       28.0164738    
   17.1599998       27.9817696    
   17.2000008       27.9424820    
   17.2399998       27.8985615    
   17.2800007       27.8499622    
   17.3199997       27.7966328    
   17.3600006       27.7385254    
   17.3999996       27.6755981    
   17.4400005       27.6078205    
   17.4799995       27.5351620    
   17.5200005       27.4576015    
   17.5599995       27.3751202    
   17.6000004       27.2876892    
   17.6399994       27.1952972    
   17.6800003       27.0979404    
   17.7199993       26.9956188    
   17.7600002       26.8883190    
   17.7999992       26.7760277    
   17.8400002       26.6587315    
   17.8799992       26.5364342    
   17.9200001       26.4091492    
   17.9599991       26.2769089    
   18.0000000       26.1397514    
   18.0400009       25.9976959    
   18.0799999       25.8507690    
   18.1200008       25.6990013    
   18.1599998       25.5424290    
   18.2000008       25.3811054    
   18.2399998       25.2150955    
   18.2800007       25.0444622    
   18.3199997       24.8692646    
   18.3600006       24.6895657    
   18.3999996       24.5054226    
   18.4400005       24.3169098    
   18.4799995       24.1241055    
   18.5200005       23.9271049    
   18.5599995       23.7260075    
   18.6000004       23.5208969    
   18.6399994       23.3118629    
   18.6800003       23.0990009    
   18.7199993       22.8824253    
   18.7600002       22.6622562    
   18.7999992       22.4386101    
   18.8400002       22.2116032    
   18.8799992       21.9813538    
   18.9200001       21.7479782    
   18.9599991       21.5116234    
   19.0000000       21.2724400    
   19.0400009       21.0305824    
   19.0799999       20.7861881    
   19.1200008       20.5393810    
   19.1599998       20.2903023    
   19.2000008       20.0391064    
   19.2399998       19.7859573    
   19.2800007       19.5310402    
   19.3199997       19.2745323    
   19.3600006       19.0166035    
   19.3999996       18.7574024    
   19.4400005       18.4970856    
   19.4799995       18.2358227    
   19.5200005       17.9737930    
   19.5599995       17.7111721    
   19.6000004       17.4481392    
   19.6399994       17.1848869    
   19.6800003       16.9216022    
   19.7199993       16.6584625    
   19.7600002       16.3956375    
   19.7999992       16.1332932    
   19.8400002       15.8715982    
   19.8799992       15.6107283    
   19.9200001       15.3508692    
   19.9599991       15.0922098    
   20.0000000       14.8349276    
   20.0400009       14.5791903    
   20.0799999       14.3251610    
   20.1200008       14.0730047    
   20.1599998       13.8228855    
   20.2000008       13.5749702    
   20.2399998       13.3294230    
   20.2800007       13.0864038    
   20.3199997       12.8460646    
   20.3600006       12.6085577    
   20.3999996       12.3740225    
   20.4400005       12.1426029    
   20.4799995       11.9144373    
   20.5200005       11.6896667    
   20.5599995       11.4684267    
   20.6000004       11.2508574    
   20.6399994       11.0370970    
   20.6800003       10.8272600    
   20.7199993       10.6214466    
   20.7600002       10.4197531    
   20.7999992       10.2222834    
   20.8400002       10.0291443    
   20.8799992       9.84043980    
   20.9200001       9.65626335    
   20.9599991       9.47669601    
   21.0000000       9.30179977    
   21.0400009       9.13163662    
   21.0799999       8.96627903    
   21.1200008       8.80579090    
   21.1599998       8.65021992    
   21.2000008       8.49960232    
   21.2399998       8.35398102    
   21.2800007       8.21340370    
   21.3199997       8.07790089    
   21.3600006       7.94749451    
   21.3999996       7.82219839    
   21.4400005       7.70201254    
   21.4799995       7.58693027    
   21.5200005       7.47694540    
   21.5599995       7.37205362    
   21.6000004       7.27224398    
   21.6399994       7.17750788    
   21.6800003       7.08783913    
   21.7199993       7.00321913    
   21.7600002       6.92360830    
   21.7999992       6.84895515    
   21.8400002       6.77920580    
   21.8799992       6.71430397    
   21.9200001       6.65419340    
   21.9599991       6.59882355    
   22.0000000       6.54814005    
   22.0400009       6.50207376    
   22.0799999       6.46055794    
   22.1200008       6.42352819    
   22.1599998       6.39090872    
   22.2000008       6.36260605    
   22.2399998       6.33853245    
   22.2800007       6.31860352    
   22.3199997       6.30272341    
   22.3600006       6.29078531    
   22.3999996       6.28267670    
   22.4400005       6.27828884    
   22.4799995       6.27752161    
   22.5200005       6.28029013    
   22.5599995       6.28651285    
   22.6000004       6.29609013    
   22.6399994       6.30890512    
   22.6800003       6.32484055    
   22.7199993       6.34377289    
   22.7600002       6.36557388    
   22.7999992       6.39011765    
   22.8400002       6.41728973    
   22.8799992       6.44697762    
   22.9200001       6.47907257    
   22.9599991       6.51347446    
   23.0000000       6.55008745    
   23.0400009       6.58880949    
   23.0799999       6.62952280    
   23.1200008       6.67211056    
   23.1599998       6.71645260    
   23.2000008       6.76242542    
   23.2399998       6.80990601    
   23.2800007       6.85878897    
   23.3199997       6.90897942    
   23.3600006       6.96037626    
   23.3999996       7.01287317    
   23.4400005       7.06636238    
   23.4799995       7.12073946    
   23.5200005       7.17591858    
   23.5599995       7.23183060    
   23.6000004       7.28840303    
   23.6399994       7.34553909    
   23.6800003       7.40312719    
   23.7199993       7.46105766    
   23.7600002       7.51923609    
   23.7999992       7.57758427    
   23.8400002       7.63602972    
   23.8799992       7.69449997    
   23.9200001       7.75292635    
   23.9599991       7.81124210    
   24.0000000       7.86938763    
   24.0400009       7.92730522    
   24.0799999       7.98493385    
   24.1200008       8.04220867    
   24.1599998       8.09907532    
   24.2000008       8.15548611    
   24.2399998       8.21139145    