  -10.0000000       0.00000000    
  -9.68000031      -0.00000000    
  -9.35999966       1.73886742E-19
  -9.03999996       8.05848485E-17
  -8.72000027      -9.25696685E-16
  -8.39999962       9.97303368E-15
  -8.07999992      -1.19166152E-13
  -7.76000023       7.00455481E-13
  -7.44000006      -1.43499936E-12
  -7.11999989      -9.36017149E-12
  -6.80000019       7.81482448E-11
  -6.48000002      -2.51596244E-10
  -6.15999985       2.91770580E-10
  -5.84000015       7.47370721E-10
  -5.51999998      -3.73948961E-09
  -5.19999981       5.76712278E-09
  -4.88000011       3.09343795E-09
  -4.55999994      -3.12940642E-08
  -4.23999977       6.40528341E-08
  -3.92000008      -5.88467657E-08
  -3.59999990      -1.51726613E-08
  -3.27999997       1.41981900E-07
  -2.96000004      -2.79855897E-07
  -2.64000010       3.43397886E-07
  -2.31999993      -1.48207832E-07
  -2.00000000      -2.95081236E-07
  -1.67999995       3.45001155E-07
  -1.36000001       4.13592858E-07
  -1.03999996      -7.33471779E-07
 -0.720000029      -2.24002292E-07
 -0.400000006      -2.43196666E-07
  -7.99999982E-02   2.76321066E-06
  0.239999995      -9.83559119E-08
  0.560000002      -8.54140853E-06
  0.879999995       7.20109847E-06
   1.20000005       8.67263407E-06
   1.51999998      -1.38078130E-05
   1.84000003      -5.16639238E-06
   2.16000009       1.47887549E-05
   2.48000002       2.17175475E-05
   2.79999995      -3.45914013E-05
   3.11999989      -1.12381713E-04
   3.44000006      -1.42752309E-04
   3.75999999      -3.08116520E-04
   4.07999992      -6.24487933E-04
   4.40000010      -1.15979125E-03
   4.71999979      -2.22514453E-03
   5.03999996      -3.98520101E-03
   5.36000013      -7.01376563E-03
   5.67999983      -1.21373544E-02
   6.00000000      -2.07108893E-02
   6.32000017      -3.45844179E-02
   6.63999987      -5.63112497E-02
   6.96000004      -9.01021287E-02
   7.28000021     -0.141326189    
   7.59999990     -0.217213377    
   7.92000008     -0.327561617    
   8.23999977     -0.484437019    
   8.56000042     -0.702689290    
   8.88000011      -1.00042689    
   9.19999981      -1.39817250    
   9.52000046      -1.91862917    
   9.84000015      -2.58604980    
   10.1599998      -3.42459083    
   10.4799995      -4.45798826    
   10.8000002      -5.70693636    
   11.1199999      -7.18751574    
   11.4399996      -8.91067791    
   11.7600002      -10.8791952    
   12.0799999      -13.0896692    
   12.3999996      -15.5314417    
   12.7200003      -18.1839142    
   13.0400000      -21.0228024    
   13.3599997      -24.0205402    
   13.6800003      -27.1439915    
   14.0000000      -30.3620453    
   14.3199997      -33.6470566    
   14.6400003      -36.9718971    
   14.9600000      -40.3137360    
   15.2799997      -43.6548691    
   15.6000004      -46.9791603    
   15.9200001      -50.2704735    
   16.2399998      -53.5100899    
   16.5599995      -56.6729736    
   16.8799992      -59.7227783    
   17.2000008      -62.6040230    
   17.5200005      -65.2376480    
   17.8400002      -67.5154343    
   18.1599998      -69.2952499    
   18.4799995      -70.3965149    
   18.7999992      -70.6008835    
   19.1200008      -69.6578674    
   19.4400005      -67.2952042    
   19.7600002      -63.2320671    
   20.0799999      -57.2051735    
   20.3999996      -48.9987411    
   20.7199993      -38.4781952    
   21.0400009      -25.6224766    
   21.3600006      -10.5581608    
   21.6800003       6.41900253    
   22.0000000       24.8328133    
   22.3199997       44.0405083    
   22.6399994       63.2595444    
   22.9599991       81.6190872    
   23.2800007       98.2267914    
   23.6000004       112.245834    
   23.9200001       122.970253    
   24.2399998       129.896973    
   24.5599995       132.770660    
   24.8799992       131.608017    
   25.2000008       126.690277    
   25.5200005       118.529037    
   25.8400002       107.809303    
   26.1599998       95.3176651    
   26.4799995       81.8594360    
   26.7999992       68.1964569    
   27.1200008       54.9868660    
   27.4400005       42.7443275    
   27.7600002       31.8252277    
   28.0799999       22.4326630    
   28.3999996       14.6232090    
   28.7199993       8.34433556    
   29.0400009       3.46250701    
   29.3600006     -0.207866326    
   29.6800003      -2.87875915    
