  -10.0000000       0.00000000    
  -9.96000004       0.00000000    
  -9.92000008       0.00000000    
  -9.88000011       0.00000000    
  -9.84000015       0.00000000    
  -9.80000019       0.00000000    
  -9.76000023       0.00000000    
  -9.72000027       1.25714061E-29
  -9.68000031      -6.66912369E-28
  -9.64000034      -1.04932429E-26
  -9.60000038      -7.83296601E-26
  -9.56000042      -3.92685418E-25
  -9.52000046      -1.50066815E-24
  -9.47999954      -4.67887484E-24
  -9.43999958      -1.24681478E-23
  -9.39999962      -2.95779831E-23
  -9.35999966      -6.52628918E-23
  -9.31999969      -1.40487683E-22
  -9.27999973      -3.06794620E-22
  -9.23999977      -6.86919124E-22
  -9.19999981      -1.54443789E-21
  -9.15999985      -3.37119216E-21
  -9.11999989      -6.93454830E-21
  -9.07999992      -1.31438692E-20
  -9.03999996      -2.24866093E-20
  -9.00000000      -3.36935640E-20
  -8.96000004      -4.13132158E-20
  -8.92000008      -3.21481451E-20
  -8.88000011       1.88092535E-20
  -8.84000015       1.51106059E-19
  -8.80000019       4.16742821E-19
  -8.76000023       8.68075491E-19
  -8.72000027       1.52951517E-18
  -8.68000031       2.34778239E-18
  -8.64000034       3.11983514E-18
  -8.60000038       3.40665319E-18
  -8.56000042       2.45527120E-18
  -8.52000046      -8.30500760E-19
  -8.47999954      -7.81214682E-18
  -8.43999958      -1.98614552E-17
  -8.39999962      -3.78634481E-17
  -8.35999966      -6.14436773E-17
  -8.31999969      -8.79531682E-17
  -8.27999973      -1.11349773E-16
  -8.23999977      -1.21250980E-16
  -8.19999981      -1.02579859E-16
  -8.15999985      -3.63434375E-17
  -8.11999989       9.78779062E-17
  -8.07999992       3.17253173E-16
  -8.03999996       6.28651548E-16
  -8.00000000       1.01955567E-15
  -7.96000004       1.44800007E-15
  -7.92000008       1.83347142E-15
  -7.88000011       2.05157076E-15
  -7.84000015       1.93589994E-15
  -7.80000019       1.29080526E-15
  -7.76000023      -8.19316375E-17
  -7.71999979      -2.34090536E-15
  -7.67999983      -5.54841055E-15
  -7.63999987      -9.60385014E-15
  -7.59999990      -1.41759993E-14
  -7.55999994      -1.86471356E-14
  -7.51999998      -2.20855828E-14
  -7.48000002      -2.32649491E-14
  -7.44000006      -2.07474300E-14
  -7.40000010      -1.30441024E-14
  -7.36000013       1.14328039E-15
  -7.32000017       2.26068113E-14
  -7.28000021       5.12663676E-14
  -7.23999977       8.57931754E-14
  -7.19999981       1.23279411E-13
  -7.15999985       1.59023646E-13
  -7.11999989       1.86508849E-13
  -7.07999992       1.97648199E-13
  -7.03999996       1.83361505E-13
  -7.00000000       1.34519674E-13
  -6.96000004       4.32582132E-14
  -6.92000008      -9.53884527E-14
  -6.88000011      -2.81637913E-13
  -6.84000015      -5.09063874E-13
  -6.80000019      -7.62885794E-13
  -6.76000023      -1.01873143E-12
  -6.71999979      -1.24220361E-12
  -6.67999983      -1.38960002E-12
  -6.63999987      -1.41012224E-12
  -6.59999990      -1.24984582E-12
  -6.55999994      -8.57612863E-13
  -6.51999998      -1.92817225E-13
  -6.48000002       7.65193302E-13
  -6.44000006       2.00670492E-12
  -6.40000010       3.48119233E-12
  -6.36000013       5.08822368E-12
  -6.32000017       6.67146807E-12
  -6.28000021       8.01783466E-12
  -6.23999977       8.86389052E-12
  -6.19999981       8.91149567E-12
  -6.15999985       7.85409411E-12
  -6.11999989       5.41410146E-12
  -6.07999992       1.39042109E-12
  -6.03999996      -4.28672289E-12
  -6.00000000      -1.14985773E-11
  -5.96000004      -1.98854214E-11
  -5.92000008      -2.88079248E-11
  -5.88000011      -3.73327376E-11
  -5.84000015      -4.42527924E-11
  -5.80000019      -4.81516459E-11
  -5.76000023      -4.75179826E-11
  -5.71999979      -4.09113125E-11
  -5.67999983      -2.71730520E-11
  -5.63999987      -5.66869034E-12
  -5.59999990       2.34620413E-11
  -5.55999994       5.90786448E-11
  -5.51999998       9.88749152E-11
  -5.48000002       1.39316711E-10
  -5.44000006       1.75721368E-10
  -5.40000010       2.02509828E-10
  -5.36000013       2.13647974E-10
  -5.32000017       2.03272232E-10
  -5.28000021       1.66468700E-10
  -5.23999977       1.00145892E-10
  -5.19999981       3.91277375E-12
  -5.15999985      -1.19150023E-10
  -5.11999989      -2.61952821E-10
  -5.07999992      -4.13221013E-10
  -5.03999996      -5.57794033E-10
  -5.00000000      -6.77477074E-10
  -4.96000004      -7.52471585E-10
  -4.92000008      -7.63342278E-10
  -4.88000011      -6.93400504E-10
  -4.84000015      -5.31303390E-10
  -4.80000019      -2.73597228E-10
  -4.76000023       7.31180602E-11
  -4.71999979       4.90748220E-10
  -4.67999983       9.49314183E-10
  -4.63999987       1.40787582E-09
  -4.59999990       1.81692439E-09
  -4.55999994       2.12224993E-09
  -4.51999998       2.27011165E-09
  -4.48000002       2.21334906E-09
  -4.44000006       1.91789229E-09
  -4.40000010       1.36898415E-09
  -4.36000013       5.76339032E-10
  -4.32000017      -4.22542723E-10
  -4.28000021      -1.56160196E-09
  -4.23999977      -2.74850476E-09
  -4.19999981      -3.87022014E-09
  -4.15999985      -4.80178697E-09
  -4.11999989      -5.41777956E-09
  -4.07999992      -5.60558933E-09
  -4.03999996      -5.27931210E-09
  -4.00000000      -4.39277681E-09
  -3.96000004      -2.95014990E-09
  -3.92000008      -1.01260500E-09
  -3.88000011       1.30020150E-09
  -3.83999991       3.81469789E-09
  -3.79999995       6.31427621E-09
  -3.75999999       8.55608739E-09
  -3.72000003       1.02926370E-08
  -3.68000007       1.12964278E-08
  -3.64000010       1.13853256E-08
  -3.59999990       1.04460174E-08
  -3.55999994       8.45284731E-09
  -3.51999998       5.47954526E-09
  -3.48000002       1.70188141E-09
  -3.44000006      -2.60990163E-09
  -3.40000010      -7.10904402E-09
  -3.35999990      -1.13996519E-08
  -3.31999993      -1.50714445E-08
  -3.27999997      -1.77388468E-08
  -3.24000001      -1.90806677E-08
  -3.20000005      -1.88762854E-08
  -3.16000009      -1.70343064E-08
  -3.11999989      -1.36101574E-08
  -3.07999992      -8.81010642E-09
  -3.03999996      -2.98036595E-09
  -3.00000000       3.41845707E-09
  -2.96000004       9.84976634E-09
  -2.92000008       1.57489559E-08
  -2.88000011       2.05765005E-08
  -2.83999991       2.38708981E-08
  -2.79999995       2.52959911E-08
  -2.75999999       2.46775471E-08
  -2.72000003       2.20248886E-08
  -2.68000007       1.75348092E-08
  -2.64000010       1.15768035E-08
  -2.59999990       4.66057548E-09
  -2.55999994      -2.61126742E-09
  -2.51999998      -9.60076374E-09
  -2.48000002      -1.56966014E-08
  -2.44000006      -2.03741894E-08
  -2.40000010      -2.32474502E-08
  -2.35999990      -2.41067895E-08
  -2.31999993      -2.29390764E-08
  -2.27999997      -1.99273433E-08
  -2.24000001      -1.54301230E-08
  -2.20000005      -9.94249394E-09
  -2.16000009      -4.04295220E-09
  -2.11999989       1.66818892E-09
  -2.07999992       6.63226229E-09
  -2.03999996       1.03906554E-08
  -2.00000000       1.26318644E-08
  -1.96000004       1.32220830E-08
  -1.91999996       1.22160584E-08
  -1.88000000       9.84713733E-09
  -1.84000003       6.49773257E-09
  -1.79999995       2.65362821E-09
  -1.75999999      -1.15269072E-09
  -1.72000003      -4.40326797E-09
  -1.67999995      -6.65362876E-09
  -1.63999999      -7.58282770E-09
  -1.60000002      -7.02914038E-09
  -1.55999994      -5.00748731E-09
  -1.51999998      -1.70686321E-09
  -1.48000002       2.53173127E-09
  -1.44000006       7.25413596E-09
  -1.39999998       1.19440688E-08
  -1.36000001       1.60804188E-08
  -1.32000005       1.91942338E-08
  -1.27999997       2.09189075E-08
  -1.24000001       2.10280096E-08
  -1.20000005       1.94565466E-08
  -1.15999997       1.63035825E-08
  -1.12000000       1.18161507E-08
  -1.08000004       6.35671693E-09
  -1.03999996       3.58299584E-10
  -1.00000000      -5.72718095E-09
 -0.959999979      -1.14809726E-08
 -0.920000017      -1.65635594E-08
 -0.879999995      -2.07490114E-08
 -0.839999974      -2.39432598E-08
 -0.800000012      -2.61838782E-08
 -0.759999990      -2.76211178E-08
 -0.720000029      -2.84823241E-08
 -0.680000007      -2.90239583E-08
 -0.639999986      -2.94771461E-08
 -0.600000024      -2.99937959E-08
 -0.560000002      -3.06006562E-08
 -0.519999981      -3.11681134E-08
 -0.479999989      -3.13993311E-08
 -0.439999998      -3.08431574E-08
 -0.400000006      -2.89318471E-08
 -0.360000014      -2.50416541E-08
 -0.319999993      -1.85715940E-08
 -0.280000001      -9.03320885E-09
 -0.239999995       3.85787891E-09
 -0.200000003       2.00988861E-08
 -0.159999996       3.93356245E-08
 -0.119999997       6.08264941E-08
  -7.99999982E-02   8.34420177E-08
  -3.99999991E-02   1.05704338E-07
   0.00000000       1.25867302E-07
   3.99999991E-02   1.42033898E-07
   7.99999982E-02   1.52303329E-07
  0.119999997       1.54936956E-07
  0.159999996       1.48529068E-07
  0.200000003       1.32166960E-07
  0.239999995       1.05564496E-07
  0.280000001       6.91546020E-08
  0.319999993       2.41290223E-08
  0.360000014      -2.75823115E-08
  0.400000006      -8.33948022E-08
  0.439999998      -1.40212435E-07
  0.479999989      -1.94621762E-07
  0.519999981      -2.43122599E-07
  0.560000002      -2.82377755E-07
  0.600000024      -3.09460745E-07
  0.639999986      -3.22080780E-07
  0.680000007      -3.18765387E-07
  0.720000029      -2.98984105E-07
  0.759999990      -2.63202310E-07
  0.800000012      -2.12859845E-07
  0.839999974      -1.50276094E-07
  0.879999995      -7.84903449E-08
  0.920000017      -1.05113018E-09
  0.959999979       7.82265204E-08
   1.00000000       1.55514542E-07
   1.03999996       2.27214400E-07
   1.08000004       2.90169027E-07
   1.12000000       3.41827644E-07
   1.15999997       3.80352645E-07
   1.20000005       4.04663922E-07
   1.24000001       4.14421748E-07
   1.27999997       4.09956641E-07
   1.32000005       3.92157204E-07
   1.36000001       3.62332486E-07
   1.39999998       3.22064182E-07
   1.44000006       2.73065695E-07
   1.48000002       2.17059807E-07
   1.51999998       1.55685541E-07
   1.55999994       9.04386042E-08
   1.60000002       2.26457288E-08
   1.63999999      -4.65307721E-08
   1.67999995      -1.16065067E-07
   1.72000003      -1.85024660E-07
   1.75999999      -2.52520806E-07
   1.79999995      -3.17659612E-07
   1.84000003      -3.79499198E-07
   1.88000000      -4.37015558E-07
   1.91999996      -4.89077422E-07
   1.96000004      -5.34428693E-07
   2.00000000      -5.71675969E-07
   2.03999996      -5.99281009E-07
   2.07999992      -6.15556871E-07
   2.11999989      -6.18672857E-07
   2.16000009      -6.06673325E-07
   2.20000005      -5.77520098E-07
   2.24000001      -5.29168574E-07
   2.27999997      -4.59687413E-07
   2.31999993      -3.67428186E-07
   2.35999990      -2.51247030E-07
   2.40000010      -1.10771047E-07
   2.44000006       5.33061773E-08
   2.48000002       2.38925651E-07
   2.51999998       4.42394025E-07
   2.55999994       6.58186366E-07
   2.59999990       8.78862011E-07
   2.64000010       1.09513326E-06
   2.68000007       1.29611874E-06
   2.72000003       1.46979778E-06
   2.75999999       1.60366221E-06
   2.79999995       1.68554413E-06
   2.83999991       1.70456758E-06
   2.88000011       1.65215829E-06
   2.92000008       1.52302073E-06
   2.96000004       1.31598665E-06
   3.00000000       1.03463708E-06
   3.03999996       6.87605564E-07
   3.07999992       2.88495386E-07
   3.11999989      -1.44628487E-07
   3.16000009      -5.90175830E-07
   3.20000005      -1.02435490E-06
   3.24000001      -1.42280078E-06
   3.27999997      -1.76238825E-06
   3.31999993      -2.02307797E-06
   3.35999990      -2.18963032E-06
   3.40000010      -2.25301801E-06
   3.44000006      -2.21138225E-06
   3.48000002      -2.07041649E-06
   3.51999998      -1.84309738E-06
   3.55999994      -1.54875204E-06
   3.59999990      -1.21150458E-06
   3.64000010      -8.58213468E-07
   3.68000007      -5.16066848E-07
   3.72000003      -2.10043638E-07
   3.75999999       3.95224617E-08
   3.79999995       2.19037361E-07
   3.83999991       3.23179933E-07
   3.88000011       3.55696017E-07
   3.92000008       3.29337126E-07
   3.96000004       2.64905623E-07
   4.00000000       1.89445970E-07
   4.03999996       1.33715375E-07
   4.07999992       1.29132118E-07
   4.11999989       2.04467881E-07
   4.15999985       3.82581561E-07
   4.19999981       6.77506762E-07
   4.23999977       1.09218331E-06
   4.28000021       1.61707987E-06
   4.32000017       2.22988160E-06
   4.36000013       2.89632726E-06
   4.40000010       3.57218096E-06
   4.44000006       4.20622109E-06
   4.48000002       4.74402987E-06
   4.51999998       5.13229634E-06
   4.55999994       5.32328249E-06
   4.59999990       5.27908333E-06
   4.63999987       4.97531073E-06
   4.67999983       4.40387839E-06
   4.71999979       3.57462295E-06
   4.76000023       2.51559550E-06
   4.80000019       1.27195005E-06
   4.84000015      -9.65130340E-08
   4.88000011      -1.51900110E-06
   4.92000008      -2.91832657E-06
   4.96000004      -4.21611821E-06
   5.00000000      -5.33827415E-06
   5.03999996      -6.22025664E-06
   5.07999992      -6.81185429E-06
   5.11999989      -7.08106427E-06
   5.15999985      -7.01683757E-06
   5.19999981      -6.63049104E-06
   5.23999977      -5.95572283E-06
   5.28000021      -5.04723766E-06
   5.32000017      -3.97811709E-06
   5.36000013      -2.83612849E-06
   5.40000010      -1.71925819E-06
   5.44000006      -7.30779732E-07
   5.48000002       2.57980730E-08
   5.51999998       4.51583190E-07
   5.55999994       4.56646120E-07
   5.59999990      -3.63924855E-08
   5.63999987      -1.08971994E-06
   5.67999983      -2.74873332E-06
   5.71999979      -5.04154877E-06
   5.76000023      -7.97955909E-06
   5.80000019      -1.15589528E-05
   5.84000015      -1.57630457E-05
   5.88000011      -2.05652032E-05
   5.92000008      -2.59321951E-05
   5.96000004      -3.18277162E-05
   6.00000000      -3.82158505E-05
   6.03999996      -4.50643238E-05
   6.07999992      -5.23473791E-05
   6.11999989      -6.00480889E-05
   6.15999985      -6.81600868E-05
   6.19999981      -7.66886442E-05
   6.23999977      -8.56510669E-05
   6.28000021      -9.50764734E-05
   6.32000017      -1.05005071E-04
   6.36000013      -1.15486902E-04
   6.40000010      -1.26580329E-04
   6.44000006      -1.38350355E-04
   6.48000002      -1.50866894E-04
   6.51999998      -1.64203142E-04
   6.55999994      -1.78434304E-04
   6.59999990      -1.93636748E-04
   6.63999987      -2.09887701E-04
   6.67999983      -2.27265540E-04
   6.71999979      -2.45850795E-04
   6.76000023      -2.65727926E-04
   6.80000019      -2.86987546E-04
   6.84000015      -3.09729367E-04
   6.88000011      -3.34065553E-04
   6.92000008      -3.60124133E-04
   6.96000004      -3.88052606E-04
   7.00000000      -4.18021111E-04
   7.03999996      -4.50225140E-04
   7.07999992      -4.84887627E-04
   7.11999989      -5.22259972E-04
   7.15999985      -5.62621921E-04
   7.19999981      -6.06280519E-04
   7.23999977      -6.53567724E-04
   7.28000021      -7.04836799E-04
   7.32000017      -7.60458235E-04
   7.36000013      -8.20814748E-04
   7.40000010      -8.86295922E-04
   7.44000006      -9.57293436E-04
   7.48000002      -1.03419612E-03
   7.51999998      -1.11738686E-03
   7.55999994      -1.20723993E-03
   7.59999990      -1.30412052E-03
   7.63999987      -1.40838558E-03
   7.67999983      -1.52038725E-03
   7.71999979      -1.64047827E-03
   7.76000023      -1.76901778E-03
   7.80000019      -1.90638122E-03
   7.84000015      -2.05296860E-03
   7.88000011      -2.20921519E-03
   7.92000008      -2.37560202E-03
   7.96000004      -2.55266624E-03
   8.00000000      -2.74101016E-03
   8.03999996      -2.94130994E-03
   8.07999992      -3.15432111E-03
   8.11999989      -3.38088558E-03
   8.15999985      -3.62193235E-03
   8.19999981      -3.87847889E-03
   8.23999977      -4.15163161E-03
   8.27999973      -4.44258191E-03
   8.31999969      -4.75260383E-03
   8.35999966      -5.08304732E-03
   8.39999962      -5.43533778E-03
   8.43999958      -5.81096532E-03
   8.47999954      -6.21148571E-03
   8.52000046      -6.63851108E-03
   8.56000042      -7.09370989E-03
   8.60000038      -7.57880555E-03
   8.64000034      -8.09557270E-03
   8.68000031      -8.64583813E-03
   8.72000027      -9.23148543E-03
   8.76000023      -9.85445268E-03
   8.80000019      -1.05167385E-02
   8.84000015      -1.12204049E-02
   8.88000011      -1.19675882E-02
   8.92000008      -1.27604958E-02
   8.96000004      -1.36014204E-02
   9.00000000      -1.44927436E-02
   9.03999996      -1.54369446E-02
   9.07999992      -1.64366104E-02
   9.11999989      -1.74944475E-02
   9.15999985      -1.86132845E-02
   9.19999981      -1.97960939E-02
   9.23999977      -2.10459959E-02
   9.27999973      -2.23662779E-02
   9.31999969      -2.37604007E-02
   9.35999966      -2.52320208E-02
   9.39999962      -2.67849993E-02
   9.43999958      -2.84234099E-02
   9.47999954      -3.01515628E-02
   9.52000046      -3.19740139E-02
   9.56000042      -3.38955559E-02
   9.60000038      -3.59212533E-02
   9.64000034      -3.80564220E-02
   9.68000031      -4.03066352E-02
   9.72000027      -4.26777415E-02
   9.76000023      -4.51758243E-02
   9.80000019      -4.78072092E-02
   9.84000015      -5.05784564E-02
   9.88000011      -5.34963459E-02
   9.92000008      -5.65678477E-02
   9.96000004      -5.98001145E-02
   10.0000000      -6.32004663E-02
   10.0400000      -6.67763799E-02
   10.0799999      -7.05354586E-02
   10.1199999      -7.44854733E-02
   10.1599998      -7.86342919E-02
   10.1999998      -8.29899758E-02
   10.2399998      -8.75606835E-02
   10.2799997      -9.23547745E-02
   10.3199997      -9.73808244E-02
   10.3599997     -0.102647595    
   10.3999996     -0.108164154    
   10.4399996     -0.113939852    
   10.4799995     -0.119984381    
   10.5200005     -0.126307800    
   10.5600004     -0.132920593    
   10.6000004     -0.139833704    
   10.6400003     -0.147058502    
   10.6800003     -0.154606879    
   10.7200003     -0.162491158    
   10.7600002     -0.170724228    
   10.8000002     -0.179319382    
   10.8400002     -0.188290417    
   10.8800001     -0.197651505    
   10.9200001     -0.207417250    
   10.9600000     -0.217602596    
   11.0000000     -0.228222832    
   11.0400000     -0.239293516    
   11.0799999     -0.250830382    
   11.1199999     -0.262849510    
   11.1599998     -0.275367081    
   11.1999998     -0.288399428    
   11.2399998     -0.301963091    
   11.2799997     -0.316074699    
   11.3199997     -0.330751091    
   11.3599997     -0.346009314    
   11.3999996     -0.361866444    
   11.4399996     -0.378339946    
   11.4799995     -0.395447373    
   11.5200005     -0.413206607    
   11.5600004     -0.431635827    
   11.6000004     -0.450753510    
   11.6400003     -0.470578462    
   11.6800003     -0.491129905    
   11.7200003     -0.512427330    
   11.7600002     -0.534490705    
   11.8000002     -0.557340324    
   11.8400002     -0.580996931    
   11.8800001     -0.605481505    
   11.9200001     -0.630815506    
   11.9600000     -0.657020569    
   12.0000000     -0.684118748    
   12.0400000     -0.712132215    
   12.0799999     -0.741083264    
   12.1199999     -0.770994544    
   12.1599998     -0.801888645    
   12.1999998     -0.833788216    
   12.2399998     -0.866715848    
   12.2799997     -0.900694311    
   12.3199997     -0.935746074    
   12.3599997     -0.971893489    
   12.3999996      -1.00915897    
   12.4399996      -1.04756439    
   12.4799995      -1.08713186    
   12.5200005      -1.12788320    
   12.5600004      -1.16983974    
   12.6000004      -1.21302319    
   12.6400003      -1.25745440    
   12.6800003      -1.30315459    
   12.7200003      -1.35014474    
   12.7600002      -1.39844525    
   12.8000002      -1.44807684    
   12.8400002      -1.49905992    
   12.8800001      -1.55141473    
   12.9200001      -1.60516131    
   12.9600000      -1.66031921    
   13.0000000      -1.71690822    
   13.0400000      -1.77494764    
   13.0799999      -1.83445644    
   13.1199999      -1.89545333    
   13.1599998      -1.95795655    
   13.1999998      -2.02198386    
   13.2399998      -2.08755279    
   13.2799997      -2.15468001    
   13.3199997      -2.22338223    
   13.3599997      -2.29367518    
   13.3999996      -2.36557364    
   13.4399996      -2.43909240    
   13.4799995      -2.51424527    
   13.5200005      -2.59104586    
   13.5600004      -2.66950655    
   13.6000004      -2.74963903    
   13.6400003      -2.83145452    
   13.6800003      -2.91496348    
   13.7200003      -3.00017571    
   13.7600002      -3.08709979    
   13.8000002      -3.17574358    
   13.8400002      -3.26611495    
   13.8800001      -3.35821986    
   13.9200001      -3.45206404    
   13.9600000      -3.54765224    
   14.0000000      -3.64498806    
   14.0400000      -3.74407411    
   14.0799999      -3.84491229    
   14.1199999      -3.94750333    
   14.1599998      -4.05184746    
   14.1999998      -4.15794420    
   14.2399998      -4.26579094    
   14.2799997      -4.37538528    
   14.3199997      -4.48672390    
   14.3599997      -4.59980154    
   14.3999996      -4.71461296    
   14.4399996      -4.83115196    
   14.4799995      -4.94941092    
   14.5200005      -5.06938171    
   14.5600004      -5.19105625    
   14.6000004      -5.31442356    
   14.6400003      -5.43947315    
   14.6800003      -5.56619358    
   14.7200003      -5.69457197    
   14.7600002      -5.82459593    
   14.8000002      -5.95625019    
   14.8400002      -6.08952045    
   14.8800001      -6.22438955    
   14.9200001      -6.36084127    
   14.9600000      -6.49885798    
   15.0000000      -6.63842058    
   15.0400000      -6.77950954    
   15.0799999      -6.92210484    
   15.1199999      -7.06618452    
   15.1599998      -7.21172714    
   15.1999998      -7.35870934    
   15.2399998      -7.50710821    
   15.2799997      -7.65689850    
   15.3199997      -7.80805588    
   15.3599997      -7.96055460    
   15.3999996      -8.11436653    
   15.4399996      -8.26946545    
   15.4799995      -8.42582417    
   15.5200005      -8.58341312    
   15.5600004      -8.74220371    
   15.6000004      -8.90216541    
   15.6400003      -9.06327057    
   15.6800003      -9.22548676    
   15.7200003      -9.38878536    
   15.7600002      -9.55313301    
   15.8000002      -9.71850014    
   15.8400002      -9.88485622    
   15.8800001      -10.0521679    
   15.9200001      -10.2204046    
   15.9600000      -10.3895350    
   16.0000000      -10.5595255    
   16.0400009      -10.7303467    
   16.0799999      -10.9019661    
   16.1200008      -11.0743532    
   16.1599998      -11.2474747    
   16.2000008      -11.4212999    
   16.2399998      -11.5957975    
   16.2800007      -11.7709370    
   16.3199997      -11.9466848    
   16.3600006      -12.1230125    
   16.3999996      -12.2998886    
   16.4400005      -12.4772816    
   16.4799995      -12.6551609    
   16.5200005      -12.8334961    
   16.5599995      -13.0122566    
   16.6000004      -13.1914110    
   16.6399994      -13.3709307    
   16.6800003      -13.5507832    
   16.7199993      -13.7309389    
   16.7600002      -13.9113703    
   16.7999992      -14.0920448    
   16.8400002      -14.2729349    
   16.8799992      -14.4540119    
   16.9200001      -14.6352482    
   16.9599991      -14.8166151    
   17.0000000      -14.9980850    
   17.0400009      -15.1796322    
   17.0799999      -15.3612318    
   17.1200008      -15.5428562    
   17.1599998      -15.7244854    
   17.2000008      -15.9060946    
   17.2399998      -16.0876598    
   17.2800007      -16.2691631    
   17.3199997      -16.4505806    
   17.3600006      -16.6318951    
   17.3999996      -16.8130875    
   17.4400005      -16.9941387    
   17.4799995      -17.1750336    
   17.5200005      -17.3557491    
   17.5599995      -17.5362778    
   17.6000004      -17.7166004    
   17.6399994      -17.8966999    
   17.6800003      -18.0765648    
   17.7199993      -18.2561817    
   17.7600002      -18.4355354    
   17.7999992      -18.6146145    
   17.8400002      -18.7934074    
   17.8799992      -18.9719048    
   17.9200001      -19.1500912    
   17.9599991      -19.3279591    
   18.0000000      -19.5054989    
   18.0400009      -19.6827049    
   18.0799999      -19.8595676    
   18.1200008      -20.0360813    
   18.1599998      -20.2122383    
   18.2000008      -20.3880348    
   18.2399998      -20.5634670    
   18.2800007      -20.7385311    
   18.3199997      -20.9132233    
   18.3600006      -21.0875473    
   18.3999996      -21.2614994    
   18.4400005      -21.4350758    
   18.4799995      -21.6082783    
   18.5200005      -21.7811127    
   18.5599995      -21.9535770    
   18.6000004      -22.1256752    
   18.6399994      -22.2974129    
   18.6800003      -22.4687881    
   18.7199993      -22.6398106    
   18.7600002      -22.8104801    
   18.7999992      -22.9808044    
   18.8400002      -23.1507912    
   18.8799992      -23.3204422    
   18.9200001      -23.4897671    
   18.9599991      -23.6587696    
   19.0000000      -23.8274593    
   19.0400009      -23.9958420    
   19.0799999      -24.1639233    
   19.1200008      -24.3317127    
   19.1599998      -24.4992161    
   19.2000008      -24.6664391    
   19.2399998      -24.8333874    
   19.2800007      -25.0000744    
   19.3199997      -25.1665039    
   19.3600006      -25.3326817    
   19.3999996      -25.4986172    
   19.4400005      -25.6643181    
   19.4799995      -25.8297920    
   19.5200005      -25.9950485    
   19.5599995      -26.1600933    
   19.6000004      -26.3249340    
   19.6399994      -26.4895821    
   19.6800003      -26.6540451    
   19.7199993      -26.8183308    
   19.7600002      -26.9824543    
   19.7999992      -27.1464195    
   19.8400002      -27.3102398    
   19.8799992      -27.4739227    
   19.9200001      -27.6374817    
   19.9599991      -27.8009243    
   20.0000000      -27.9642620    
   20.0400009      -28.1275005    
   20.0799999      -28.2906551    
   20.1200008      -28.4537239    
   20.1599998      -28.6167221    
   20.2000008      -28.7796516    
   20.2399998      -28.9425201    
   20.2800007      -29.1053314    
   20.3199997      -29.2680874    
   20.3600006      -29.4307957    
   20.3999996      -29.5934525    
   20.4400005      -29.7560596    
   20.4799995      -29.9186172    
   20.5200005      -30.0811291    
   20.5599995      -30.2435894    
   20.6000004      -30.4059982    
   20.6399994      -30.5683517    
   20.6800003      -30.7306499    
   20.7199993      -30.8928871    
   20.7600002      -31.0550556    
   20.7999992      -31.2171593    
   20.8400002      -31.3791847    
   20.8799992      -31.5411301    
   20.9200001      -31.7029858    
   20.9599991      -31.8647442    
   21.0000000      -32.0263939    
   21.0400009      -32.1879272    
   21.0799999      -32.3493233    
   21.1200008      -32.5105782    
   21.1599998      -32.6716690    
   21.2000008      -32.8325768    
   21.2399998      -32.9932861    
   21.2800007      -33.1537704    
   21.3199997      -33.3140068    
   21.3600006      -33.4739761    
   21.3999996      -33.6336441    
   21.4400005      -33.7929840    
   21.4799995      -33.9519615    
   21.5200005      -34.1105423    
   21.5599995      -34.2686920    
   21.6000004      -34.4263725    
   21.6399994      -34.5835381    
   21.6800003      -34.7401543    
   21.7199993      -34.8961754    
   21.7600002      -35.0515480    
   21.7999992      -35.2062263    
   21.8400002      -35.3601608    
   21.8799992      -35.5132904    
   21.9200001      -35.6655655    
   21.9599991      -35.8169212    
   22.0000000      -35.9672928    
   22.0400009      -36.1166115    
   22.0799999      -36.2648163    
   22.1200008      -36.4118233    
   22.1599998      -36.5575562    
   22.2000008      -36.7019386    
   22.2399998      -36.8448792    
   22.2800007      -36.9862900    
   22.3199997      -37.1260872    
   22.3600006      -37.2641640    
   22.3999996      -37.4004211    
   22.4400005      -37.5347481    
   22.4799995      -37.6670418    
   22.5200005      -37.7971802    
   22.5599995      -37.9250488    
   22.6000004      -38.0505219    
   22.6399994      -38.1734619    
   22.6800003      -38.2937431    
   22.7199993      -38.4112167    
   22.7600002      -38.5257378    
   22.7999992      -38.6371613    
   22.8400002      -38.7453232    
   22.8799992      -38.8500595    
   22.9200001      -38.9512024    
   22.9599991      -39.0485725    
   23.0000000      -39.1419983    
   23.0400009      -39.2312813    
   23.0799999      -39.3162384    
   23.1200008      -39.3966599    
   23.1599998      -39.4723434    
   23.2000008      -39.5430756    
   23.2399998      -39.6086388    
   23.2800007      -39.6688080    
   23.3199997      -39.7233505    
   23.3600006      -39.7720261    
   23.3999996      -39.8145943    
   23.4400005      -39.8508034    
   23.4799995      -39.8803978    
   23.5200005      -39.9031105    
   23.5599995      -39.9186745    
   23.6000004      -39.9268150    
   23.6399994      -39.9272461    
   23.6800003      -39.9196815    
   23.7199993      -39.9038315    
   23.7600002      -39.8793869    
   23.7999992      -39.8460503    
   23.8400002      -39.8035049    
   23.8799992      -39.7514305    
   23.9200001      -39.6895103    
   23.9599991      -39.6174088    
   24.0000000      -39.5347977    
   24.0400009      -39.4413300    
   24.0799999      -39.3366737    
   24.1200008      -39.2204742    
   24.1599998      -39.0923805    
   24.2000008      -38.9520378    
   24.2399998      -38.7990913    