  -10.0000000       0.00000000    
  -9.68000031       0.00000000    
  -9.35999966       1.64525028E-20
  -9.03999996      -1.20955684E-18
  -8.72000027      -8.15212037E-17
  -8.39999962       1.59370721E-15
  -8.07999992      -6.59048935E-15
  -7.76000023      -3.56393483E-14
  -7.44000006       5.34988828E-13
  -7.11999989      -4.17387349E-12
  -6.80000019       1.64093947E-11
  -6.48000002      -1.95093715E-11
  -6.15999985      -6.60565561E-11
  -5.84000015       3.97182509E-10
  -5.51999998      -1.07886844E-09
  -5.19999981       1.53370017E-09
  -4.88000011      -2.12473636E-10
  -4.55999994      -1.96462446E-09
  -4.23999977      -3.80899978E-09
  -3.92000008       2.40402898E-08
  -3.59999990      -3.36872610E-08
  -3.27999997       5.34644400E-08
  -2.96000004      -4.06868224E-07
  -2.64000010       1.60686295E-06
  -2.31999993      -3.36781000E-06
  -2.00000000       4.19553544E-06
  -1.67999995      -4.29886768E-06
  -1.36000001       1.01512614E-05
  -1.03999996      -2.46596719E-05
 -0.720000029       1.94586337E-05
 -0.400000006      -1.50765436E-05
  -7.99999982E-02   4.18914078E-06
  0.239999995      -2.45359988E-05
  0.560000002      -1.52444306E-06
  0.879999995       1.87426213E-05
   1.20000005       1.11047804E-04
   1.51999998       2.14230779E-04
   1.84000003       3.73141898E-04
   2.16000009       7.22689147E-04
   2.48000002       1.40712981E-03
   2.79999995       2.84582260E-03
   3.11999989       5.03030792E-03
   3.44000006       8.76231398E-03
   3.75999999       1.51865045E-02
   4.07999992       2.57778876E-02
   4.40000010       4.23141420E-02
   4.71999979       6.74494877E-02
   5.03999996      0.105667919    
   5.36000013      0.162134722    
   5.67999983      0.242701843    
   6.00000000      0.355453372    
   6.32000017      0.510225832    
   6.63999987      0.717425168    
   6.96000004      0.987701774    
   7.28000021       1.33266699    
   7.59999990       1.76392031    
   7.92000008       2.29032755    
   8.23999977       2.91849375    
   8.56000042       3.65102482    
   8.88000011       4.48784781    
   9.19999981       5.42326021    
   9.52000046       6.44647074    
   9.84000015       7.54280567    
   10.1599998       8.69607449    
   10.4799995       9.88677692    
   10.8000002       11.0960894    
   11.1199999       12.3058968    
   11.4399996       13.5020370    
   11.7600002       14.6744967    
   12.0799999       15.8167486    
   12.3999996       16.9266758    
   12.7200003       18.0063267    
   13.0400000       19.0595722    
   13.3599997       20.0923367    
   13.6800003       21.1076965    
   14.0000000       22.1077175    
   14.3199997       23.0897236    
   14.6400003       24.0468693    
   14.9600000       24.9640369    
   15.2799997       25.8238811    
   15.6000004       26.5974407    
   15.9200001       27.2551727    
   16.2399998       27.7578907    
   16.5599995       28.0694160    
   16.8799992       28.1484470    
   17.2000008       27.9609795    
   17.5200005       27.4751396    
   17.8400002       26.6753025    
   18.1599998       25.5564976    
   18.4799995       24.1353741    
   18.7999992       22.4453812    
   19.1200008       20.5409241    
   19.4400005       18.4933834    
   19.7600002       16.3870716    
   20.0799999       14.3123178    
   20.3999996       12.3570719    
   20.7199993       10.6027088    
   21.0400009       9.11222076    
   21.3600006       7.92878008    
   21.6800003       7.07095957    
   22.0000000       6.53397942    
   22.3199997       6.29158211    
   22.6399994       6.30220461    
   22.9599991       6.50915146    
   23.2800007       6.85840130    
   23.6000004       7.28930712    
   23.9200001       7.75683260    
   24.2399998       8.21512794    
   24.5599995       8.63938618    
   24.8799992       9.00744724    
   25.2000008       9.31684589    
   25.5200005       9.56141567    
   25.8400002       9.75419426    
   26.1599998       9.89896679    
   26.4799995       10.0099096    
   26.7999992       10.0936651    
   27.1200008       10.1604271    
   27.4400005       10.2109098    
   27.7600002       10.2527246    
   28.0799999       10.2806778    
   28.3999996       10.2976122    
   28.7199993       10.2981396    
   29.0400009       10.2868176    
   29.3600006       10.2577648    
   29.6800003       10.2191296    
