  -10.0000000        -1.83962120E-30
  -9.97000027        -1.83962120E-30
  -9.93999958        -1.83962120E-30
  -9.90999985        -1.83962120E-30
  -9.88000011        -1.82184133E-30
  -9.85000038         1.08252648E-30
  -9.81999969         4.35435231E-30
  -9.78999996         5.72924436E-30
  -9.76000023         5.33672931E-30
  -9.72999954         5.18346440E-30
  -9.69999981         5.72987292E-30
  -9.67000008         6.35177789E-30
  -9.64000034         5.94776293E-30
  -9.60999966        -7.99470823E-31
  -9.57999992        -4.70553699E-30
  -9.55000019        -7.38006650E-30
  -9.52000046        -8.13315702E-30
  -9.48999977        -9.24376333E-30
  -9.46000004        -7.69192421E-30
  -9.43000031        -5.43140268E-30
  -9.39999962        -4.56575171E-30
  -9.36999989        -2.32468377E-30
  -9.34000015        -1.30497120E-30
  -9.31000042         2.64046556E-30
  -9.27999973         3.97733197E-30
  -9.25000000         4.41672047E-30
  -9.22000027         4.03435379E-30
  -9.18999958         4.25201547E-30
  -9.15999985         4.84376948E-30
  -9.13000011         1.73978900E-30
  -9.10000038         4.02633710E-30
  -9.06999969         4.41050822E-30
  -9.03999996         3.63112311E-30
  -9.01000023         2.47121413E-30
  -8.97999954         5.91912074E-30
  -8.94999981         7.27376795E-30
  -8.92000008         7.73294727E-30
  -8.89000034         5.19563989E-30
  -8.85999966         4.32817443E-31
  -8.82999992        -7.66014561E-30
  -8.80000019        -1.17316006E-29
  -8.77000046        -1.37875444E-29
  -8.73999977        -1.67303082E-29
  -8.71000004        -1.77620484E-29
  -8.68000031        -1.13232441E-29
  -8.64999962        -1.02985590E-29
  -8.61999989        -3.97053968E-30
  -8.59000015         1.00711814E-30
  -8.56000042         6.87997547E-30
  -8.52999973         1.47110428E-29
  -8.50000000         1.90565788E-29
  -8.47000027         1.99648428E-29
  -8.43999958         1.69032492E-29
  -8.40999985         6.56398980E-30
  -8.38000011        -9.79072593E-30
  -8.35000038        -1.84760177E-29
  -8.31999969        -2.85943210E-29
  -8.28999996        -2.76963562E-29
  -8.26000023        -2.94154262E-29
  -8.22999954        -1.94249896E-29
  -8.19999981        -1.44871731E-29
  -8.17000008        -3.73467721E-30
  -8.14000034         1.63060770E-29
  -8.10999966         3.08608125E-29
  -8.07999992         4.54393529E-29
  -8.05000019         5.43712894E-29
  -8.02000046         5.34782296E-29
  -7.98999977         4.37433339E-29
  -7.96000004         2.62943002E-29
  -7.92999983         4.29829985E-30
  -7.90000010        -1.95867196E-29
  -7.86999989        -3.72890912E-29
  -7.84000015        -5.07231267E-29
  -7.80999994        -5.91228896E-29
  -7.78000021        -5.14054054E-29
  -7.75000000        -3.14516758E-29
  -7.71999979        -1.14933714E-29
  -7.69000006         1.29582089E-29
  -7.65999985         3.80048149E-29
  -7.63000011         5.27712208E-29
  -7.59999990         5.21157305E-29
  -7.57000017         4.35462149E-29
  -7.53999996         2.69399983E-29
  -7.51000023         9.02557126E-30
  -7.48000002        -1.35714611E-29
  -7.44999981        -3.63698810E-29
  -7.42000008        -4.71316826E-29
  -7.38999987        -4.74620789E-29
  -7.36000013        -4.32243319E-29
  -7.32999992        -3.23759085E-29
  -7.30000019        -2.24716799E-29
  -7.26999998        -2.36295749E-30
  -7.23999977         9.69301206E-30
  -7.21000004         2.09635353E-29
  -7.17999983         2.58323328E-29
  -7.15000010         2.73342031E-29
  -7.11999989         1.90859417E-29
  -7.09000015         8.74534168E-30
  -7.05999994        -4.59983729E-30
  -7.03000021        -1.21947936E-29
  -7.00000000        -1.66559372E-29
  -6.96999979        -1.80289101E-29
  -6.94000006        -7.80097247E-30
  -6.90999985         3.69969073E-30
  -6.88000011         1.88820158E-29
  -6.84999990         2.53426772E-29
  -6.82000017         2.77493072E-29
  -6.78999996         2.73913942E-29
  -6.76000023         1.94588800E-29
  -6.73000002         3.33880268E-30
  -6.69999981        -1.27143290E-29
  -6.67000008        -3.15783027E-29
  -6.63999987        -3.35658082E-29
  -6.61000013        -3.50857552E-29
  -6.57999992        -2.40431469E-29
  -6.55000019        -8.90460706E-30
  -6.51999998         1.88770870E-30
  -6.48999977         1.79283765E-29
  -6.46000004         2.91706104E-29
  -6.42999983         3.27728337E-29
  -6.40000010         3.19919022E-29
  -6.36999989         1.74214417E-29
  -6.34000015         4.42133932E-30
  -6.30999994        -9.16855200E-30
  -6.28000021        -2.20185101E-29
  -6.25000000        -1.73300548E-29
  -6.21999979        -1.97135616E-29
  -6.19000006        -5.03010697E-30
  -6.15999985         2.54266726E-30
  -6.13000011         8.75706428E-30
  -6.09999990         1.31378710E-29
  -6.07000017         1.48899422E-29
  -6.03999996         1.19822183E-29
  -6.01000023         6.36367803E-30
  -5.98000002        -3.41211103E-30
  -5.94999981        -8.17894976E-30
  -5.92000008        -1.82130997E-29
  -5.88999987        -2.19782867E-29
  -5.86000013        -2.64295757E-29
  -5.82999992        -2.30701942E-29
  -5.80000019        -1.27487188E-29
  -5.76999998        -4.46988065E-30
  -5.73999977         3.51751168E-30
  -5.71000004         1.74705544E-29
  -5.67999983         2.01481101E-29
  -5.65000010         1.84402511E-29
  -5.61999989         1.50211206E-29
  -5.59000015         1.00933422E-29
  -5.55999994         2.83038370E-30
  -5.53000021         9.74744072E-32
  -5.50000000        -4.60101241E-30
  -5.46999979        -4.01017509E-30
  -5.44000006        -7.96248840E-31
  -5.40999985         2.32540543E-30
  -5.38000011        -3.06223331E-31
  -5.34999990        -5.66145840E-30
  -5.32000017        -2.48141384E-30
  -5.28999996        -1.37732356E-31
  -5.26000023        -5.41628535E-32
  -5.23000002         1.26809491E-30
  -5.19999981         3.69169436E-30
  -5.17000008         6.74847959E-30
  -5.13999987         9.00717036E-30
  -5.11000013         3.93889876E-30
  -5.07999992         4.86505665E-30
  -5.05000019         4.99648106E-30
  -5.01999998         5.58747937E-30
  -4.98999977         4.74496523E-31
  -4.96000004        -9.06369715E-30
  -4.92999983        -1.74465826E-29
  -4.90000010        -2.43364119E-29
  -4.86999989        -3.26711476E-29
  -4.84000015        -3.11956084E-29
  -4.80999994        -1.93698358E-29
  -4.78000021        -5.87850318E-30
  -4.75000000         7.06450513E-30
  -4.71999979         2.06873208E-29
  -4.69000006         3.29917728E-29
  -4.65999985         3.85290741E-29
  -4.63000011         3.74629937E-29
  -4.59999990         2.67073310E-29
  -4.57000017         1.84426239E-29
  -4.53999996        -2.60926080E-30
  -4.51000023        -2.01812406E-29
  -4.48000002        -2.69253613E-29
  -4.44999981        -2.90952614E-29
  -4.42000008        -2.50266637E-29
  -4.38999987        -1.82708565E-29
  -4.36000013        -2.50676089E-30
  -4.32999992         1.67606401E-29
  -4.30000019         2.69601544E-29
  -4.26999998         3.05147651E-29
  -4.23999977         2.33324366E-29
  -4.21000004         1.09555494E-29
  -4.17999983        -1.15024406E-29
  -4.15000010        -3.81705803E-29
  -4.11999989        -5.35404432E-29
  -4.09000015        -6.67666888E-29
  -4.05999994        -6.75075399E-29
  -4.03000021        -6.07549587E-29
  -4.00000000        -3.57159736E-29
  -3.97000003        -1.19287211E-29
  -3.94000006         2.47410362E-29
  -3.91000009         5.81160736E-29
  -3.88000011         7.76370708E-29
  -3.84999990         7.88024149E-29
  -3.81999993         4.91271807E-29
  -3.78999996        -6.19831852E-30
  -3.75999999        -7.88393025E-29
  -3.73000002        -1.61914507E-28
  -3.70000005        -2.53130221E-28
  -3.67000008        -3.17770159E-28
  -3.64000010        -3.42560489E-28
  -3.60999990        -2.91228365E-28
  -3.57999992        -1.47985050E-28
  -3.54999995         1.00956862E-28
  -3.51999998         4.63291933E-28
  -3.49000001         9.35892849E-28
  -3.46000004         1.49209419E-27
  -3.43000007         2.09305155E-27
  -3.40000010         2.66952630E-27
  -3.36999989         3.14285478E-27
  -3.33999991         3.43211771E-27
  -3.30999994         3.41004463E-27
  -3.27999997         2.95446031E-27
  -3.25000000         1.96583155E-27
  -3.22000003         3.49993110E-28
  -3.19000006        -1.97143717E-27
  -3.16000009        -5.00608742E-27
  -3.13000011        -8.68316301E-27
  -3.09999990        -1.28525263E-26
  -3.06999993        -1.72637664E-26
  -3.03999996        -2.15381198E-26
  -3.00999999        -2.51928015E-26
  -2.98000002        -2.76143040E-26
  -2.95000005        -2.81019217E-26
  -2.92000008        -2.58964084E-26
  -2.89000010        -2.02686839E-26
  -2.85999990        -1.05505447E-26
  -2.82999992         3.76169478E-27
  -2.79999995         2.28635741E-26
  -2.76999998         4.65622777E-26
  -2.74000001         7.41811638E-26
  -2.71000004         1.04385785E-25
  -2.68000007         1.35196683E-25
  -2.65000010         1.63870717E-25
  -2.61999989         1.86971091E-25
  -2.58999991         2.00398736E-25
  -2.55999994         1.99630731E-25
  -2.52999997         1.79956466E-25
  -2.50000000         1.36879126E-25
  -2.47000003         6.66118586E-26
  -2.44000006        -3.33282762E-26
  -2.41000009        -1.63476656E-25
  -2.38000011        -3.21682390E-25
  -2.34999990        -5.02524956E-25
  -2.31999993        -6.96714161E-25
  -2.28999996        -8.90774240E-25
  -2.25999999        -1.06695114E-24
  -2.23000002        -1.20359072E-24
  -2.20000005        -1.27592226E-24
  -2.17000008        -1.25746450E-24
  -2.14000010        -1.12193819E-24
  -2.10999990        -8.45790433E-25
  -2.07999992        -4.11158692E-25
  -2.04999995         1.90823037E-25
  -2.01999998         9.56580228E-25
  -1.99000001         1.86691250E-24
  -1.96000004         2.88433224E-24
  -1.92999995         3.95138337E-24
  -1.89999998         4.99028833E-24
  -1.87000000         5.90440773E-24
  -1.84000003         6.58177103E-24
  -1.80999994         6.90081242E-24
  -1.77999997         6.73851454E-24
  -1.75000000         5.98057698E-24
  -1.72000003         4.53334578E-24
  -1.69000006         2.33677344E-24
  -1.65999997        -6.22477962E-25
  -1.63000000        -4.29895588E-24
  -1.60000002        -8.57847896E-24
  -1.57000005        -1.32717880E-23
  -1.53999996        -1.81130289E-23
  -1.50999999        -2.27640377E-23
  -1.48000002        -2.68253508E-23
  -1.45000005        -2.98542516E-23
  -1.41999996        -3.13896305E-23
  -1.38999999        -3.09829065E-23
  -1.36000001        -2.82338777E-23
  -1.33000004        -2.28290966E-23
  -1.29999995        -1.45807812E-23
  -1.26999998        -3.46317944E-24
  -1.24000001         1.03565770E-23
  -1.21000004         2.64958499E-23
  -1.17999995         4.43449386E-23
  -1.14999998         6.30687099E-23
  -1.12000000         8.16225354E-23
  -1.09000003         9.87835418E-23
  -1.05999994         1.13196087E-22
  -1.02999997         1.23431059E-22
  -1.00000000         1.28056031E-22
 -0.970000029         1.25713997E-22
 -0.939999998         1.15207228E-22
 -0.910000026         9.55833161E-23
 -0.879999995         6.62195151E-23
 -0.850000024         2.69034701E-23
 -0.819999993        -2.20938546E-23
 -0.790000021        -7.99528829E-23
 -0.759999990        -1.45252138E-22
 -0.730000019        -2.15926729E-22
 -0.699999988        -2.89243159E-22
 -0.670000017        -3.61791225E-22
 -0.639999986        -4.29499902E-22
 -0.610000014        -4.87681890E-22
 -0.579999983        -5.31114678E-22
 -0.550000012        -5.54167844E-22
 -0.519999981        -5.50987308E-22
 -0.490000010        -5.15743578E-22
 -0.460000008        -4.42956026E-22
 -0.430000007        -3.27894970E-22
 -0.400000006        -1.67063612E-22
 -0.370000005         4.12542794E-23
 -0.340000004         2.96393924E-22
 -0.310000002         5.94687729E-22
 -0.280000001         9.28870110E-22
 -0.250000000         1.28755539E-21
 -0.219999999         1.65486196E-21
 -0.189999998         2.01025245E-21
 -0.159999996         2.32866388E-21
 -0.129999995         2.58101111E-21
 -0.100000001         2.73511672E-21
  -7.00000003E-02     2.75711799E-21
  -3.99999991E-02     2.61336729E-21
  -9.99999978E-03     2.27281202E-21
   1.99999996E-02     1.70979040E-21
   5.00000007E-02     9.07139453E-22
   7.99999982E-02    -1.40553417E-22
  0.109999999        -1.42374242E-21
  0.140000001        -2.91501780E-21
  0.170000002        -4.56680681E-21
  0.200000003        -6.30993930E-21
  0.230000004        -8.05342721E-21
  0.259999990        -9.68569124E-21
  0.289999992        -1.10775091E-20
  0.319999993        -1.20868051E-20
  0.349999994        -1.25653436E-20
  0.379999995        -1.23672500E-20
  0.409999996        -1.13591826E-20
  0.439999998        -9.43168379E-21
  0.469999999        -6.51131133E-21
  0.500000000        -2.57276334E-21
  0.529999971         2.34977435E-21
  0.560000002         8.15294496E-21
  0.589999974         1.46571913E-20
  0.620000005         2.16033048E-20
  0.649999976         2.86534750E-20
  0.680000007         3.53975367E-20
  0.709999979         4.13649631E-20
  0.740000010         4.60428181E-20
  0.769999981         4.88997157E-20
  0.800000012         4.94149975E-20
  0.829999983         4.71125823E-20
  0.860000014         4.15977433E-20
  0.889999986         3.25955626E-20
  0.920000017         1.99883397E-20
  0.949999988         3.85018729E-21
  0.980000019        -1.55242446E-20
   1.00999999        -3.75993170E-20
   1.03999996        -6.15884886E-20
   1.07000005        -8.64579258E-20
   1.10000002        -1.10944462E-19
   1.13000000        -1.33589953E-19
   1.15999997        -1.52792008E-19
   1.19000006        -1.66871113E-19
   1.22000003        -1.74152241E-19
   1.25000000        -1.73059186E-19
   1.27999997        -1.62218235E-19
   1.30999994        -1.40565955E-19
   1.34000003        -1.07457560E-19
   1.37000000        -6.27684424E-20
   1.39999998        -6.98327199E-21
   1.42999995         5.87337914E-20
   1.46000004         1.32495038E-19
   1.49000001         2.11676230E-19
   1.51999998         2.92941025E-19
   1.54999995         3.72306782E-19
   1.58000004         4.45253384E-19
   1.61000001         5.06877823E-19
   1.63999999         5.52090998E-19
   1.66999996         5.75854346E-19
   1.70000005         5.73449474E-19
   1.73000002         5.40772324E-19
   1.75999999         4.74639234E-19
   1.78999996         3.73092862E-19
   1.82000005         2.35690381E-19
   1.85000002         6.37585711E-20
   1.88000000        -1.39403379E-19
   1.90999997        -3.68390676E-19
   1.94000006        -6.15644991E-19
   1.97000003        -8.71510462E-19
   2.00000000        -1.12439943E-18
   2.02999997        -1.36108237E-18
   2.05999994        -1.56710080E-18
   2.08999991        -1.72730118E-18
   2.11999989        -1.82648179E-18
   2.15000010        -1.85013999E-18
   2.18000007        -1.78528468E-18
   2.21000004        -1.62130864E-18
   2.24000001        -1.35085418E-18
   2.26999998        -9.70665740E-19
   2.29999995        -4.82360241E-19
   2.32999992         1.06924720E-19
   2.35999990         7.84040042E-19
   2.39000010         1.52955777E-18
   2.42000008         2.31775015E-18
   2.45000005         3.11686990E-18
   2.48000002         3.88974445E-18
   2.50999999         4.59471947E-18
   2.53999996         5.18694770E-18
   2.56999993         5.62002886E-18
   2.59999990         5.84796179E-18
   2.63000011         5.82739312E-18
   2.66000009         5.52009014E-18
   2.69000006         4.89557250E-18
   2.72000003         3.93379389E-18
   2.75000000         2.62778158E-18
   2.77999997         9.86092968E-19
   2.80999994        -9.65073482E-19
   2.83999991        -3.18021539E-18
   2.86999989        -5.59356818E-18
   2.90000010        -8.11890262E-18
   2.93000007        -1.06503408E-17
   2.96000004        -1.30642557E-17
   2.99000001        -1.52224046E-17
   3.01999998        -1.69763501E-17
   3.04999995        -1.81732027E-17
   3.07999992        -1.86626091E-17
   3.10999990        -1.83048634E-17
   3.14000010        -1.69799517E-17
   3.17000008        -1.45971835E-17
   3.20000005        -1.11049510E-17
   3.23000002        -6.50024375E-18
   3.25999999        -8.37187430E-19
   3.28999996         5.76604692E-18
   3.31999993         1.31224917E-17
   3.34999990         2.09747212E-17
   3.38000011         2.89967932E-17
   3.41000009         3.68003291E-17
   3.44000006         4.39452373E-17
   3.47000003         4.99552107E-17
   3.50000000         5.43379544E-17
   3.52999997         5.66097861E-17
   3.55999994         5.63239124E-17
   3.58999991         5.31012829E-17
   3.61999989         4.66626579E-17
   3.65000010         3.68601309E-17
   3.68000007         2.37060401E-17
   3.71000004         7.39724626E-18
   3.74000001        -1.16676034E-17
   3.76999998        -3.28799959E-17
   3.79999995        -5.54243634E-17
   3.82999992        -7.82937567E-17
   3.85999990        -1.00318890E-16
   3.89000010        -1.20211048E-16
   3.92000008        -1.36618341E-16
   3.95000005        -1.48193549E-16
   3.98000002        -1.53671139E-16
   4.01000023        -1.51950299E-16
   4.03999996        -1.42179073E-16
   4.07000017        -1.23835423E-16
   4.09999990        -9.67988657E-17
   4.13000011        -6.14081880E-17
   4.15999985        -1.84988306E-17
   4.19000006         3.05837293E-17
   4.21999979         8.39996949E-17
   4.25000000         1.39460481E-16
   4.28000021         1.94306168E-16
   4.30999994         2.45613032E-16
   4.34000015         2.90328034E-16
   4.36999989         3.25424632E-16
   4.40000010         3.48073049E-16
   4.42999983         3.55816148E-16
   4.46000004         3.46740613E-16
   4.48999977         3.19632435E-16
   4.51999998         2.74107194E-16
   4.55000019         2.10703641E-16
   4.57999992         1.30934062E-16
   4.61000013         3.72826978E-17
   4.63999987        -6.68489850E-17
   4.67000008        -1.77251967E-16
   4.69999981        -2.89071937E-16
   4.73000002        -3.97015751E-16
   4.76000023        -4.95595325E-16
   4.78999996        -5.79395206E-16
   4.82000017        -6.43350693E-16
   4.84999990        -6.83020528E-16
   4.88000011        -6.94841297E-16
   4.90999985        -6.76344479E-16
   4.94000006        -6.26329831E-16
   4.96999979        -5.44978934E-16
   5.00000000        -4.33906259E-16
   5.03000021        -2.96142571E-16
   5.05999994        -1.36051041E-16
   5.09000015         4.08181041E-17
   5.11999989         2.27928519E-16
   5.15000010         4.18004618E-16
   5.17999983         6.03312187E-16
   5.21000004         7.75959260E-16
   5.23999977         9.28207291E-16
   5.26999998         1.05277746E-15
   5.30000019         1.14314243E-15
   5.32999992         1.19379754E-15
   5.36000013         1.20049810E-15
   5.38999987         1.16046203E-15
   5.42000008         1.07253059E-15
   5.44999981         9.37284308E-16
   5.48000002         7.57110024E-16
   5.51000023         5.36216854E-16
   5.53999996         2.80595387E-16
   5.57000017        -2.08015679E-18
   5.59999990        -3.02617264E-16
   5.63000011        -6.10532402E-16
   5.65999985        -9.14352585E-16
   5.69000006        -1.20198242E-15
   5.71999979        -1.46113755E-15
   5.75000000        -1.67983415E-15
   5.78000021        -1.84691998E-15
   5.80999994        -1.95263160E-15
   5.84000015        -1.98914634E-15
   5.86999989        -1.95110101E-15
   5.90000010        -1.83604386E-15
   5.92999983        -1.64478329E-15
   5.96000004        -1.38159735E-15
   5.98999977        -1.05426803E-15
   6.01999998        -6.73929906E-16
   6.05000019        -2.54700875E-16
   6.07999992         1.86888780E-16
   6.11000013         6.32669025E-16
   6.13999987         1.06375723E-15
   6.17000008         1.46161104E-15
   6.19999981         1.80913405E-15
   6.23000002         2.09175760E-15
   6.26000023         2.29842687E-15
   6.28999996         2.42240941E-15
   6.32000017         2.46183180E-15
   6.34999990         2.41990050E-15
   6.38000011         2.30474658E-15
   6.40999985         2.12886972E-15
   6.44000006         1.90819011E-15
   6.46999979         1.66076130E-15
   6.50000000         1.40518563E-15
   6.53000021         1.15887321E-15
   6.55999994         9.36248598E-16
   6.59000015         7.47062995E-16
   6.61999989         5.94973783E-16
   6.65000010         4.76538936E-16
   6.67999983         3.80765953E-16
   6.71000004         2.89320064E-16
   6.73999977         1.77467458E-16
   6.76999998         1.57466800E-17
   6.80000019        -2.27665913E-16
   6.82999992        -5.83982948E-16
   6.86000013        -1.08045532E-15
   6.88999987        -1.73679437E-15
   6.92000008        -2.56164596E-15
   6.94999981        -3.54946827E-15
   6.98000002        -4.67797874E-15
   7.01000023        -5.90655344E-15
   7.03999996        -7.17579547E-15
   7.07000017        -8.40841475E-15
   7.09999990        -9.51159385E-15
   7.13000011        -1.03808284E-14
   7.15999985        -1.09051740E-14
   7.19000006        -1.09737709E-14
   7.21999979        -1.04833456E-14
   7.25000000        -9.34635128E-15
   7.28000021        -7.49931885E-15
   7.30999994        -4.91094753E-15
   7.34000015        -1.58931058E-15
   7.36999989         2.41220647E-15
   7.40000010         6.99095255E-15
   7.42999983         1.19934427E-14
   7.46000004         1.72166731E-14
   7.48999977         2.24125917E-14
   7.51999998         2.72959366E-14
   7.55000019         3.15555450E-14
   7.57999992         3.48688465E-14
   7.61000013         3.69191677E-14
   7.63999987         3.74152274E-14
   7.67000008         3.61118369E-14
   7.69999981         3.28309191E-14
   7.73000002         2.74810607E-14
   7.76000023         2.00746775E-14
   7.78999996         1.07409876E-14
   7.82000017        -2.66644887E-16
   7.84999990        -1.25700655E-14
   7.88000011        -2.56735331E-14
   7.90999985        -3.89791145E-14
   7.94000006        -5.18104372E-14
   7.96999979        -6.34439671E-14
   8.00000000        -7.31467160E-14
   8.02999973        -8.02184857E-14
   8.06000042        -8.40361716E-14
   8.09000015        -8.40972189E-14
   8.11999989        -8.00596839E-14
   8.14999962        -7.17752070E-14
   8.18000031        -5.93127774E-14
   8.21000004        -4.29707844E-14
   8.23999977        -2.32758454E-14
   8.27000046        -9.67908572E-16
   8.30000019         2.30281102E-14
   8.32999992         4.76427844E-14
   8.35999966         7.17124859E-14
   8.39000034         9.40366627E-14
   8.42000008         1.13438799E-13
   8.44999981         1.28826949E-13
   8.47999954         1.39251092E-13
   8.51000023         1.43953724E-13
   8.53999996         1.42410945E-13
   8.56999969         1.34363034E-13
   8.60000038         1.19832760E-13
   8.63000011         9.91317082E-14
   8.65999985         7.28551537E-14
   8.68999958         4.18660366E-14
   8.72000027         7.26937736E-15
   8.75000000        -2.96214469E-14
   8.77999973        -6.73259530E-14
   8.81000042        -1.04244528E-13
   8.84000015        -1.38712053E-13
   8.86999989        -1.69058059E-13
   8.89999962        -1.93671278E-13
   8.93000031        -2.11069782E-13
   8.96000004        -2.19973765E-13
   8.98999977        -2.19380043E-13
   9.02000046        -2.08634474E-13
   9.05000019        -1.87498752E-13
   9.07999992        -1.56205506E-13
   9.10999966        -1.15497754E-13
   9.14000034        -6.66460227E-14
   9.17000008        -1.14376197E-14
   9.19999981         4.78640294E-14
   9.22999954         1.08594272E-13
   9.26000023         1.67794001E-13
   9.28999996         2.22346989E-13
   9.31999969         2.69140477E-13
   9.35000038         3.05241807E-13
   9.38000011         3.28079469E-13
   9.40999985         3.35616653E-13
   9.43999958         3.26506210E-13
   9.47000027         3.00212600E-13
   9.50000000         2.57093338E-13
   9.52999973         1.98430207E-13
   9.56000042         1.26407172E-13
   9.59000015         4.40337125E-14
   9.61999989        -4.49831348E-14
   9.64999962        -1.36410902E-13
   9.68000031        -2.25699627E-13
   9.71000004        -3.08212304E-13
   9.73999977        -3.79465638E-13
   9.77000046        -4.35367969E-13
   9.80000019        -4.72440067E-13
   9.82999992        -4.88010728E-13
   9.85999966        -4.80371385E-13
   9.89000034        -4.48889054E-13
   9.92000008        -3.94067591E-13
   9.94999981        -3.17555281E-13
   9.97999954        -2.22099073E-13
   10.0100002        -1.11444599E-13
   10.0400000         9.81300460E-15
   10.0699997         1.36422815E-13
   10.1000004         2.62710237E-13
   10.1300001         3.82835853E-13
   10.1599998         4.91071268E-13
   10.1899996         5.82078385E-13
   10.2200003         6.51177571E-13
   10.2500000         6.94587129E-13
   10.2799997         7.09624037E-13
   10.3100004         6.94846470E-13
   10.3400002         6.50133268E-13
   10.3699999         5.76688816E-13
   10.3999996         4.76976531E-13
   10.4300003         3.54584119E-13
   10.4600000         2.14027607E-13
   10.4899998         6.05150018E-14
   10.5200005        -1.00314986E-13
   10.5500002        -2.62656704E-13
   10.5799999        -4.20785016E-13
   10.6099997        -5.69267127E-13
   10.6400003        -7.03130479E-13
   10.6700001        -8.17974540E-13
   10.6999998        -9.10033550E-13
   10.7299995        -9.76200349E-13
   10.7600002        -1.01401320E-12
   10.7900000        -1.02164002E-12
   10.8199997        -9.97863467E-13
   10.8500004        -9.42085602E-13
   10.8800001        -8.54368930E-13
   10.9099998        -7.35494348E-13
   10.9399996        -5.87052488E-13
   10.9700003        -4.11539807E-13
   11.0000000        -2.12440295E-13
   11.0299997         5.73609653E-15
   11.0600004         2.37467218E-13
   11.0900002         4.76311319E-13
   11.1199999         7.15093349E-13
   11.1499996         9.46153095E-13
   11.1800003         1.16167612E-12
   11.2100000         1.35404513E-12
   11.2399998         1.51619819E-12
   11.2700005         1.64194114E-12
   11.3000002         1.72618701E-12
   11.3299999         1.76509371E-12
   11.3599997         1.75608334E-12
   11.3900003         1.69775609E-12
   11.4200001         1.58972293E-12
   11.4499998         1.43239142E-12
   11.4799995         1.22677378E-12
   11.5100002         9.74341159E-13
   11.5400000         6.77013567E-13
   11.5699997         3.37280930E-13
   11.6000004        -4.15194036E-14
   11.6300001        -4.54786003E-13
   11.6599998        -8.96159991E-13
   11.6899996        -1.35702831E-12
   11.7200003        -1.82610090E-12
   11.7500000        -2.28919249E-12
   11.7799997        -2.72926343E-12
   11.8100004        -3.12682085E-12
   11.8400002        -3.46067359E-12
   11.8699999        -3.70904652E-12
   11.8999996        -3.85096772E-12
   11.9300003        -3.86783791E-12
   11.9600000        -3.74500648E-12
   11.9899998        -3.47322626E-12
   12.0200005        -3.04978612E-12
   12.0500002        -2.47922494E-12
   12.0799999        -1.77349715E-12
   12.1099997        -9.51604789E-13
   12.1400003        -3.86784009E-14
   12.1700001         9.35341106E-13
   12.1999998         1.93732660E-12
   12.2299995         2.93265607E-12
   12.2600002         3.88684224E-12
   12.2900000         4.76690822E-12
   12.3199997         5.54240204E-12
   12.3500004         6.18599182E-12
   12.3800001         6.67369675E-12
   12.4099998         6.98481854E-12
   12.4399996         7.10175885E-12
   12.4700003         7.00987228E-12
   12.5000000         6.69757695E-12
   12.5299997         6.15680510E-12
   12.5600004         5.38391077E-12
   12.5900002         4.38103156E-12
   12.6199999         3.15765968E-12
   12.6499996         1.73237336E-12
   12.6800003         1.34289796E-13
   12.7100000        -1.59594343E-12
   12.7399998        -3.40607642E-12
   12.7700005        -5.23314638E-12
   12.8000002        -7.00562741E-12
   12.8299999        -8.64668233E-12
   12.8599997        -1.00783748E-11
   12.8900003        -1.12265301E-11
   12.9200001        -1.20257597E-11
   12.9499998        -1.24241320E-11
   12.9799995        -1.23869916E-11
   13.0100002        -1.18995543E-11
   13.0400000        -1.09678187E-11
   13.0699997        -9.61791584E-12
   13.1000004        -7.89385397E-12
   13.1300001        -5.85397876E-12
   13.1599998        -3.56673567E-12
   13.1899996        -1.10617364E-12
   13.2200003         1.45208726E-12
   13.2500000         4.03405087E-12
   13.2799997         6.56924905E-12
   13.3100004         8.99130943E-12
   13.3400002         1.12372629E-11
   13.3699999         1.32460874E-11
   13.3999996         1.49569246E-11
   13.4300003         1.63077919E-11
   13.4600000         1.72353486E-11
   13.4899998         1.76763604E-11
   13.5200005         1.75710418E-11
   13.5500002         1.68683678E-11
   13.5799999         1.55328354E-11
   13.6099997         1.35520596E-11
   13.6400003         1.09439801E-11
   13.6700001         7.76272449E-12
   13.6999998         4.10188853E-12
   13.7299995         9.42734524E-14
   13.7600002        -4.09254618E-12
   13.7900000        -8.26471790E-12
   13.8199997        -1.22146009E-11
   13.8500004        -1.57357703E-11
   13.8800001        -1.86394077E-11
   13.9099998        -2.07701981E-11
   13.9399996        -2.20198599E-11
   13.9700003        -2.23366620E-11
   14.0000000        -2.17296250E-11
   14.0299997        -2.02668316E-11
   14.0600004        -1.80677695E-11
   14.0900002        -1.52904980E-11
   14.1199999        -1.21154354E-11
   14.1499996        -8.72731661E-12
   14.1800003        -5.29799512E-12
   14.2100000        -1.97186668E-12
   14.2399998         1.14388414E-12
   14.2700005         3.98334837E-12