  -10.0000000         5.70973224E-32
  -9.97000027         1.71291967E-31
  -9.93999958         2.85486624E-31
  -9.90999985         3.99681245E-31
  -9.88000011         5.13936192E-31
  -9.85000038         5.70082081E-31
  -9.81999969         4.94009165E-31
  -9.78999996         3.34602398E-31
  -9.76000023         1.68869755E-31
  -9.72999954         1.89785708E-32
  -9.69999981        -1.17661530E-31
  -9.67000008        -2.55834685E-31
  -9.64000034        -4.01524091E-31
  -9.60999966        -5.92428276E-31
  -9.57999992        -7.52003092E-31
  -9.55000019        -7.36081961E-31
  -9.52000046        -5.48305672E-31
  -9.48999977        -1.76209965E-31
  -9.46000004         3.04350205E-31
  -9.43000031         7.80884612E-31
  -9.39999962         1.21463427E-30
  -9.36999989         1.56818629E-30
  -9.34000015         1.75602606E-30
  -9.31000042         1.77035016E-30
  -9.27999973         1.66944592E-30
  -9.25000000         1.41062360E-30
  -9.22000027         1.01140474E-30
  -9.18999958         5.43391636E-31
  -9.15999985         4.15940036E-32
  -9.13000011        -4.33802413E-31
  -9.10000038        -8.41213474E-31
  -9.06999969        -1.07270245E-30
  -9.03999996        -1.01166815E-30
  -9.01000023        -6.60234129E-31
  -8.97999954        -1.05485830E-31
  -8.94999981         5.49580002E-31
  -8.92000008         1.22891558E-30
  -8.89000034         1.83640016E-30
  -8.85999966         2.24476577E-30
  -8.82999992         2.40749650E-30
  -8.80000019         2.30177912E-30
  -8.77000046         1.82564730E-30
  -8.73999977         1.04538274E-30
  -8.71000004         7.06417327E-32
  -8.68000031        -9.37843906E-31
  -8.64999962        -1.77050589E-30
  -8.61999989        -2.31698739E-30
  -8.59000015        -2.60692843E-30
  -8.56000042        -2.53832601E-30
  -8.52999973        -1.93256030E-30
  -8.50000000        -8.56583110E-31
  -8.47000027         4.62997931E-31
  -8.43999958         1.75187722E-30
  -8.40999985         2.80469548E-30
  -8.38000011         3.37507976E-30
  -8.35000038         3.20732185E-30
  -8.31999969         2.33202469E-30
  -8.28999996         1.01522012E-30
  -8.26000023        -4.21425539E-31
  -8.22999954        -1.82178077E-30
  -8.19999981        -3.07953264E-30
  -8.17000008        -4.00862570E-30
  -8.14000034        -4.49983864E-30
  -8.10999966        -4.55572258E-30
  -8.07999992        -4.20686257E-30
  -8.05000019        -3.46343593E-30
  -8.02000046        -2.45379631E-30
  -7.98999977        -1.36289664E-30
  -7.96000004        -3.32469534E-31
  -7.92999983         5.20304457E-31
  -7.90000010         1.01032066E-30
  -7.86999989         1.08837282E-30
  -7.84000015         9.68850531E-31
  -7.80999994         8.37781407E-31
  -7.78000021         7.02834796E-31
  -7.75000000         5.26679115E-31
  -7.71999979         3.62101631E-31
  -7.69000006         2.80892627E-31
  -7.65999985         3.39734653E-31
  -7.63000011         5.82423785E-31
  -7.59999990         9.97603499E-31
  -7.57000017         1.57789259E-30
  -7.53999996         2.23487581E-30
  -7.51000023         2.81434563E-30
  -7.48000002         3.12762089E-30
  -7.44999981         3.08127877E-30
  -7.42000008         2.76434762E-30
  -7.38999987         2.18994993E-30
  -7.36000013         1.33907436E-30
  -7.32999992         3.46487492E-31
  -7.30000019        -6.75438678E-31
  -7.26999998        -1.54158157E-30
  -7.23999977        -2.11234699E-30
  -7.21000004        -2.44676272E-30
  -7.17999983        -2.56755764E-30
  -7.15000010        -2.44830195E-30
  -7.11999989        -2.08414020E-30
  -7.09000015        -1.45086002E-30
  -7.05999994        -6.21541510E-31
  -7.03000021         1.96509048E-31
  -7.00000000         7.74247818E-31
  -6.96999979         1.01107608E-30
  -6.94000006         9.75040967E-31
  -6.90999985         7.92132917E-31
  -6.88000011         5.80403721E-31
  -6.84999990         3.46745960E-31
  -6.82000017         2.69264943E-31
  -6.78999996         3.62120321E-31
  -6.76000023         4.98266759E-31
  -6.73000002         7.52316996E-31
  -6.69999981         1.13757789E-30
  -6.67000008         1.57045359E-30
  -6.63999987         1.92868380E-30
  -6.61000013         2.12148594E-30
  -6.57999992         2.04917141E-30
  -6.55000019         1.72214192E-30
  -6.51999998         1.18950098E-30
  -6.48999977         3.63498612E-31
  -6.46000004        -6.73825476E-31
  -6.42999983        -1.87488321E-30
  -6.40000010        -3.21369247E-30
  -6.36999989        -4.47367759E-30
  -6.34000015        -5.50281970E-30
  -6.30999994        -6.19077730E-30
  -6.28000021        -6.48163146E-30
  -6.25000000        -6.36869975E-30
  -6.21999979        -5.74029702E-30
  -6.19000006        -4.66054019E-30
  -6.15999985        -3.16842484E-30
  -6.13000011        -1.27136410E-30
  -6.09999990         9.20716765E-31
  -6.07000017         3.22055773E-30
  -6.03999996         5.29742040E-30
  -6.01000023         7.01463032E-30
  -5.98000002         8.18663467E-30
  -5.94999981         8.54456123E-30
  -5.92000008         7.93899695E-30
  -5.88999987         6.43257517E-30
  -5.86000013         4.27126574E-30
  -5.82999992         1.64360159E-30
  -5.80000019        -1.23713013E-30
  -5.76999998        -3.95973529E-30
  -5.73999977        -6.20011881E-30
  -5.71000004        -7.58115615E-30
  -5.67999983        -7.81276578E-30
  -5.65000010        -7.07485400E-30
  -5.61999989        -5.43386313E-30
  -5.59000015        -3.04389654E-30
  -5.55999994        -3.04695071E-31
  -5.53000021         2.46121847E-30
  -5.50000000         4.80605172E-30
  -5.46999979         6.39844935E-30
  -5.44000006         7.04109530E-30
  -5.40999985         6.62995214E-30
  -5.38000011         5.22765848E-30
  -5.34999990         3.01779004E-30
  -5.32000017         3.37331238E-31
  -5.28999996        -2.36370511E-30
  -5.26000023        -4.60623273E-30
  -5.23000002        -6.11652217E-30
  -5.19999981        -6.74849464E-30
  -5.17000008        -6.42387990E-30
  -5.13999987        -5.31215564E-30
  -5.11000013        -3.61280233E-30
  -5.07999992        -1.63139357E-30
  -5.05000019         1.66928955E-31
  -5.01999998         1.51200434E-30
  -4.98999977         2.18920946E-30
  -4.96000004         2.14455798E-30
  -4.92999983         1.49488200E-30
  -4.90000010         3.34189188E-31
  -4.86999989        -1.13871059E-30
  -4.84000015        -2.60703187E-30
  -4.80999994        -3.80878338E-30
  -4.78000021        -4.61606099E-30
  -4.75000000        -4.89268773E-30
  -4.71999979        -4.53325842E-30
  -4.69000006        -3.57520005E-30
  -4.65999985        -2.15203487E-30
  -4.63000011        -3.94438916E-31
  -4.59999990         1.43538383E-30
  -4.57000017         2.87361274E-30
  -4.53999996         3.66730953E-30
  -4.51000023         3.73175145E-30
  -4.48000002         3.02504443E-30
  -4.44999981         1.65447144E-30
  -4.42000008        -1.73414839E-31
  -4.38999987        -2.08183040E-30
  -4.36000013        -3.67064756E-30
  -4.32999992        -4.56399694E-30
  -4.30000019        -4.27140341E-30
  -4.26999998        -2.40544193E-30
  -4.23999977         1.23548321E-30
  -4.21000004         6.62790509E-30
  -4.17999983         1.35569654E-29
  -4.15000010         2.15855520E-29
  -4.11999989         3.01739206E-29
  -4.09000015         3.86335769E-29
  -4.05999994         4.60218474E-29
  -4.03000021         5.12410453E-29
  -4.00000000         5.31821901E-29
  -3.97000003         5.08873062E-29
  -3.94000006         4.34461328E-29
  -3.91000009         3.02347589E-29
  -3.88000011         1.09366129E-29
  -3.84999990        -1.45135703E-29
  -3.81999993        -4.56364628E-29
  -3.78999996        -8.15181687E-29
  -3.75999999        -1.21026389E-28
  -3.73000002        -1.62406558E-28
  -3.70000005        -2.03403841E-28
  -3.67000008        -2.41265048E-28
  -3.64000010        -2.72777932E-28
  -3.60999990        -2.94387733E-28
  -3.57999992        -3.02019158E-28
  -3.54999995        -2.91363445E-28
  -3.51999998        -2.57931203E-28
  -3.49000001        -1.97386682E-28
  -3.46000004        -1.05946730E-28
  -3.43000007         1.93104976E-29
  -3.40000010         1.80069719E-28
  -3.36999989         3.76213009E-28
  -3.33999991         6.05100514E-28
  -3.30999994         8.61222330E-28
  -3.27999997         1.13561024E-27
  -3.25000000         1.41554146E-27
  -3.22000003         1.68407879E-27
  -3.19000006         1.91998364E-27
  -3.16000009         2.09807958E-27
  -3.13000011         2.18927852E-27
  -3.09999990         2.16158095E-27
  -3.06999993         1.98127212E-27
  -3.03999996         1.61435868E-27
  -3.00999999         1.02866056E-27
  -2.98000002         1.96494182E-28
  -2.95000005        -9.02417875E-28
  -2.92000008        -2.27745145E-27
  -2.89000010        -3.92306653E-27
  -2.85999990        -5.81433936E-27
  -2.82999992        -7.90302733E-27
  -2.79999995        -1.01131698E-26
  -2.76999998        -1.23368624E-26
  -2.74000001        -1.44311949E-26
  -2.71000004        -1.62158849E-26
  -2.68000007        -1.74732151E-26
  -2.65000010        -1.79502495E-26
  -2.61999989        -1.73641150E-26
  -2.58999991        -1.54111527E-26
  -2.55999994        -1.17812994E-26
  -2.52999997        -6.17784862E-27
  -2.50000000         1.65608694E-27
  -2.47000003         1.19041229E-26
  -2.44000006         2.46370382E-26
  -2.41000009         3.97674920E-26
  -2.38000011         5.70001801E-26
  -2.34999990         7.57808690E-26
  -2.31999993         9.52481750E-26
  -2.28999996         1.14193446E-25
  -2.25999999         1.31036120E-25
  -2.23000002         1.43821385E-25
  -2.20000005         1.50249776E-25
  -2.17000008         1.47746449E-25
  -2.14000010         1.33578384E-25
  -2.10999990         1.05026315E-25
  -2.07999992         5.96135777E-26
  -2.04999995        -4.60948991E-27
  -2.01999998        -8.87322456E-26
  -1.99000001        -1.92615958E-25
  -1.96000004        -3.14513567E-25
  -1.92999995        -4.50706261E-25
  -1.89999998        -5.95195208E-25
  -1.87000000        -7.39491229E-25
  -1.84000003        -8.72550961E-25
  -1.80999994        -9.80907712E-25
  -1.77999997        -1.04904222E-24
  -1.75000000        -1.06002790E-24
  -1.72000003        -9.96474107E-25
  -1.69000006        -8.41769412E-25
  -1.65999997        -5.81599092E-25
  -1.63000000        -2.05687469E-25
  -1.60000002         2.90322038E-25
  -1.57000005         9.02964705E-25
  -1.53999996         1.61917665E-24
  -1.50999999         2.41481288E-24
  -1.48000002         3.25364635E-24
  -1.45000005         4.08703944E-24
  -1.41999996         4.85446266E-24
  -1.38999999         5.48501574E-24
  -1.36000001         5.90005164E-24
  -1.33000004         6.01695885E-24
  -1.29999995         5.75405518E-24
  -1.26999998         5.03648758E-24
  -1.24000001         3.80291541E-24
  -1.21000004         2.01267664E-24
  -1.17999995        -3.46962030E-25
  -1.14999998        -3.25394494E-24
  -1.12000000        -6.64547234E-24
  -1.09000003        -1.04135059E-23
  -1.05999994        -1.44022856E-23
  -1.02999997        -1.84083469E-23
  -1.00000000        -2.21834834E-23
 -0.970000029        -2.54409693E-23
 -0.939999998        -2.78652241E-23
 -0.910000026        -2.91249182E-23
 -0.879999995        -2.88893832E-23
 -0.850000024        -2.68479217E-23
 -0.819999993        -2.27315240E-23
 -0.790000021        -1.63361655E-23
 -0.759999990        -7.54687214E-24
 -0.730000019         3.63856294E-24
 -0.699999988         1.70874009E-23
 -0.670000017         3.25125867E-23
 -0.639999986         4.94575934E-23
 -0.610000014         6.72868943E-23
 -0.579999983         8.51835040E-23
 -0.550000012         1.02155083E-22
 -0.519999981         1.17050020E-22
 -0.490000010         1.28584744E-22
 -0.460000008         1.35383412E-22
 -0.430000007         1.36031010E-22
 -0.400000006         1.29140102E-22
 -0.370000005         1.13431357E-22
 -0.340000004         8.78269201E-23
 -0.310000002         5.15549726E-23
 -0.280000001         4.26245095E-24
 -0.250000000        -5.38681432E-23
 -0.219999999        -1.22003789E-22
 -0.189999998        -1.98555116E-22
 -0.159999996        -2.81088634E-22
 -0.129999995        -3.66267285E-22
 -0.100000001        -4.49830602E-22
  -7.00000003E-02    -5.26626375E-22
  -3.99999991E-02    -5.90704852E-22
  -9.99999978E-03    -6.35486201E-22
   1.99999996E-02    -6.54008201E-22
   5.00000007E-02    -6.39258496E-22
   7.99999982E-02    -5.84590309E-22
  0.109999999        -4.84213931E-22
  0.140000001        -3.33749631E-22
  0.170000002        -1.30819694E-22
  0.200000003         1.24351641E-22
  0.230000004         4.28367526E-22
  0.259999990         7.74162748E-22
  0.289999992         1.15063196E-21
  0.319999993         1.54243305E-21
  0.349999994         1.93001614E-21
  0.379999995         2.28992250E-21
  0.409999996         2.59539206E-21
  0.439999998         2.81729740E-21
  0.469999999         2.92541632E-21
  0.500000000         2.89002022E-21
  0.529999971         2.68374691E-21
  0.560000002         2.28368876E-21
  0.589999974         1.67361125E-21
  0.620000005         8.46193195E-22
  0.649999976        -1.94848656E-22
  0.680000007        -1.43288776E-21
  0.709999979        -2.83692941E-21
  0.740000010        -4.36071686E-21
  0.769999981        -5.94255115E-21
  0.800000012        -7.50595158E-21
  0.829999983        -8.96126359E-21
  0.860000014        -1.02082771E-20
  0.889999986        -1.11398715E-20
  0.920000017        -1.16466723E-20
  0.949999988        -1.16226106E-20
  0.980000019        -1.09712446E-20
   1.00999999        -9.61262632E-21
   1.03999996        -7.49043306E-21
   1.07000005        -4.57904205E-21
   1.10000002        -8.90141053E-22
   1.13000000         3.52150780E-21
   1.15999997         8.55362268E-21
   1.19000006         1.40536871E-20
   1.22000003         1.98183896E-20
   1.25000000         2.55956032E-20
   1.27999997         3.10891730E-20
   1.30999994         3.59667436E-20
   1.34000003         3.98706710E-20
   1.37000000         4.24320067E-20
   1.39999998         4.32872500E-20
   1.42999995         4.20975543E-20
   1.46000004         3.85697356E-20
   1.49000001         3.24784066E-20
   1.51999998         2.36882749E-20
   1.54999995         1.21756026E-20
   1.58000004        -1.95234819E-21
   1.61000001        -1.84411064E-20
   1.63999999        -3.68772207E-20
   1.66999996        -5.66822219E-20
   1.70000005        -7.71134409E-20
   1.73000002        -9.72726660E-20
   1.75999999        -1.16123595E-19
   1.78999996        -1.32518509E-19
   1.82000005        -1.45234718E-19
   1.85000002        -1.53020400E-19
   1.88000000        -1.54649713E-19
   1.90999997        -1.48985956E-19
   1.94000006        -1.35051465E-19
   1.97000003        -1.12102179E-19
   2.00000000        -7.97042804E-20
   2.02999997        -3.78096342E-20
   2.05999994         1.31738489E-20
   2.08999991         7.23210601E-20
   2.11999989         1.38142898E-19
   2.15000010         2.08558715E-19
   2.18000007         2.80893217E-19
   2.21000004         3.51903002E-19
   2.24000001         4.17837052E-19
   2.26999998         4.74534906E-19
   2.29999995         5.17564583E-19
   2.32999992         5.42400784E-19
   2.35999990         5.44642030E-19
   2.39000010         5.20261709E-19
   2.42000008         4.65885905E-19
   2.45000005         3.79088215E-19
   2.48000002         2.58687993E-19
   2.50999999         1.05034664E-19
   2.53999996        -7.97391060E-20
   2.56999993        -2.91516672E-19
   2.59999990        -5.24070100E-19
   2.63000011        -7.69027127E-19
   2.66000009        -1.01595129E-18
   2.69000006        -1.25255090E-18
   2.72000003        -1.46502682E-18
   2.75000000        -1.63856404E-18
   2.77999997        -1.75796187E-18
   2.80999994        -1.80839177E-18
   2.83999991        -1.77625621E-18
   2.86999989        -1.65012172E-18
   2.90000010        -1.42167656E-18
   2.93000007        -1.08666893E-18
   2.96000004        -6.45763929E-19
   2.99000001        -1.05259411E-19
   3.01999998         5.22402090E-19
   3.04999995         1.21838410E-18
   3.07999992         1.95752271E-18
   3.10999990         2.70875119E-18
   3.14000010         3.43590602E-18
   3.17000008         4.09892726E-18
   3.20000005         4.65543287E-18
   3.23000002         5.06262990E-18
   3.25999999         5.27950632E-18
   3.28999996         5.26920502E-18
   3.31999993         5.00148595E-18
   3.34999990         4.45513646E-18
   3.38000011         3.62020558E-18
   3.41000009         2.49990918E-18
   3.44000006         1.11206968E-18
   3.47000003        -5.10038118E-19
   3.50000000        -2.31754625E-18
   3.52999997        -4.24664352E-18
   3.55999994        -6.22005451E-18
   3.58999991        -8.14936023E-18
   3.61999989        -9.93811846E-18
   3.65000010        -1.14857031E-17
   3.68000007        -1.26917159E-17
   3.71000004        -1.34608226E-17
   3.74000001        -1.37077848E-17
   3.76999998        -1.33624675E-17
   3.79999995        -1.23745781E-17
   3.82999992        -1.07178685E-17
   3.85999990        -8.39359772E-18
   3.89000010        -5.43300705E-18
   3.92000008        -1.89864875E-18
   3.95000005         2.11557211E-18
   3.98000002         6.48570977E-18
   4.01000023         1.10604785E-17
   4.03999996         1.56652970E-17
   4.07000017         2.01075828E-17
   4.09999990         2.41831364E-17
   4.13000011         2.76834554E-17
   4.15999985         3.04036984E-17
   4.19000006         3.21510943E-17
   4.21999979         3.27534968E-17
   4.25000000         3.20677873E-17
   4.28000021         2.99879343E-17
   4.30999994         2.64522930E-17
   4.34000015         2.14500489E-17
   4.36999989         1.50264108E-17
   4.40000010         7.28640323E-18
   4.42999983        -1.60300768E-18
   4.46000004        -1.14126746E-17
   4.48999977        -2.18531324E-17
   4.51999998        -3.25787367E-17
   4.55000019        -4.31942599E-17
   4.57999992        -5.32640886E-17
   4.61000013        -6.23240424E-17
   4.63999987        -6.98958353E-17
   4.67000008        -7.55040868E-17
   4.69999981        -7.86954753E-17
   4.73000002        -7.90598318E-17
   4.76000023        -7.62523279E-17
   4.78999996        -7.00162331E-17
   4.82000017        -6.02049909E-17
   4.84999990        -4.68027691E-17
   4.88000011        -2.99419926E-17
   4.90999985        -9.91675569E-18
   4.94000006         1.28093021E-17
   4.96999979         3.76019101E-17
   5.00000000         6.36627449E-17
   5.03000021         9.00445058E-17
   5.05999994         1.15674922E-16
   5.09000015         1.39389489E-16
   5.11999989         1.59972614E-16
   5.15000010         1.76205869E-16
   5.17999983         1.86921907E-16
   5.21000004         1.91062085E-16
   5.23999977         1.87735178E-16
   5.26999998         1.76274703E-16
   5.30000019         1.56291859E-16
   5.32999992         1.27721120E-16
   5.36000013         9.08560693E-17
   5.38999987         4.63724995E-17
   5.42000008        -4.66287295E-18
   5.44999981        -6.07997735E-17
   5.48000002        -1.20228902E-16
   5.51000023        -1.80823720E-16
   5.53999996        -2.40199221E-16
   5.57000017        -2.95786552E-16
   5.59999990        -3.44921795E-16
   5.63000011        -3.84946378E-16
   5.65999985        -4.13316265E-16
   5.69000006        -4.27716460E-16
   5.71999979        -4.26176686E-16
   5.75000000        -4.07184011E-16
   5.78000021        -3.69788009E-16
   5.80999994        -3.13693332E-16
   5.84000015        -2.39335353E-16
   5.86999989        -1.47933894E-16
   5.90000010        -4.15210257E-17
   5.92999983         7.70610128E-17
   5.96000004         2.04194550E-16
   5.98999977         3.35555967E-16
   6.01999998         4.66220593E-16
   6.05000019         5.90802569E-16
   6.07999992         7.03627358E-16
   6.11000013         7.98933334E-16
   6.13999987         8.71097100E-16
   6.17000008         9.14875839E-16
   6.19999981         9.25658145E-16
   6.23000002         8.99715538E-16
   6.26000023         8.34442438E-16
   6.28999996         7.28577242E-16
   6.32000017         5.82390632E-16
   6.34999990         3.97833799E-16
   6.38000011         1.78634087E-16
   6.40999985        -6.96684798E-17
   6.44000006        -3.39753677E-16
   6.46999979        -6.22628561E-16
   6.50000000        -9.07813914E-16
   6.53000021        -1.18361303E-15
   6.55999994        -1.43746277E-15
   6.59000015        -1.65636298E-15
   6.61999989        -1.82737829E-15
   6.65000010        -1.93820006E-15
   6.67999983        -1.97775332E-15
   6.71000004        -1.93682893E-15
   6.73999977        -1.80871117E-15
   6.76999998        -1.58977676E-15
   6.80000019        -1.28002603E-15
   6.82999992        -8.83512433E-16
   6.86000013        -4.08634237E-16
   6.88999987         1.31747200E-16
   6.92000008         7.20391993E-16
   6.94999981         1.33599320E-15
   6.98000002         1.95372596E-15
   7.01000023         2.54603704E-15
   7.03999996         3.08365966E-15
   7.07000017         3.53682673E-15
   7.09999990         3.87664068E-15
   7.13000011         4.07653961E-15
   7.15999985         4.11379677E-15
   7.19000006         3.97097770E-15
   7.21999979         3.63727171E-15
   7.25000000         3.10962333E-15
   7.28000021         2.39358911E-15
   7.30999994         1.50385289E-15
   7.34000015         4.64354103E-16
   7.36999989        -6.92009930E-16
   7.40000010        -1.92412131E-15
   7.42999983        -3.18381410E-15
   7.46000004        -4.41746020E-15
   7.48999977        -5.56791983E-15
   7.51999998        -6.57680468E-15
   7.55000019        -7.38696502E-15
   7.57999992        -7.94511907E-15
   7.61000013        -8.20452037E-15
   7.63999987        -8.12754456E-15
   7.67000008        -7.68809709E-15
   7.69999981        -6.87370794E-15
   7.73000002        -5.68720537E-15
   7.76000023        -4.14786402E-15
   7.78999996        -2.29192674E-15
   7.82000017        -1.72429015E-16
   7.84999990         2.14173742E-15
   7.88000011         4.56753115E-15
   7.90999985         7.01023864E-15
   7.94000006         9.36666397E-15
   7.96999979         1.15289451E-14
   8.00000000         1.33888711E-14
   8.02999973         1.48425245E-14
   8.06000042         1.57950723E-14
   8.09000015         1.61654815E-14
   8.11999989         1.58909429E-14
   8.14999962         1.49307971E-14
   8.18000031         1.32697503E-14
   8.21000004         1.09202232E-14
   8.23999977         7.92368744E-15
   8.27000046         4.35090840E-15
   8.30000019         3.01046494E-16
   8.32999992        -4.10039248E-15
   8.35999966        -8.70471365E-15
   8.39000034        -1.33442248E-14
   8.42000008        -1.78373653E-14
   8.44999981        -2.19946504E-14
   8.47999954        -2.56252810E-14
   8.51000023        -2.85442548E-14
   8.53999996        -3.05798105E-14
   8.56999969        -3.15809594E-14
   8.60000038        -3.14249325E-14
   8.63000011        -3.00241772E-14
   8.65999985        -2.73326978E-14
   8.68999958        -2.33513296E-14
   8.72000027        -1.81316652E-14
   8.75000000        -1.17782405E-14
   8.77999973        -4.44870047E-15
   8.81000042         3.64830855E-15
   8.84000015         1.22576772E-14
   8.86999989         2.10848235E-14
   8.89999962         2.98050193E-14
   8.93000031         3.80747544E-14
   8.96000004         4.55447176E-14
   8.98999977         5.18737885E-14
   9.02000046         5.67433572E-14
   9.05000019         5.98712296E-14
   9.07999992         6.10244277E-14
   9.10999966         6.00301127E-14
   9.14000034         5.67842655E-14
   9.17000008         5.12575788E-14
   9.19999981         4.34985943E-14
   9.22999954         3.36339910E-14
   9.26000023         2.18663859E-14
   9.28999996         8.46997033E-15
   9.31999969        -6.21555318E-15
   9.35000038        -2.17922587E-14
   9.38000011        -3.78121437E-14
   9.40999985        -5.37859077E-14
   9.43999958        -6.91922783E-14
   9.47000027        -8.34880870E-14
   9.50000000        -9.61193473E-14
   9.52999973        -1.06533807E-13
   9.56000042        -1.14195369E-13
   9.59000015        -1.18600808E-13
   9.61999989        -1.19298831E-13
   9.64999962        -1.15911404E-13
   9.68000031        -1.08156871E-13
   9.71000004        -9.58738026E-14
   9.73999977        -7.90443489E-14
   9.77000046        -5.78154468E-14
   9.80000019        -3.25160194E-14
   9.82999992        -3.66833579E-15
   9.85999966         2.80083048E-14
   9.89000034         6.16029580E-14
   9.92000008         9.60285250E-14
   9.94999981         1.30047720E-13
   9.97999954         1.62309402E-13
   10.0100002         1.91394237E-13
   10.0400000         2.15868529E-13
   10.0699997         2.34343740E-13
   10.1000004         2.45539998E-13
   10.1300001         2.48350277E-13
   10.1599998         2.41903096E-13
   10.1899996         2.25620670E-13
   10.2200003         1.99269908E-13
   10.2500000         1.63003874E-13
   10.2799997         1.17391191E-13
   10.3100004         6.34314311E-14
   10.3400002         2.55436571E-15
   10.3699999        -6.33985526E-14
   10.3999996        -1.32211624E-13
   10.4300003        -2.01352186E-13
   10.4600000        -2.68047845E-13
   10.4899998        -3.29382761E-13
   10.5200005        -3.82411090E-13
   10.5500002        -4.24284550E-13
   10.5799999        -4.52389238E-13
   10.6099997        -4.64485926E-13
   10.6400003        -4.58846882E-13
   10.6700001        -4.34380884E-13
   10.6999998        -3.90738467E-13
   10.7299995        -3.28389198E-13
   10.7600002        -2.48663476E-13
   10.7900000        -1.53753732E-13
   10.8199997        -4.66713562E-14
   10.8500004         6.88414034E-14
   10.8800001         1.88442212E-13
   10.9099998         3.07357384E-13
   10.9399996         4.20580292E-13
   10.9700003         5.23090143E-13
   11.0000000         6.10079695E-13
   11.0299997         6.77179721E-13
   11.0600004         7.20669184E-13
   11.0900002         7.37660584E-13
   11.1199999         7.26251253E-13
   11.1499996         6.85635197E-13
   11.1800003         6.16169496E-13
   11.2100000         5.19395508E-13
   11.2399998         3.98013599E-13
   11.2700005         2.55812976E-13
   11.3000002         9.75602655E-14
   11.3299999        -7.11500832E-14
   11.3599997        -2.44080174E-13
   11.3900003        -4.14562536E-13
   11.4200001        -5.75739651E-13
   11.4499998        -7.20822761E-13
   11.4799995        -8.43364224E-13
   11.5100002        -9.37534880E-13
   11.5400000        -9.98395594E-13
   11.5699997        -1.02215274E-12
   11.6000004        -1.00638345E-12
   11.6300001        -9.50216251E-13
   11.6599998        -8.54453227E-13
   11.6899996        -7.21622360E-13
   11.7200003        -5.55948191E-13
   11.7500000        -3.63236920E-13
   11.7799997        -1.50675086E-13
   11.8100004         7.34526982E-14
   11.8400002         3.00114317E-13
   11.8699999         5.19932675E-13
   11.8999996         7.23617780E-13
   11.9300003         9.02403640E-13
   11.9600000         1.04846513E-12
   11.9899998         1.15529016E-12
   12.0200005         1.21798665E-12
   12.0500002         1.23350928E-12
   12.0799999         1.20079532E-12
   12.1099997         1.12080592E-12
   12.1400003         9.96476447E-13
   12.1700001         8.32581779E-13
   12.1999998         6.35527872E-13
   12.2299995         4.13083088E-13
   12.2600002         1.74061124E-13
   12.2900000        -7.20309839E-14
   12.3199997        -3.15368283E-13
   12.3500004        -5.46197202E-13
   12.3800001        -7.55228020E-13
   12.4099998        -9.34021849E-13
   12.4399996        -1.07536029E-12
   12.4700003        -1.17358326E-12
   12.5000000        -1.22487957E-12
   12.5299997        -1.22751093E-12
   12.5600004        -1.18195048E-12
   12.5900002        -1.09091534E-12
   12.6199999        -9.59279422E-13
   12.6499996        -7.93857655E-13
   12.6800003        -6.03060353E-13
   12.7100000        -3.96432372E-13
   12.7399998        -1.84100104E-13
   12.7700005         2.38385497E-14
   12.8000002         2.17935858E-13
   12.8299999         3.89977764E-13
   12.8599997         5.33478968E-13
   12.8900003         6.44045798E-13
   12.9200001         7.19572676E-13
   12.9499998         7.60255140E-13
   12.9799995         7.68420483E-13
   13.0100002         7.48195776E-13
   13.0400000         7.05050818E-13
   13.0699997         6.45266121E-13
   13.1000004         5.75381810E-13
   13.1300001         5.01684902E-13
   13.1599998         4.29782051E-13
   13.1899996         3.64291632E-13
   13.2200003         3.08667886E-13
   13.2500000         2.65153649E-13
   13.2799997         2.34835616E-13
   13.3100004         2.17765828E-13
   13.3400002         2.13100791E-13
   13.3699999         2.19221058E-13
   13.3999996         2.33795757E-13
   13.4300003         2.53779555E-13
   13.4600000         2.75349486E-13
   13.4899998         2.93815211E-13
   13.5200005         3.03550994E-13
   13.5500002         2.98012700E-13
   13.5799999         2.69901018E-13
   13.6099997         2.11521921E-13
   13.6400003         1.15370549E-13
   13.6700001        -2.50696172E-14
   13.6999998        -2.14360973E-13
   13.7299995        -4.54064385E-13
   13.7600002        -7.41733118E-13
   13.7900000        -1.07008619E-12
   13.8199997        -1.42650789E-12
   13.8500004        -1.79300205E-12
   13.8800001        -2.14669103E-12
   13.9099998        -2.46089607E-12
   13.9399996        -2.70677578E-12
   13.9700003        -2.85541664E-12
   14.0000000        -2.88022644E-12
   14.0299997        -2.75940425E-12
   14.0600004        -2.47825740E-12
   14.0900002        -2.03111659E-12
   14.1199999        -1.42263881E-12
   14.1499996        -6.68333282E-13
   14.1800003         2.05773360E-13
   14.2100000         1.16432471E-12
   14.2399998         2.16459077E-12
   14.2700005         3.15900908E-12