  -10.0000000        -2.75943185E-32
  -9.97000027        -8.27829554E-32
  -9.93999958        -1.37971592E-31
  -9.90999985        -1.93160217E-31
  -9.88000011        -2.48082135E-31
  -9.85000038        -2.59171866E-31
  -9.81999969        -1.77618666E-31
  -9.78999996        -2.63646955E-32
  -9.76000023         1.39624913E-31
  -9.72999954         2.97427812E-31
  -9.69999981         4.61127861E-31
  -9.67000008         6.42352603E-31
  -9.64000034         8.26845736E-31
  -9.60999966         9.04070166E-31
  -9.57999992         8.21495073E-31
  -9.55000019         6.40211040E-31
  -9.52000046         4.07512670E-31
  -9.48999977         1.46858859E-31
  -9.46000004        -1.07176450E-31
  -9.43000031        -3.04026332E-31
  -9.39999962        -4.53983630E-31
  -9.36999989        -5.57340193E-31
  -9.34000015        -6.11785047E-31
  -9.31000042        -5.91752649E-31
  -9.27999973        -4.92485677E-31
  -9.25000000        -3.66574881E-31
  -9.22000027        -2.39808770E-31
  -9.18999958        -1.15513256E-31
  -9.15999985         2.09235085E-32
  -9.13000011         1.19676845E-31
  -9.10000038         2.06168732E-31
  -9.06999969         3.32721372E-31
  -9.03999996         4.53345853E-31
  -9.01000023         5.44880893E-31
  -8.97999954         6.70735948E-31
  -8.94999981         8.68629294E-31
  -8.92000008         1.09373007E-30
  -8.89000034         1.28765889E-30
  -8.85999966         1.37208572E-30
  -8.82999992         1.26367580E-30
  -8.80000019         9.72799628E-31
  -8.77000046         5.90012353E-31
  -8.73999977         1.32244678E-31
  -8.71000004        -3.85140615E-31
  -8.68000031        -8.21419936E-31
  -8.64999962        -1.14574691E-30
  -8.61999989        -1.35978347E-30
  -8.59000015        -1.40423483E-30
  -8.56000042        -1.28592847E-30
  -8.52999973        -9.62063227E-31
  -8.50000000        -4.55548918E-31
  -8.47000027         1.29772437E-31
  -8.43999958         6.82793840E-31
  -8.40999985         1.03480235E-30
  -8.38000011         9.86401414E-31
  -8.35000038         5.62400273E-31
  -8.31999969        -1.43654602E-31
  -8.28999996        -9.88014663E-31
  -8.26000023        -1.84469144E-30
  -8.22999954        -2.57729770E-30
  -8.19999981        -3.08598018E-30
  -8.17000008        -3.35930782E-30
  -8.14000034        -3.17073708E-30
  -8.10999966        -2.46323355E-30
  -8.07999992        -1.31873116E-30
  -8.05000019         1.78428393E-31
  -8.02000046         1.79617117E-30
  -7.98999977         3.25449472E-30
  -7.96000004         4.30505942E-30
  -7.92999983         4.76394834E-30
  -7.90000010         4.53462199E-30
  -7.86999989         3.68148505E-30
  -7.84000015         2.36130164E-30
  -7.80999994         7.13611446E-31
  -7.78000021        -9.44312698E-31
  -7.75000000        -2.18716880E-30
  -7.71999979        -2.83134441E-30
  -7.69000006        -2.80937207E-30
  -7.65999985        -2.04492684E-30
  -7.63000011        -6.83286184E-31
  -7.59999990         8.90017931E-31
  -7.57000017         2.32494708E-30
  -7.53999996         3.38224030E-30
  -7.51000023         3.92172375E-30
  -7.48000002         3.85353530E-30
  -7.44999981         3.10441532E-30
  -7.42000008         1.85189186E-30
  -7.38999987         4.32985445E-31
  -7.36000013        -9.27310724E-31
  -7.32999992        -2.06131436E-30
  -7.30000019        -2.88402818E-30
  -7.26999998        -3.25654780E-30
  -7.23999977        -3.14659676E-30
  -7.21000004        -2.68674826E-30
  -7.17999983        -1.98481036E-30
  -7.15000010        -1.18731239E-30
  -7.11999989        -4.91010244E-31
  -7.09000015        -7.35410660E-32
  -7.05999994        -1.13585911E-32
  -7.03000021        -2.63278150E-31
  -7.00000000        -6.96039216E-31
  -6.96999979        -1.21631203E-30
  -6.94000006        -1.60376023E-30
  -6.90999985        -1.66527940E-30
  -6.88000011        -1.32655374E-30
  -6.84999990        -6.63183350E-31
  -6.82000017         1.33196652E-31
  -6.78999996         9.60307226E-31
  -6.76000023         1.66306138E-30
  -6.73000002         2.00502642E-30
  -6.69999981         1.86439366E-30
  -6.67000008         1.20000407E-30
  -6.63999987         2.22842390E-31
  -6.61000013        -8.06930981E-31
  -6.57999992        -1.69386460E-30
  -6.55000019        -2.18808080E-30
  -6.51999998        -2.29333418E-30
  -6.48999977        -1.99609304E-30
  -6.46000004        -1.28960805E-30
  -6.42999983        -3.60456174E-31
  -6.40000010         6.11014864E-31
  -6.36999989         1.35221507E-30
  -6.34000015         1.67985685E-30
  -6.30999994         1.60864860E-30
  -6.28000021         1.14084256E-30
  -6.25000000         5.50614296E-31
  -6.21999979        -5.03988538E-33
  -6.19000006        -3.76194938E-31
  -6.15999985        -4.13506610E-31
  -6.13000011        -2.44010716E-31
  -6.09999990         8.44133543E-32
  -6.07000017         5.04830813E-31
  -6.03999996         9.07913092E-31
  -6.01000023         1.18310149E-30
  -5.98000002         1.22737494E-30
  -5.94999981         1.05350898E-30
  -5.92000008         6.57628105E-31
  -5.88999987         5.47573422E-32
  -5.86000013        -6.71360653E-31
  -5.82999992        -1.41385715E-30
  -5.80000019        -1.95114063E-30
  -5.76999998        -2.20941969E-30
  -5.73999977        -2.22370523E-30
  -5.71000004        -1.90888434E-30
  -5.67999983        -1.34460426E-30
  -5.65000010        -7.65778851E-31
  -5.61999989        -2.63858209E-31
  -5.59000015         1.12858778E-31
  -5.55999994         3.06714712E-31
  -5.53000021         3.50632615E-31
  -5.50000000         2.83079564E-31
  -5.46999979         1.53911684E-31
  -5.44000006         8.18153472E-32
  -5.40999985         1.04752639E-31
  -5.38000011         1.35040344E-31
  -5.34999990         4.55249008E-32
  -5.32000017        -7.66184632E-32
  -5.28999996        -1.15905906E-31
  -5.26000023        -1.18784292E-31
  -5.23000002        -1.00575132E-31
  -5.19999981        -2.61782768E-32
  -5.17000008         1.30424319E-31
  -5.13999987         3.66759033E-31
  -5.11000013         5.60950042E-31
  -5.07999992         6.93009309E-31
  -5.05000019         8.40932390E-31
  -5.01999998         9.99692306E-31
  -4.98999977         1.09062187E-30
  -4.96000004         9.61784024E-31
  -4.92999983         5.64130177E-31
  -4.90000010        -6.26148460E-32
  -4.86999989        -9.17728376E-31
  -4.84000015        -1.87572975E-30
  -4.80999994        -2.63421137E-30
  -4.78000021        -3.01293647E-30
  -4.75000000        -2.99514606E-30
  -4.71999979        -2.57886891E-30
  -4.69000006        -1.77368293E-30
  -4.65999985        -7.00870498E-31
  -4.63000011         4.39010418E-31
  -4.59999990         1.40156514E-30
  -4.57000017         2.07881436E-30
  -4.53999996         2.31631482E-30
  -4.51000023         1.97445717E-30
  -4.48000002         1.26785783E-30
  -4.44999981         4.27548313E-31
  -4.42000008        -3.84280412E-31
  -4.38999987        -1.03374280E-30
  -4.36000013        -1.34540689E-30
  -4.32999992        -1.13159848E-30
  -4.30000019        -4.75786558E-31
  -4.26999998         3.86337174E-31
  -4.23999977         1.19404506E-30
  -4.21000004         1.70836475E-30
  -4.17999983         1.70016130E-30
  -4.15000010         9.55066120E-31
  -4.11999989        -4.20598932E-31
  -4.09000015        -2.22520592E-30
  -4.05999994        -4.23931975E-30
  -4.03000021        -6.16325681E-30
  -4.00000000        -7.61032120E-30
  -3.97000003        -8.32499092E-30
  -3.94000006        -8.13280568E-30
  -3.91000009        -6.88994968E-30
  -3.88000011        -4.85365229E-30
  -3.84999990        -2.50705974E-30
  -3.81999993        -5.88114353E-31
  -3.78999996         5.58192720E-32
  -3.75999999        -1.21974569E-30
  -3.73000002        -4.83105383E-30
  -3.70000005        -1.10567269E-29
  -3.67000008        -1.96202338E-29
  -3.64000010        -2.95251952E-29
  -3.60999990        -3.90320307E-29
  -3.57999992        -4.56202278E-29
  -3.54999995        -4.63256478E-29
  -3.51999998        -3.78619200E-29
  -3.49000001        -1.68741526E-29
  -3.46000004         1.95456491E-29
  -3.43000007         7.33228312E-29
  -3.40000010         1.44761465E-28
  -3.36999989         2.31947182E-28
  -3.33999991         3.30571768E-28
  -3.30999994         4.33204189E-28
  -3.27999997         5.28671766E-28
  -3.25000000         6.02476146E-28
  -3.22000003         6.37213470E-28
  -3.19000006         6.12891864E-28
  -3.16000009         5.08229031E-28
  -3.13000011         3.02890184E-28
  -3.09999990        -2.01450978E-29
  -3.06999993        -4.71889381E-28
  -3.03999996        -1.05391769E-27
  -3.00999999        -1.75488156E-27
  -2.98000002        -2.54698785E-27
  -2.95000005        -3.38273147E-27
  -2.92000008        -4.19270635E-27
  -2.89000010        -4.88518293E-27
  -2.85999990        -5.34747122E-27
  -2.82999992        -5.44930438E-27
  -2.79999995        -5.04992583E-27
  -2.76999998        -4.00853814E-27
  -2.74000001        -2.19738707E-27
  -2.71000004         4.81117089E-28
  -2.68000007         4.07485369E-27
  -2.65000010         8.56086491E-27
  -2.61999989         1.38234916E-26
  -2.58999991         1.96340392E-26
  -2.55999994         2.56344819E-26
  -2.52999997         3.13282889E-26
  -2.50000000         3.60808246E-26
  -2.47000003         3.91331893E-26
  -2.44000006         3.96324428E-26
  -2.41000009         3.66803712E-26
  -2.38000011         2.94029876E-26
  -2.34999990         1.70398763E-26
  -2.31999993        -9.48709624E-28
  -2.28999996        -2.47610311E-26
  -2.25999999        -5.41269145E-26
  -2.23000002        -8.81850411E-26
  -2.20000005        -1.25377731E-25
  -2.17000008        -1.63378529E-25
  -2.14000010        -1.99069567E-25
  -2.10999990        -2.28585513E-25
  -2.07999992        -2.47439732E-25
  -2.04999995        -2.50744788E-25
  -2.01999998        -2.33533741E-25
  -1.99000001        -1.91181365E-25
  -1.96000004        -1.19912688E-25
  -1.92999995        -1.73769433E-26
  -1.89999998         1.16748086E-25
  -1.87000000         2.80168486E-25
  -1.84000003         4.67461174E-25
  -1.80999994         6.69699916E-25
  -1.77999997         8.74289808E-25
  -1.75000000         1.06507611E-24
  -1.72000003         1.22278489E-24
  -1.69000006         1.32583675E-24
  -1.65999997         1.35155115E-24
  -1.63000000         1.27772964E-24
  -1.60000002         1.08456808E-24
  -1.57000005         7.56814023E-25
  -1.53999996         2.86041679E-25
  -1.50999999        -3.27114363E-25
  -1.48000002        -1.07095520E-24
  -1.45000005        -1.92114905E-24
  -1.41999996        -2.83980736E-24
  -1.38999999        -3.77539521E-24
  -1.36000001        -4.66364706E-24
  -1.33000004        -5.42959156E-24
  -1.29999995        -5.99073988E-24
  -1.26999998        -6.26139884E-24
  -1.24000001        -6.15799811E-24
  -1.21000004        -5.60521211E-24
  -1.17999995        -4.54260030E-24
  -1.14999998        -2.93139529E-24
  -1.12000000        -7.61026589E-25
  -1.09000003         1.94506455E-24
  -1.05999994         5.12475914E-24
  -1.02999997         8.67416621E-24
  -1.00000000         1.24464722E-23
 -0.970000029         1.62530227E-23
 -0.939999998         1.98668419E-23
 -0.910000026         2.30286989E-23
 -0.879999995         2.54557415E-23
 -0.850000024         2.68525854E-23
 -0.819999993         2.69247283E-23
 -0.790000021         2.53940289E-23
 -0.759999990         2.20159546E-23
 -0.730000019         1.65982740E-23
 -0.699999988         9.02072621E-24
 -0.670000017        -7.44790550E-25
 -0.639999986        -1.26141572E-23
 -0.610000014        -2.63718851E-23
 -0.579999983        -4.16538311E-23
 -0.550000012        -5.79330677E-23
 -0.519999981        -7.45103927E-23
 -0.490000010        -9.05113570E-23
 -0.460000008        -1.04891843E-22
 -0.430000007        -1.16454600E-22
 -0.400000006        -1.23878981E-22
 -0.370000005        -1.25766125E-22
 -0.340000004        -1.20701398E-22
 -0.310000002        -1.07335179E-22
 -0.280000001        -8.44818091E-23
 -0.250000000        -5.12354240E-23
 -0.219999999        -7.09916991E-24
 -0.189999998         4.78775492E-23
 -0.159999996         1.12961297E-22
 -0.129999995         1.86606423E-22
 -0.100000001         2.66348345E-22
  -7.00000003E-02     3.48731854E-22
  -3.99999991E-02     4.29289118E-22
  -9.99999978E-03     5.02581844E-22
   1.99999996E-02     5.62320854E-22
   5.00000007E-02     6.01574775E-22
   7.99999982E-02     6.13073564E-22
  0.109999999         5.89609130E-22
  0.140000001         5.24527778E-22
  0.170000002         4.12300437E-22
  0.200000003         2.49149234E-22
  0.230000004         3.36987810E-23
  0.259999990        -2.32387972E-22
  0.289999992        -5.43836013E-22
  0.319999993        -8.91300742E-22
  0.349999994        -1.26108299E-21
  0.379999995        -1.63507192E-21
  0.409999996        -1.99096840E-21
  0.439999998        -2.30283145E-21
  0.469999999        -2.54197631E-21
  0.500000000        -2.67823735E-21
  0.529999971        -2.68158222E-21
  0.560000002        -2.52404147E-21
  0.589999974        -2.18188940E-21
  0.620000005        -1.63798200E-21
  0.649999976        -8.84130362E-22
  0.680000007         7.66346563E-23
  0.709999979         1.22807200E-21
  0.740000010         2.53918861E-21
  0.769999981         3.96332685E-21
  0.800000012         5.43804731E-21
  0.829999983         6.88596114E-21
  0.860000014         8.21661605E-21
  0.889999986         9.32951567E-21
  0.920000017         1.01182736E-20
  0.949999988         1.04758515E-20
  0.980000019         1.03007412E-20
   1.00999999         9.50388761E-21
   1.03999996         8.01606999E-21
   1.07000005         5.79537399E-21
   1.10000002         2.83433821E-21
   1.13000000        -8.33677848E-22
   1.15999997        -5.12940756E-21
   1.19000006        -9.92435466E-21
   1.22000003        -1.50397058E-20
   1.25000000        -2.02478757E-20
   1.27999997        -2.52770385E-20
   1.30999994        -2.98188013E-20
   1.34000003        -3.35391527E-20
   1.37000000        -3.60925429E-20
   1.39999998        -3.71388198E-20
   1.42999995        -3.63625625E-20
   1.46000004        -3.34941295E-20
   1.49000001        -2.83315596E-20
   1.51999998        -2.07623012E-20
   1.54999995        -1.07835837E-20
   1.58000004         1.47981703E-21
   1.61000001         1.57617844E-20
   1.63999999         3.16463146E-20
   1.66999996         4.85654927E-20
   1.70000005         6.58050482E-20
   1.73000002         8.25183747E-20
   1.75999999         9.77495486E-20
   1.78999996         1.10465525E-19
   1.82000005         1.19597276E-19
   1.85000002         1.24089021E-19
   1.88000000         1.22954336E-19
   1.90999997         1.15337425E-19
   1.94000006         1.00576904E-19
   1.97000003         7.82695744E-20
   2.00000000         4.83309289E-20
   2.02999997         1.10487104E-20
   2.05999994        -3.28740381E-20
   2.08999991        -8.22900728E-20
   2.11999989        -1.35596823E-19
   2.15000010        -1.90746156E-19
   2.18000007        -2.45277534E-19
   2.21000004        -2.96376435E-19
   2.24000001        -3.40958885E-19
   2.26999998        -3.75781690E-19
   2.29999995        -3.97577072E-19
   2.32999992        -4.03208595E-19
   2.35999990        -3.89844122E-19
   2.39000010        -3.55140147E-19
   2.42000008        -2.97430522E-19
   2.45000005        -2.15911239E-19
   2.48000002        -1.10812023E-19
   2.50999999         1.64549359E-20
   2.53999996         1.63179936E-19
   2.56999993         3.25284562E-19
   2.59999990         4.97304448E-19
   2.63000011         6.72434714E-19
   2.66000009         8.42646977E-19
   2.69000006         9.98881904E-19
   2.72000003         1.13132241E-18
   2.75000000         1.22974605E-18
   2.77999997         1.28395409E-18
   2.80999994         1.28426945E-18
   2.83999991         1.22209008E-18
   2.86999989         1.09048327E-18
   2.90000010         8.84796224E-19
   2.93000007         6.03257547E-19
   2.96000004         2.47538684E-19
   2.99000001        -1.76761298E-19
   3.01999998        -6.59742661E-19
   3.04999995        -1.18698598E-18
   3.07999992        -1.73952319E-18
   3.10999990        -2.29403530E-18
   3.14000010        -2.82330743E-18
   3.17000008        -3.29696449E-18
   3.20000005        -3.68249642E-18
   3.23000002        -3.94657424E-18
   3.25999999        -4.05663600E-18
   3.28999996        -3.98270301E-18
   3.31999993        -3.69937504E-18
   3.34999990        -3.18791665E-18
   3.38000011        -2.43834378E-18
   3.41000009        -1.45138692E-18
   3.44000006        -2.40203453E-19
   3.47000003         1.16830328E-18
   3.50000000         2.73270055E-18
   3.52999997         4.39691660E-18
   3.55999994         6.09092211E-18
   3.58999991         7.73230073E-18
   3.61999989         9.22875980E-18
   3.65000010         1.04816018E-17
   3.68000007         1.13900942E-17
   3.71000004         1.18566431E-17
   3.74000001         1.17925879E-17
   3.76999998         1.11243740E-17
   3.79999995         9.79980889E-18
   3.82999992         7.79403653E-18
   3.85999990         5.11484733E-18
   3.89000010         1.80689809E-18
   3.92000008        -2.04554300E-18
   3.95000005        -6.31772138E-18
   3.98000002        -1.08456911E-17
   4.01000023        -1.54300121E-17
   4.03999996        -1.98419519E-17
   4.07000017        -2.38321703E-17
   4.09999990        -2.71416835E-17
   4.13000011        -2.95147903E-17
   4.15999985        -3.07133948E-17
   4.19000006        -3.05321198E-17
   4.21999979        -2.88133709E-17
   4.25000000        -2.54614679E-17
   4.28000021        -2.04549672E-17
   4.30999994        -1.38561794E-17
   4.34000015        -5.81706329E-18
   4.36999989         3.41922530E-18
   4.40000010         1.35216907E-17
   4.42999983         2.40800300E-17
   4.46000004         3.46183788E-17
   4.48999977         4.46139731E-17
   4.51999998         5.35200679E-17
   4.55000019         6.07922296E-17
   4.57999992         6.59167988E-17
   4.61000013         6.84400504E-17
   4.63999987         6.79965558E-17
   4.67000008         6.43350375E-17
   4.69999981         5.73401799E-17
   4.73000002         4.70488620E-17
   4.76000023         3.36596964E-17
   4.78999996         1.75348393E-17
   4.82000017        -8.06348482E-19
   4.84999990        -2.07019187E-17
   4.88000011        -4.13698468E-17
   4.90999985        -6.19376299E-17
   4.94000006        -8.14777469E-17
   4.96999979        -9.90473808E-17
   5.00000000        -1.13730651E-16
   5.03000021        -1.24681384E-16
   5.05999994        -1.31164296E-16
   5.09000015        -1.32592791E-16
   5.11999989        -1.28561589E-16
   5.15000010        -1.18872577E-16
   5.17999983        -1.03552835E-16
   5.21000004        -8.28637642E-17
   5.23999977        -5.73012693E-17
   5.26999998        -2.75865049E-17
   5.30000019         5.35228787E-18
   5.32999992         4.04063833E-17
   5.36000013         7.63208185E-17
   5.38999987         1.11735226E-16
   5.42000008         1.45230112E-16
   5.44999981         1.75377338E-16
   5.48000002         2.00793250E-16
   5.51000023         2.20193150E-16
   5.53999996         2.32445322E-16
   5.57000017         2.36623048E-16
   5.59999990         2.32052590E-16
   5.63000011         2.18355366E-16
   5.65999985         1.95482088E-16
   5.69000006         1.63737067E-16
   5.71999979         1.23790252E-16
   5.75000000         7.66756789E-17
   5.78000021         2.37743735E-17
   5.80999994        -3.32188984E-17
   5.84000015        -9.23455635E-17
   5.86999989        -1.51449279E-16
   5.90000010        -2.08256444E-16
   5.92999983        -2.60468852E-16
   5.96000004        -3.05864550E-16
   5.98999977        -3.42402534E-16
   6.01999998        -3.68325501E-16
   6.05000019        -3.82254958E-16
   6.07999992        -3.83272138E-16
   6.11000013        -3.70978752E-16
   6.13999987        -3.45532347E-16
   6.17000008        -3.07651816E-16
   6.19999981        -2.58590636E-16
   6.23000002        -2.00077255E-16
   6.26000023        -1.34224480E-16
   6.28999996        -6.34119371E-17
   6.32000017         9.85167146E-18
   6.34999990         8.30776598E-17
   6.38000011         1.53947378E-16
   6.40999985         2.20451627E-16
   6.44000006         2.81007521E-16
   6.46999979         3.34541777E-16
   6.50000000         3.80530954E-16
   6.53000021         4.18991809E-16
   6.55999994         4.50418664E-16
   6.59000015         4.75668345E-16
   6.61999989         4.95798930E-16
   6.65000010         5.11871645E-16
   6.67999983         5.24731140E-16
   6.71000004         5.34782457E-16
   6.73999977         5.41784296E-16
   6.76999998         5.44682578E-16
   6.80000019         5.41503822E-16
   6.82999992         5.29329100E-16
   6.86000013         5.04362539E-16
   6.88999987         4.62103801E-16
   6.92000008         3.97627203E-16
   6.94999981         3.05960477E-16
   6.98000002         1.82548769E-16
   7.01000023         2.37808752E-17
   7.03999996        -1.72454386E-16
   7.07000017        -4.06217440E-16
   7.09999990        -6.75017390E-16
   7.13000011        -9.73403804E-16
   7.15999985        -1.29269404E-15
   7.19000006        -1.62087812E-15
   7.21999979        -1.94273486E-15
   7.25000000        -2.24018065E-15
   7.28000021        -2.49286561E-15
   7.30999994        -2.67901952E-15
   7.34000015        -2.77652339E-15
   7.36999989        -2.76417979E-15
   7.40000010        -2.62313229E-15
   7.42999983        -2.33836616E-15
   7.46000004        -1.90021466E-15
   7.48999977        -1.30577540E-15
   7.51999998        -5.60147547E-16
   7.55000019         3.22624791E-16
   7.57999992         1.31899081E-15
   7.61000013         2.39581088E-15
   7.63999987         3.51082684E-15
   7.67000008         4.61373256E-15
   7.69999981         5.64787424E-15
   7.73000002         6.55255371E-15
   7.76000023         7.26589013E-15
   7.78999996         7.72812532E-15
   7.82000017         7.88524062E-15
   7.84999990         7.69269055E-15
   7.88000011         7.11903748E-15
   7.90999985         6.14924786E-15
   7.94000006         4.78740481E-15
   7.96999979         3.05858833E-15
   8.00000000         1.00972775E-15
   8.02999973        -1.29074999E-15
   8.06000042        -3.75457010E-15
   8.09000015        -6.27657089E-15
   8.11999989        -8.73892447E-15
   8.14999962        -1.10164470E-14
   8.18000031        -1.29827662E-14
   8.21000004        -1.45170199E-14
   8.23999977        -1.55107183E-14
   8.27000046        -1.58743749E-14
   8.30000019        -1.55434730E-14
   8.32999992        -1.44834096E-14
   8.35999966        -1.26930792E-14
   8.39000034        -1.02068410E-14
   8.42000008        -7.09470816E-15
   8.44999981        -3.46072188E-15
   8.47999954         5.60447873E-16
   8.51000023         4.80851922E-15
   8.53999996         9.10398804E-15
   8.56999969         1.32555981E-14
   8.60000038         1.70685355E-14
   8.63000011         2.03530023E-14
   8.65999985         2.29328055E-14
   8.68999958         2.46536241E-14
   8.72000027         2.53906545E-14
   8.75000000         2.50553718E-14
   8.77999973         2.36011602E-14
   8.81000042         2.10276031E-14
   8.84000015         1.73832540E-14
   8.86999989         1.27667050E-14
   8.89999962         7.32576689E-15
   8.93000031         1.25464987E-15
   8.96000004        -5.21100175E-15
   8.98999977        -1.18013077E-14
   9.02000046        -1.82215235E-14
   9.05000019        -2.41635223E-14
   9.07999992        -2.93190866E-14
   9.10999966        -3.33946331E-14
   9.14000034        -3.61267921E-14
   9.17000008        -3.72980455E-14
   9.19999981        -3.67516483E-14
   9.22999954        -3.44047741E-14
   9.26000023        -3.02589544E-14
   9.28999996        -2.44068393E-14
   9.31999969        -1.70345271E-14
   9.35000038        -8.41879175E-15
   9.38000011         1.08102919E-15
   9.40999985         1.10364708E-14
   9.43999958         2.09683142E-14
   9.47000027         3.03690958E-14
   9.50000000         3.87286842E-14
   9.52999973         4.55615397E-14
   9.56000042         5.04341001E-14
   9.59000015         5.29907132E-14
   9.61999989         5.29764729E-14
   9.64999962         5.02555625E-14
   9.68000031         4.48239061E-14
   9.71000004         3.68152300E-14
   9.73999977         2.65000559E-14
   9.77000046         1.42775518E-14
   9.80000019         6.60432754E-16
   9.82999992        -1.37463300E-14
   9.85999966        -2.82720624E-14
   9.89000034        -4.22109687E-14
   9.92000008        -5.48553173E-14
   9.94999981        -6.55296604E-14
   9.97999954        -7.36244765E-14
   10.0100002        -7.86276358E-14
   10.0400000        -8.01521054E-14
   10.0699997        -7.79585747E-14
   10.1000004        -7.19715764E-14
   10.1300001        -6.22883838E-14
   10.1599998        -4.91797799E-14
   10.1899996        -3.30825387E-14
   10.2200003        -1.45837000E-14
   10.2500000         5.60277482E-15
   10.2799997         2.66659406E-14
   10.3100004         4.77329968E-14
   10.3400002         6.79076953E-14
   10.3699999         8.63100349E-14
   10.3999996         1.02115012E-13
   10.4300003         1.14588420E-13
   10.4600000         1.23117608E-13
   10.4899998         1.27235746E-13
   10.5200005         1.26638744E-13
   10.5500002         1.21194179E-13
   10.5799999         1.10942553E-13
   10.6099997         9.60917747E-14
   10.6400003         7.70058049E-14
   10.6700001         5.41892140E-14
   10.6999998         2.82690843E-14
   10.7299995        -2.44155047E-17
   10.7600002        -2.98776235E-14
   10.7900000        -6.04124295E-14
   10.8199997        -9.07049772E-14
   10.8500004        -1.19804218E-13
   10.8800001        -1.46751047E-13
   10.9099998        -1.70598981E-13
   10.9399996        -1.90437171E-13
   10.9700003        -2.05416074E-13
   11.0000000        -2.14775802E-13
   11.0299997        -2.17876349E-13
   11.0600004        -2.14228280E-13
   11.0900002        -2.03521594E-13
   11.1199999        -1.85650513E-13
   11.1499996        -1.60731793E-13
   11.1800003        -1.29114330E-13
   11.2100000        -9.13785039E-14
   11.2399998        -4.83248559E-14
   11.2700005        -9.52770294E-16
   11.3000002         4.95691440E-14
   11.3299999         1.01938369E-13
   11.3599997         1.54756037E-13
   11.3900003         2.06563580E-13
   11.4200001         2.55875751E-13
   11.4499998         3.01207464E-13
   11.4799995         3.41094909E-13
   11.5100002         3.74111576E-13
   11.5400000         3.98881882E-13
   11.5699997         4.14096302E-13
   11.6000004         4.18532722E-13
   11.6300001         4.11088156E-13
   11.6599998         3.90823956E-13
   11.6899996         3.57026149E-13
   11.7200003         3.09279268E-13
   11.7500000         2.47549865E-13
   11.7799997         1.72273003E-13
   11.8100004         8.44317021E-14
   11.8400002        -1.43806916E-14
   11.8699999        -1.21926503E-13
   11.8999996        -2.35326651E-13
   11.9300003        -3.51108709E-13
   11.9600000        -4.65301409E-13
   11.9899998        -5.73574879E-13
   12.0200005        -6.71420059E-13
   12.0500002        -7.54355291E-13
   12.0799999        -8.18146169E-13
   12.1099997        -8.59022651E-13
   12.1400003        -8.73876817E-13
   12.1700001        -8.60426856E-13
   12.1999998        -8.17336867E-13
   12.2299995        -7.44287173E-13
   12.2600002        -6.41994704E-13
   12.2900000        -5.12188436E-13
   12.3199997        -3.57548870E-13
   12.3500004        -1.81623041E-13
   12.3800001         1.12723102E-14
   12.4099998         2.16149987E-13
   12.4399996         4.27448523E-13
   12.4700003         6.39122923E-13
   12.5000000         8.44734764E-13
   12.5299997         1.03755047E-12
   12.5600004         1.21066135E-12
   12.5900002         1.35713543E-12
   12.6199999         1.47021577E-12
   12.6499996         1.54356616E-12
   12.6800003         1.57156612E-12
   12.7100000         1.54964127E-12
   12.7399998         1.47461101E-12
   12.7700005         1.34502262E-12
   12.8000002         1.16144106E-12
   12.8299999         9.26656213E-13
   12.8599997         6.45780196E-13
   12.8900003         3.26206618E-13
   12.9200001        -2.25776581E-14
   12.9499998        -3.89326131E-13
   12.9799995        -7.61493028E-13
   13.0100002        -1.12579119E-12
   13.0400000        -1.46880175E-12
   13.0699997        -1.77758763E-12
   13.1000004        -2.04026401E-12
   13.1300001        -2.24648165E-12
   13.1599998        -2.38779244E-12
   13.1899996        -2.45788633E-12
   13.2200003        -2.45269777E-12
   13.2500000        -2.37040595E-12
   13.2799997        -2.21135653E-12
   13.3100004        -1.97794819E-12
   13.3400002        -1.67451968E-12
   13.3699999        -1.30726951E-12
   13.3999996        -8.84224334E-13
   13.4300003        -4.15253579E-13
   13.4600000         8.78936951E-14
   13.4899998         6.11569443E-13
   13.5200005         1.14028058E-12
   13.5500002         1.65687158E-12
   13.5799999         2.14288960E-12
   13.6099997         2.57916323E-12
   13.6400003         2.94660390E-12
   13.6700001         3.22720453E-12
   13.6999998         3.40517371E-12
   13.7299995         3.46811620E-12
   13.7600002         3.40814182E-12
   13.7900000         3.22278272E-12
   13.8199997         2.91559268E-12
   13.8500004         2.49633690E-12
   13.8800001         1.98070900E-12
   13.9099998         1.38956490E-12
   13.9399996         7.47714282E-13
   13.9700003         8.23665612E-14
   14.0000000        -5.78627586E-13
   14.0299997        -1.20857436E-12
   14.0600004        -1.78359335E-12
   14.0900002        -2.28396750E-12
   14.1199999        -2.69505642E-12
   14.1499996        -3.00769782E-12
   14.1800003        -3.21807750E-12
   14.2100000        -3.32712503E-12
   14.2399998        -3.33954479E-12
   14.2700005        -3.26263712E-12