  -10.0000000         1.00000002E-24
  -9.97000027         1.00000002E-24
  -9.93999958         1.00000002E-24
  -9.90999985         1.00000002E-24
  -9.88000011         1.00000002E-24
  -9.85000038         1.00000002E-24
  -9.81999969         1.00000002E-24
  -9.78999996         1.00000002E-24
  -9.76000023         1.00000012E-24
  -9.72999954         1.00000012E-24
  -9.69999981         1.00000012E-24
  -9.67000008         1.00000012E-24
  -9.64000034         1.00000012E-24
  -9.60999966         1.00000012E-24
  -9.57999992         1.00000012E-24
  -9.55000019         1.00000012E-24
  -9.52000046         1.00000002E-24
  -9.48999977         1.00000002E-24
  -9.46000004         1.00000002E-24
  -9.43000031         1.00000002E-24
  -9.39999962         1.00000002E-24
  -9.36999989         1.00000002E-24
  -9.34000015         1.00000002E-24
  -9.31000042         1.00000012E-24
  -9.27999973         1.00000012E-24
  -9.25000000         1.00000012E-24
  -9.22000027         1.00000022E-24
  -9.18999958         1.00000022E-24
  -9.15999985         1.00000022E-24
  -9.13000011         1.00000022E-24
  -9.10000038         1.00000022E-24
  -9.06999969         1.00000022E-24
  -9.03999996         1.00000012E-24
  -9.01000023         1.00000002E-24
  -8.97999954         1.00000002E-24
  -8.94999981         9.99999921E-25
  -8.92000008         9.99999921E-25
  -8.89000034         9.99999921E-25
  -8.85999966         9.99999921E-25
  -8.82999992         9.99999921E-25
  -8.80000019         1.00000002E-24
  -8.77000046         1.00000002E-24
  -8.73999977         1.00000012E-24
  -8.71000004         1.00000022E-24
  -8.68000031         1.00000032E-24
  -8.64999962         1.00000032E-24
  -8.61999989         1.00000041E-24
  -8.59000015         1.00000041E-24
  -8.56000042         1.00000032E-24
  -8.52999973         1.00000032E-24
  -8.50000000         1.00000022E-24
  -8.47000027         1.00000022E-24
  -8.43999958         1.00000012E-24
  -8.40999985         1.00000022E-24
  -8.38000011         1.00000012E-24
  -8.35000038         1.00000022E-24
  -8.31999969         1.00000022E-24
  -8.28999996         1.00000022E-24
  -8.26000023         1.00000012E-24
  -8.22999954         1.00000012E-24
  -8.19999981         1.00000002E-24
  -8.17000008         1.00000002E-24
  -8.14000034         9.99999921E-25
  -8.10999966         9.99999822E-25
  -8.07999992         9.99999724E-25
  -8.05000019         9.99999822E-25
  -8.02000046         9.99999822E-25
  -7.98999977         9.99999822E-25
  -7.96000004         9.99999921E-25
  -7.92999983         9.99999921E-25
  -7.90000010         1.00000012E-24
  -7.86999989         1.00000022E-24
  -7.84000015         1.00000032E-24
  -7.80999994         1.00000041E-24
  -7.78000021         1.00000041E-24
  -7.75000000         1.00000041E-24
  -7.71999979         1.00000041E-24
  -7.69000006         1.00000032E-24
  -7.65999985         1.00000022E-24
  -7.63000011         1.00000002E-24
  -7.59999990         9.99999921E-25
  -7.57000017         9.99999822E-25
  -7.53999996         9.99999724E-25
  -7.51000023         9.99999724E-25
  -7.48000002         9.99999724E-25
  -7.44999981         9.99999822E-25
  -7.42000008         9.99999921E-25
  -7.38999987         1.00000012E-24
  -7.36000013         1.00000022E-24
  -7.32999992         1.00000032E-24
  -7.30000019         1.00000041E-24
  -7.26999998         1.00000051E-24
  -7.23999977         1.00000041E-24
  -7.21000004         1.00000041E-24
  -7.17999983         1.00000032E-24
  -7.15000010         1.00000022E-24
  -7.11999989         1.00000012E-24
  -7.09000015         1.00000002E-24
  -7.05999994         9.99999921E-25
  -7.03000021         9.99999921E-25
  -7.00000000         9.99999921E-25
  -6.96999979         1.00000002E-24
  -6.94000006         1.00000002E-24
  -6.90999985         1.00000012E-24
  -6.88000011         1.00000022E-24
  -6.84999990         1.00000032E-24
  -6.82000017         1.00000032E-24
  -6.78999996         1.00000032E-24
  -6.76000023         1.00000022E-24
  -6.73000002         1.00000012E-24
  -6.69999981         9.99999921E-25
  -6.67000008         9.99999724E-25
  -6.63999987         9.99999527E-25
  -6.61000013         9.99999329E-25
  -6.57999992         9.99999231E-25
  -6.55000019         9.99999231E-25
  -6.51999998         9.99999329E-25
  -6.48999977         9.99999527E-25
  -6.46000004         9.99999822E-25
  -6.42999983         1.00000012E-24
  -6.40000010         1.00000032E-24
  -6.36999989         1.00000051E-24
  -6.34000015         1.00000071E-24
  -6.30999994         1.00000081E-24
  -6.28000021         1.00000081E-24
  -6.25000000         1.00000071E-24
  -6.21999979         1.00000061E-24
  -6.19000006         1.00000041E-24
  -6.15999985         1.00000032E-24
  -6.13000011         1.00000022E-24
  -6.09999990         1.00000012E-24
  -6.07000017         1.00000012E-24
  -6.03999996         1.00000022E-24
  -6.01000023         1.00000022E-24
  -5.98000002         1.00000032E-24
  -5.94999981         1.00000041E-24
  -5.92000008         1.00000041E-24
  -5.88999987         1.00000041E-24
  -5.86000013         1.00000041E-24
  -5.82999992         1.00000032E-24
  -5.80000019         1.00000032E-24
  -5.76999998         1.00000022E-24
  -5.73999977         1.00000022E-24
  -5.71000004         1.00000022E-24
  -5.67999983         1.00000032E-24
  -5.65000010         1.00000041E-24
  -5.61999989         1.00000051E-24
  -5.59000015         1.00000051E-24
  -5.55999994         1.00000061E-24
  -5.53000021         1.00000061E-24
  -5.50000000         1.00000051E-24
  -5.46999979         1.00000032E-24
  -5.44000006         1.00000012E-24
  -5.40999985         9.99999921E-25
  -5.38000011         9.99999724E-25
  -5.34999990         9.99999527E-25
  -5.32000017         9.99999428E-25
  -5.28999996         9.99999329E-25
  -5.26000023         9.99999428E-25
  -5.23000002         9.99999527E-25
  -5.19999981         9.99999625E-25
  -5.17000008         9.99999921E-25
  -5.13999987         1.00000012E-24
  -5.11000013         1.00000022E-24
  -5.07999992         1.00000032E-24
  -5.05000019         1.00000022E-24
  -5.01999998         1.00000012E-24
  -4.98999977         9.99999921E-25
  -4.96000004         9.99999724E-25
  -4.92999983         9.99999428E-25
  -4.90000010         9.99999132E-25
  -4.86999989         9.99999033E-25
  -4.84000015         9.99998935E-25
  -4.80999994         9.99999033E-25
  -4.78000021         9.99999132E-25
  -4.75000000         9.99999231E-25
  -4.71999979         9.99999527E-25
  -4.69000006         9.99999724E-25
  -4.65999985         9.99999921E-25
  -4.63000011         1.00000012E-24
  -4.59999990         1.00000012E-24
  -4.57000017         1.00000022E-24
  -4.53999996         1.00000032E-24
  -4.51000023         1.00000032E-24
  -4.48000002         1.00000032E-24
  -4.44999981         1.00000032E-24
  -4.42000008         1.00000041E-24
  -4.38999987         1.00000041E-24
  -4.36000013         1.00000041E-24
  -4.32999992         1.00000041E-24
  -4.30000019         1.00000051E-24
  -4.26999998         1.00000051E-24
  -4.23999977         1.00000051E-24
  -4.21000004         1.00000051E-24
  -4.17999983         1.00000051E-24
  -4.15000010         1.00000041E-24
  -4.11999989         1.00000022E-24
  -4.09000015         1.00000012E-24
  -4.05999994         1.00000002E-24
  -4.03000021         1.00000002E-24
  -4.00000000         1.00000002E-24
  -3.97000003         1.00000002E-24
  -3.94000006         1.00000012E-24
  -3.91000009         1.00000012E-24
  -3.88000011         1.00000022E-24
  -3.84999990         1.00000032E-24
  -3.81999993         1.00000032E-24
  -3.78999996         1.00000032E-24
  -3.75999999         1.00000022E-24
  -3.73000002         1.00000022E-24
  -3.70000005         1.00000012E-24
  -3.67000008         1.00000002E-24
  -3.64000010         9.99999921E-25
  -3.60999990         9.99999822E-25
  -3.57999992         9.99999724E-25
  -3.54999995         9.99999625E-25
  -3.51999998         9.99999625E-25
  -3.49000001         9.99999625E-25
  -3.46000004         9.99999724E-25
  -3.43000007         9.99999921E-25
  -3.40000010         1.00000002E-24
  -3.36999989         1.00000032E-24
  -3.33999991         1.00000051E-24
  -3.30999994         1.00000091E-24
  -3.27999997         1.00000120E-24
  -3.25000000         1.00000160E-24
  -3.22000003         1.00000189E-24
  -3.19000006         1.00000229E-24
  -3.16000009         1.00000258E-24
  -3.13000011         1.00000288E-24
  -3.09999990         1.00000298E-24
  -3.06999993         1.00000288E-24
  -3.03999996         1.00000248E-24
  -3.00999999         1.00000170E-24
  -2.98000002         1.00000061E-24
  -2.95000005         9.99999132E-25
  -2.92000008         9.99997160E-25
  -2.89000010         9.99994793E-25
  -2.85999990         9.99992131E-25
  -2.82999992         9.99989271E-25
  -2.79999995         9.99986313E-25
  -2.76999998         9.99983651E-25
  -2.74000001         9.99981383E-25
  -2.71000004         9.99980101E-25
  -2.68000007         9.99980002E-25
  -2.65000010         9.99981481E-25
  -2.61999989         9.99985031E-25
  -2.58999991         9.99990948E-25
  -2.55999994         9.99999527E-25
  -2.52999997         1.00001106E-24
  -2.50000000         1.00002536E-24
  -2.47000003         1.00004212E-24
  -2.44000006         1.00006106E-24
  -2.41000009         1.00008117E-24
  -2.38000011         1.00010139E-24
  -2.34999990         1.00012003E-24
  -2.31999993         1.00013511E-24
  -2.28999996         1.00014448E-24
  -2.25999999         1.00014566E-24
  -2.23000002         1.00013600E-24
  -2.20000005         1.00011312E-24
  -2.17000008         1.00007467E-24
  -2.14000010         1.00001875E-24
  -2.10999990         9.99944701E-25
  -2.07999992         9.99852503E-25
  -2.04999995         9.99744034E-25
  -2.01999998         9.99622747E-25
  -1.99000001         9.99494162E-25
  -1.96000004         9.99365677E-25
  -1.92999995         9.99247150E-25
  -1.89999998         9.99150515E-25
  -1.87000000         9.99089082E-25
  -1.84000003         9.99077545E-25
  -1.80999994         9.99130793E-25
  -1.77999997         9.99263125E-25
  -1.75000000         9.99486570E-25
  -1.72000003         9.99810101E-25
  -1.69000006         1.00023757E-24
  -1.65999997         1.00076630E-24
  -1.63000000         1.00138556E-24
  -1.60000002         1.00207541E-24
  -1.57000005         1.00280541E-24
  -1.53999996         1.00353441E-24
  -1.50999999         1.00421037E-24
  -1.48000002         1.00477184E-24
  -1.45000005         1.00514931E-24
  -1.41999996         1.00526833E-24
  -1.38999999         1.00505346E-24
  -1.36000001         1.00443283E-24
  -1.33000004         1.00334459E-24
  -1.29999995         1.00174291E-24
  -1.26999998         9.99605589E-25
  -1.24000001         9.96940916E-25
  -1.21000004         9.93795135E-25
  -1.17999995         9.90257686E-25
  -1.14999998         9.86466618E-25
  -1.12000000         9.82610468E-25
  -1.09000003         9.78928756E-25
  -1.05999994         9.75707640E-25
  -1.02999997         9.73273018E-25
  -1.00000000         9.71978793E-25
 -0.970000029         9.72190602E-25
 -0.939999998         9.74265010E-25
 -0.910000026         9.78524761E-25
 -0.879999995         9.85230078E-25
 -0.850000024         9.94547512E-25
 -0.819999993         1.00651769E-24
 -0.790000021         1.02102287E-24
 -0.759999990         1.03775747E-24
 -0.730000019         1.05620340E-24
 -0.699999988         1.07561234E-24
 -0.670000017         1.09499928E-24
 -0.639999986         1.11314762E-24
 -0.610000014         1.12863099E-24
 -0.579999983         1.13985194E-24
 -0.550000012         1.14510053E-24
 -0.519999981         1.14263258E-24
 -0.490000010         1.13076782E-24
 -0.460000008         1.10800760E-24
 -0.430000007         1.07316667E-24
 -0.400000006         1.02551760E-24
 -0.370000005         9.64939097E-25
 -0.340000004         8.92062844E-25
 -0.310000002         8.08407399E-25
 -0.280000001         7.16490214E-25
 -0.250000000         6.19905142E-25
 -0.219999999         5.23353448E-25
 -0.189999998         4.32616202E-25
 -0.159999996         3.54456948E-25
 -0.129999995         2.96444462E-25
 -0.100000001         2.66688382E-25
  -7.00000003E-02     2.73484641E-25
  -3.99999991E-02     3.24870128E-25
  -9.99999978E-03     4.28093711E-25
   1.99999996E-02     5.89015173E-25
   5.00000007E-02     8.11450726E-25
   7.99999982E-02     1.09649171E-24
  0.109999999         1.44182938E-24
  0.140000001         1.84112641E-24
  0.170000002         2.28348016E-24
  0.200000003         2.75303049E-24
  0.230000004         3.22876647E-24
  0.259999990         3.68458430E-24
  0.289999992         4.08965530E-24
  0.319999993         4.40914160E-24
  0.349999994         4.60530843E-24
  0.379999995         4.63904565E-24
  0.409999996         4.47180871E-24
  0.439999998         4.06796005E-24
  0.469999999         3.39746220E-24
  0.500000000         2.43884671E-24
  0.529999971         1.18234956E-24
  0.560000002        -3.66936875E-25
  0.589999974        -2.18607024E-24
  0.620000005        -4.23163764E-24
  0.649999976        -6.43773686E-24
  0.680000007        -8.71481700E-24
  0.709999979        -1.09496355E-23
  0.740000010        -1.30065722E-23
  0.769999981        -1.47305180E-23
  0.800000012        -1.59515138E-23
  0.829999983        -1.64912524E-23
  0.860000014        -1.61714371E-23
  0.889999986        -1.48239223E-23
  0.920000017        -1.23024231E-23
  0.949999988        -8.49542926E-24
  0.980000019        -3.33982408E-24
   1.00999999         3.16540338E-24
   1.03999996         1.09461448E-23
   1.07000005         1.98417482E-23
   1.10000002         2.95961143E-23
   1.13000000         3.98523568E-23
   1.15999997         5.01520024E-23
   1.19000006         5.99396774E-23
   1.22000003         6.85741008E-23
   1.25000000         7.53459478E-23
   1.27999997         7.95030365E-23
   1.30999994         8.02827530E-23
   1.34000003         7.69513997E-23
   1.37000000         6.88497540E-23
   1.39999998         5.54433532E-23
   1.42999995         3.63760077E-23
   1.46000004         1.15240832E-23
   1.49000001        -1.89510785E-23
   1.51999998        -5.45556954E-23
   1.54999995        -9.44245804E-23
   1.58000004        -1.37294362E-22
   1.61000001        -1.81492610E-22
   1.63999999        -2.24946527E-22
   1.66999996        -2.65214759E-22
   1.70000005        -2.99544673E-22
   1.73000002        -3.24957782E-22
   1.75999999        -3.38363622E-22
   1.78999996        -3.36701889E-22
   1.82000005        -3.17110825E-22
   1.85000002        -2.77117521E-22
   1.88000000        -2.14844942E-22
   1.90999997        -1.29226221E-22
   1.94000006        -2.02177414E-23
   1.97000003         1.11002688E-22
   2.00000000         2.61865268E-22
   2.02999997         4.28280537E-22
   2.05999994         6.04569922E-22
   2.08999991         7.83468883E-22
   2.11999989         9.56217052E-22
   2.15000010         1.11274533E-21
   2.18000007         1.24196908E-21
   2.21000004         1.33218750E-21
   2.24000001         1.37158955E-21
   2.26999998         1.34885471E-21
   2.29999995         1.25383334E-21
   2.32999992         1.07828203E-21
   2.35999990         8.16624922E-22
   2.39000010         4.66703087E-22
   2.42000008         3.04700428E-23
   2.45000005        -4.85411182E-22
   2.48000002        -1.06911610E-21
   2.50999999        -1.70339955E-21
   2.53999996        -2.36556772E-21
   2.56999993        -3.02772338E-21
   2.59999990        -3.65730638E-21
   2.63000011        -4.21794864E-21
   2.66000009        -4.67064706E-21
   2.69000006        -4.97524339E-21
   2.72000003        -5.09218282E-21
   2.75000000        -4.98451161E-21
   2.77999997        -4.62004727E-21
   2.80999994        -3.97365651E-21
   2.83999991        -3.02954394E-21
   2.86999989        -1.78345492E-21
   2.90000010        -2.44680268E-22
   2.93000007         1.56225893E-21
   2.96000004         3.59636037E-21
   2.99000001         5.79945456E-21
   3.01999998         8.09619019E-21
   3.04999995         1.03948072E-20
   3.07999992         1.25887777E-20
   3.10999990         1.45593837E-20
   3.14000010         1.61792747E-20
   3.17000008         1.73169777E-20
   3.20000005         1.78423488E-20
   3.23000002         1.76328266E-20
   3.25999999         1.65803539E-20
   3.28999996         1.45987345E-20
   3.31999993         1.16311425E-20
   3.34999990         7.65744681E-21
   3.38000011         2.70095695E-21
   3.41000009        -3.16584699E-21
   3.44000006        -9.81704413E-21
   3.47000003        -1.70709205E-20
   3.50000000        -2.46899503E-20
   3.52999997        -3.23834877E-20
   3.55999994        -3.98134113E-20
   3.58999991        -4.66029260E-20
   3.61999989        -5.23484837E-20
   3.65000010        -5.66347107E-20
   3.68000007        -5.90519393E-20
   3.71000004        -5.92159278E-20
   3.74000001        -5.67889476E-20
   3.76999998        -5.15015025E-20
   3.79999995        -4.31736064E-20
   3.82999992        -3.17346905E-20
   3.85999990        -1.72409352E-20
   3.89000010         1.10958436E-22
   3.92000008         1.99744909E-20
   3.95000005         4.18495326E-20
   3.98000002         6.50844382E-20
   4.01000023         8.88846733E-20
   4.03999996         1.12328090E-19
   4.07000017         1.34386825E-19
   4.09999990         1.53955554E-19
   4.13000011         1.69885617E-19
   4.15999985         1.81024264E-19
   4.19000006         1.86258365E-19
   4.21999979         1.84561365E-19
   4.25000000         1.75042766E-19
   4.28000021         1.56998557E-19
   4.30999994         1.29961745E-19
   4.34000015         9.37513194E-20
   4.36999989         4.85182982E-20
   4.40000010        -5.21301743E-21
   4.42999983        -6.65104911E-20
   4.46000004        -1.34008468E-19
   4.48999977        -2.05893578E-19
   4.51999998        -2.79904788E-19
   4.55000019        -3.53350542E-19
   4.57999992        -4.23146104E-19
   4.61000013        -4.85873484E-19
   4.63999987        -5.37867007E-19
   4.67000008        -5.75325106E-19
   4.69999981        -5.94449935E-19
   4.73000002        -5.91612964E-19
   4.76000023        -5.63544399E-19
   4.78999996        -5.07541480E-19
   4.82000017        -4.21688663E-19
   4.84999990        -3.05081090E-19
   4.88000011        -1.58038944E-19
   4.90999985         1.76992853E-20
   4.94000006         2.18820188E-19
   4.96999979         4.40329385E-19
   5.00000000         6.75512549E-19
   5.03000021         9.15976280E-19
   5.05999994         1.15178086E-18
   5.09000015         1.37167422E-18
   5.11999989         1.56342905E-18
   5.15000010         1.71428498E-18
   5.17999983         1.81148666E-18
   5.21000004         1.84290464E-18
   5.23999977         1.79771990E-18
   5.26999998         1.66714416E-18
   5.30000019         1.44514460E-18
   5.32999992         1.12913421E-18
   5.36000013         7.20589033E-19
   5.38999987         2.25547286E-19
   5.42000008        -3.45052732E-19
   5.44999981        -9.75233121E-19
   5.48000002        -1.64407327E-18
   5.51000023        -2.32607097E-18
   5.53999996        -2.99178117E-18
   5.57000017        -3.60874293E-18
   5.59999990        -4.14267974E-18
   5.63000011        -4.55895011E-18
   5.65999985        -4.82420253E-18
   5.69000006        -4.90817873E-18
   5.71999979        -4.78558188E-18
   5.75000000        -4.43792532E-18
   5.78000021        -3.85525433E-18
   5.80999994        -3.03763530E-18
   5.84000015        -1.99630466E-18
   5.86999989        -7.54363541E-19
   5.90000010         6.53058473E-19
   5.92999983         2.17925695E-18
   5.96000004         3.76705744E-18
   5.98999977         5.35059050E-18
   6.01999998         6.85770489E-18
   6.05000019         8.21295636E-18
   6.07999992         9.34105784E-18
   6.11000013         1.01706455E-17
   6.13999987         1.06381813E-17
   6.17000008         1.06917751E-17
   6.19999981         1.02947152E-17
   6.23000002         9.42847676E-18
   6.26000023         8.09500620E-18
   6.28999996         6.31808327E-18
   6.32000017         4.14364299E-18
   6.34999990         1.63895013E-18
   6.38000011        -1.10938165E-18
   6.40999985        -3.99848768E-18
   6.44000006        -6.91335181E-18
   6.46999979        -9.73172614E-18
   6.50000000        -1.23296341E-17
   6.53000021        -1.45871762E-17
   6.55999994        -1.63943409E-17
   6.59000015        -1.76564944E-17
   6.61999989        -1.82992435E-17
   6.65000010        -1.82724197E-17
   6.67999983        -1.75529331E-17
   6.71000004        -1.61463356E-17
   6.73999977        -1.40870231E-17
   6.76999998        -1.14370293E-17
   6.80000019        -8.28346854E-18
   6.82999992        -4.73480251E-18
   6.86000013        -9.16065926E-19
   6.88999987         3.03665613E-18
   6.92000008         6.98223320E-18
   6.94999981         1.07806648E-17
   6.98000002         1.42991089E-17
   7.01000023         1.74174459E-17
   7.03999996         2.00331216E-17
   7.07000017         2.20650031E-17
   7.09999990         2.34560446E-17
   7.13000011         2.41746677E-17
   7.15999985         2.42147529E-17
   7.19000006         2.35942847E-17
   7.21999979         2.23527247E-17
   7.25000000         2.05472822E-17
   7.28000021         1.82483670E-17
   7.30999994         1.55344519E-17
   7.34000015         1.24867951E-17
   7.36999989         9.18433358E-18
   7.40000010         5.69918302E-18
   7.42999983         2.09310403E-18
   7.46000004        -1.58477259E-18
   7.48999977        -5.29874654E-18
   7.51999998        -9.02568861E-18
   7.55000019        -1.27526352E-17
   7.57999992        -1.64729131E-17
   7.61000013        -2.01811043E-17
   7.63999987        -2.38672692E-17
   7.67000008        -2.75109518E-17
   7.69999981        -3.10754485E-17
   7.73000002        -3.45029938E-17
   7.76000023        -3.77112634E-17
   7.78999996        -4.05917842E-17
   7.82000017        -4.30103114E-17
   7.84999990        -4.48094789E-17
   7.88000011        -4.58135703E-17
   7.90999985        -4.58351928E-17
   7.94000006        -4.46836019E-17
   7.96999979        -4.21739657E-17
   8.00000000        -3.81374169E-17
   8.02999973        -3.24310618E-17
   8.06000042        -2.49478186E-17
   8.09000015        -1.56256022E-17
   8.11999989        -4.45574899E-18
   8.14999962         8.50925494E-18
   8.18000031         2.31489241E-17
   8.21000004         3.92684541E-17
   8.23999977         5.65930373E-17
   8.27000046         7.47628734E-17
   8.30000019         9.33289025E-17
   8.32999992         1.11750155E-16
   8.35999966         1.29393018E-16
   8.39000034         1.45533733E-16
   8.42000008         1.59365279E-16
   8.44999981         1.70009862E-16
   8.47999954         1.76538342E-16
   8.51000023         1.77997409E-16
   8.53999996         1.73445428E-16
   8.56999969         1.61996454E-16
   8.60000038         1.42872581E-16
   8.63000011         1.15462079E-16
   8.65999985         7.93819889E-17
   8.68999958         3.45419143E-17
   8.72000027        -1.87948538E-17
   8.75000000        -7.99563368E-17
   8.77999973        -1.47817255E-16
   8.81000042        -2.20769198E-16
   8.84000015        -2.96708733E-16
   8.86999989        -3.73046942E-16
   8.89999962        -4.46743070E-16
   8.93000031        -5.14363298E-16
   8.96000004        -5.72166309E-16
   8.98999977        -6.16214828E-16
   9.02000046        -6.42513083E-16
   9.05000019        -6.47167159E-16
   9.07999992        -6.26566841E-16
   9.10999966        -5.77584408E-16
   9.14000034        -4.97785964E-16
   9.17000008        -3.85648886E-16
   9.19999981        -2.40777956E-16
   9.22999954        -6.41113150E-17
   9.26000023         1.41896256E-16
   9.28999996         3.73123863E-16
   9.31999969         6.23684441E-16
   9.35000038         8.85888996E-16
   9.38000011         1.15029012E-15
   9.40999985         1.40581995E-15
   9.43999958         1.64003472E-15
   9.47000027         1.83947159E-15
   9.50000000         1.99012530E-15
   9.52999973         2.07803334E-15
   9.56000042         2.08996613E-15
   9.59000015         2.01418993E-15
   9.61999989         1.84128234E-15
   9.64999962         1.56495319E-15
   9.68000031         1.18283069E-15
   9.71000004         6.97157932E-16
   9.73999977         1.15348695E-16
   9.77000046        -5.49650003E-16
   9.80000019        -1.27923585E-15
   9.82999992        -2.04930812E-15
   9.85999966        -2.83072948E-15
   9.89000034        -3.59010552E-15
   9.92000008        -4.29087452E-15
   9.94999981        -4.89468661E-15
   9.97999954        -5.36302934E-15
   10.0100002        -5.65904067E-15
   10.0400000        -5.74943349E-15
   10.0699997        -5.60645221E-15
   10.1000004        -5.20975957E-15
   10.1300001        -4.54816289E-15
   10.1599998        -3.62107220E-15
   10.1899996        -2.43961201E-15
   10.2200003        -1.02729575E-15
   10.2500000         5.79807764E-16
   10.2799997         2.33345740E-15
   10.3100004         4.17421182E-15
   10.3400002         6.03299047E-15
   10.3699999         7.83320908E-15
   10.3999996         9.49344702E-15
   10.4300003         1.09305621E-14
   10.4600000         1.20631764E-14
   10.4899998         1.28153891E-14
   10.5200005         1.31205802E-14
   10.5500002         1.29251451E-14
   10.5799999         1.21919771E-14
   10.6099997         1.09035129E-14
   10.6400003         9.06418173E-15
   10.6700001         6.70205968E-15
   10.6999998         3.86961030E-15
   10.7299995         6.43387221E-16
   10.7600002        -2.87737007E-15
   10.7900000        -6.57327891E-15
   10.8199997        -1.03084460E-14
   10.8500004        -1.39351125E-14
   10.8800001        -1.72991606E-14
   10.9099998        -2.02462762E-14
   10.9399996        -2.26285292E-14
   10.9700003        -2.43110839E-14
   11.0000000        -2.51787320E-14
   11.0299997        -2.51419640E-14
   11.0600004        -2.41422584E-14
   11.0900002        -2.21563253E-14
   11.1199999        -1.91990792E-14
   11.1499996        -1.53251604E-14
   11.1800003        -1.06288854E-14
   11.2100000        -5.24255711E-15
   11.2399998         6.66825258E-16
   11.2700005         6.90240838E-15
   11.3000002         1.32437320E-14
   11.3299999         1.94542055E-14
   11.3599997         2.52895595E-14
   11.3900003         3.05070266E-14
   11.4200001         3.48749316E-14
   11.4499998         3.81823377E-14
   11.4799995         4.02484612E-14
   11.5100002         4.09314171E-14
   11.5400000         4.01359820E-14
   11.5699997         3.78199804E-14
   11.6000004         3.39989437E-14
   11.6300001         2.87487590E-14
   11.6599998         2.22059953E-14
   11.6899996         1.45657259E-14
   11.7200003         6.07672914E-15
   11.7500000        -2.96593266E-15
   11.7799997        -1.22308449E-14
   11.8100004        -2.13624081E-14
   11.8400002        -2.99948698E-14
   11.8699999        -3.77676643E-14
   11.8999996        -4.43414091E-14
   11.9300003        -4.94138320E-14
   11.9600000        -5.27348178E-14
   11.9899998        -5.41197573E-14
   12.0200005        -5.34604574E-14
   12.0500002        -5.07329096E-14
   12.0799999        -4.60013971E-14
   12.1099997        -3.94185789E-14
   12.1400003        -3.12213837E-14
   12.1700001        -2.17228206E-14
   12.1999998        -1.12999582E-14
   12.2299995        -3.78599322E-16
   12.2600002         1.05846753E-14
   12.2900000         2.11222963E-14
   12.3199997         3.07764204E-14
   12.3500004         3.91196170E-14
   12.3800001         4.57746464E-14
   12.4099998         5.04324128E-14
   12.4399996         5.28673412E-14
   12.4700003         5.29494729E-14
   12.5000000         5.06528210E-14
   12.5299997         4.60595205E-14
   12.5600004         3.93595204E-14
   12.5900002         3.08457551E-14
   12.6199999         2.09047511E-14
   12.6499996         1.00028763E-14
   12.6800003        -1.33148889E-15
   12.7100000        -1.25294045E-14
   12.7399998        -2.30058028E-14
   12.7700005        -3.21861237E-14
   12.8000002        -3.95341922E-14
   12.8299999        -4.45801470E-14
   12.8599997        -4.69472449E-14
   12.8900003        -4.63760601E-14
   12.9200001        -4.27447249E-14
   12.9499998        -3.60838272E-14
   12.9799995        -2.65847847E-14
   13.0100002        -1.46005932E-14
   13.0400000        -6.38418367E-16
   13.0699997         1.46562670E-14
   13.1000004         3.05237369E-14
   13.1300001         4.61215369E-14
   13.1599998         6.05621713E-14
   13.1899996         7.29553137E-14
   13.2200003         8.24524910E-14
   13.2500000         8.82918955E-14
   13.2799997         8.98411120E-14
   13.3100004         8.66352617E-14
   13.3400002         7.84087083E-14
   13.3699999         6.51183819E-14
   13.3999996         4.69577041E-14
   13.4300003         2.43600425E-14
   13.4600000        -2.00827446E-15
   13.4899998        -3.12653176E-14
   13.5200005        -6.23404797E-14
   13.5500002        -9.40099778E-14
   13.5799999        -1.24939569E-13
   13.6099997        -1.53733092E-13
   13.6400003        -1.78985028E-13
   13.6700001        -1.99335760E-13
   13.6999998        -2.13527628E-13
   13.7299995        -2.20460125E-13
   13.7600002        -2.19242755E-13
   13.7900000        -2.09243403E-13
   13.8199997        -1.90130680E-13
   13.8500004        -1.61908220E-13
   13.8800001        -1.24938688E-13
   13.9099998        -7.99560545E-14
   13.9399996        -2.80640921E-14
   13.9700003         2.92803569E-14
   14.0000000         9.02999260E-14
   14.0299997         1.52945554E-13
   14.0600004         2.14960713E-13
   14.0900002         2.73959539E-13
   14.1199999         3.27516118E-13
   14.1499996         3.73261697E-13
   14.1800003         4.08985020E-13
   14.2100000         4.32731460E-13
   14.2399998         4.42895747E-13
   14.2700005         4.38303311E-13