  -10.0000000        -1.37838721E-30
  -9.97000027        -1.37838721E-30
  -9.93999958        -1.37838721E-30
  -9.90999985        -1.37838721E-30
  -9.88000011        -1.36398412E-30
  -9.85000038         4.15794980E-32
  -9.81999969         8.09808497E-31
  -9.78999996        -1.58142358E-31
  -9.76000023         1.75321578E-30
  -9.72999954         2.57061863E-30
  -9.69999981         2.79275095E-30
  -9.67000008         3.09066053E-30
  -9.64000034         2.52743322E-30
  -9.60999966         2.18387873E-30
  -9.57999992         2.28128207E-30
  -9.55000019         4.14948641E-30
  -9.52000046         5.70445855E-30
  -9.48999977         3.18221856E-30
  -9.46000004         1.27766898E-30
  -9.43000031        -3.40139202E-30
  -9.39999962        -3.59226560E-30
  -9.36999989        -6.22548805E-30
  -9.34000015        -5.76792471E-30
  -9.31000042        -5.25047059E-30
  -9.27999973        -7.59533055E-30
  -9.25000000        -5.26815078E-30
  -9.22000027        -5.03174927E-30
  -9.18999958        -2.16734263E-30
  -9.15999985         1.61391726E-30
  -9.13000011         3.50442476E-30
  -9.10000038         9.70873021E-30
  -9.06999969         1.29701256E-29
  -9.03999996         9.41870397E-30
  -9.01000023         9.80774633E-30
  -8.97999954         7.80259296E-30
  -8.94999981         3.15671541E-30
  -8.92000008         1.38446838E-30
  -8.89000034        -1.72895170E-30
  -8.85999966        -5.87205733E-30
  -8.82999992        -1.32359535E-29
  -8.80000019        -1.52076364E-29
  -8.77000046        -1.53294198E-29
  -8.73999977        -1.54478510E-29
  -8.71000004        -1.11347196E-29
  -8.68000031        -1.19886325E-29
  -8.64999962        -6.83953921E-30
  -8.61999989        -3.45549185E-30
  -8.59000015         4.73860543E-30
  -8.56000042         9.22840253E-30
  -8.52999973         1.06980345E-29
  -8.50000000         1.15838427E-29
  -8.47000027         1.52307054E-29
  -8.43999958         2.00323813E-29
  -8.40999985         1.75235777E-29
  -8.38000011         1.45462961E-29
  -8.35000038         5.76881921E-30
  -8.31999969         1.46839124E-30
  -8.28999996        -5.75871071E-30
  -8.26000023        -4.51106659E-30
  -8.22999954        -9.22865907E-30
  -8.19999981        -1.23411176E-29
  -8.17000008        -1.76072849E-29
  -8.14000034        -1.76784044E-29
  -8.10999966        -1.42537398E-29
  -8.07999992        -1.27576534E-29
  -8.05000019        -6.85373542E-30
  -8.02000046         2.52516668E-30
  -7.98999977         8.14838992E-30
  -7.96000004         1.11204113E-29
  -7.92999983         1.43946517E-29
  -7.90000010         1.59268930E-29
  -7.86999989         1.46142212E-29
  -7.84000015         1.41428454E-29
  -7.80999994         1.28839477E-29
  -7.78000021         1.17863888E-29
  -7.75000000         6.00589066E-30
  -7.71999979         2.32548743E-30
  -7.69000006        -2.36999992E-30
  -7.65999985        -8.18556262E-30
  -7.63000011        -9.11425958E-30
  -7.59999990        -1.16181415E-29
  -7.57000017        -1.42290021E-29
  -7.53999996        -1.11082644E-29
  -7.51000023        -8.68995013E-30
  -7.48000002        -2.65136682E-30
  -7.44999981         9.20446965E-31
  -7.42000008         7.06295837E-30
  -7.38999987         1.09778872E-29
  -7.36000013         1.15990553E-29
  -7.32999992         1.30499644E-29
  -7.30000019         1.09210414E-29
  -7.26999998         5.11521163E-30
  -7.23999977         1.02706759E-30
  -7.21000004        -1.03297110E-29
  -7.17999983        -2.20565487E-29
  -7.15000010        -2.94243818E-29
  -7.11999989        -3.23603807E-29
  -7.09000015        -2.93972833E-29
  -7.05999994        -2.24921519E-29
  -7.03000021        -1.27929912E-29
  -7.00000000        -9.06492531E-31
  -6.96999979         1.14777774E-29
  -6.94000006         2.39975039E-29
  -6.90999985         3.61270001E-29
  -6.88000011         4.16330082E-29
  -6.84999990         3.78324111E-29
  -6.82000017         2.55136877E-29
  -6.78999996         1.58497835E-29
  -6.76000023         2.86738939E-30
  -6.73000002        -1.17045233E-29
  -6.69999981        -2.40413098E-29
  -6.67000008        -3.36317111E-29
  -6.63999987        -3.14908113E-29
  -6.61000013        -3.16998409E-29
  -6.57999992        -1.99385554E-29
  -6.55000019        -1.09600122E-29
  -6.51999998        -4.09502510E-30
  -6.48999977        -2.16425625E-30
  -6.46000004         1.87641906E-30
  -6.42999983         2.41402962E-30
  -6.40000010         6.71095508E-31
  -6.36999989        -2.15663999E-31
  -6.34000015        -5.47595448E-30
  -6.30999994        -9.59384548E-30
  -6.28000021        -3.54635511E-30
  -6.25000000         7.35363311E-30
  -6.21999979         2.04696230E-29
  -6.19000006         3.33764472E-29
  -6.15999985         4.07463100E-29
  -6.13000011         3.91120622E-29
  -6.09999990         3.90981503E-29
  -6.07000017         3.92614090E-29
  -6.03999996         2.89163485E-29
  -6.01000023         1.66529249E-29
  -5.98000002         1.38331479E-30
  -5.94999981        -1.07619716E-29
  -5.92000008        -1.88303377E-29
  -5.88999987        -2.82718692E-29
  -5.86000013        -3.05598830E-29
  -5.82999992        -2.95322609E-29
  -5.80000019        -2.58870443E-29
  -5.76999998        -1.46763520E-29
  -5.73999977        -1.24931728E-29
  -5.71000004        -9.44619963E-30
  -5.67999983        -7.44692260E-30
  -5.65000010        -7.61093735E-30
  -5.61999989        -1.46679788E-29
  -5.59000015        -1.74456317E-29
  -5.55999994        -2.21024821E-29
  -5.53000021        -2.65954465E-29
  -5.50000000        -1.92569883E-29
  -5.46999979        -5.59665988E-30
  -5.44000006         9.12043836E-30
  -5.40999985         2.55381019E-29
  -5.38000011         4.45260408E-29
  -5.34999990         5.84769086E-29
  -5.32000017         6.66724687E-29
  -5.28999996         6.34897491E-29
  -5.26000023         5.40153715E-29
  -5.23000002         3.32412409E-29
  -5.19999981         6.09816941E-30
  -5.17000008        -1.44977296E-29
  -5.13999987        -3.65361339E-29
  -5.11000013        -5.07023507E-29
  -5.07999992        -5.36789958E-29
  -5.05000019        -5.05747338E-29
  -5.01999998        -4.00651146E-29
  -4.98999977        -1.97473376E-29
  -4.96000004         7.46664043E-31
  -4.92999983         1.51777634E-29
  -4.90000010         2.19855691E-29
  -4.86999989         1.56391696E-29
  -4.84000015         2.52894519E-30
  -4.80999994        -2.08983426E-29
  -4.78000021        -3.41504363E-29
  -4.75000000        -4.62605123E-29
  -4.71999979        -5.05397902E-29
  -4.69000006        -4.70316215E-29
  -4.65999985        -3.21882116E-29
  -4.63000011        -7.57886610E-30
  -4.59999990         2.66587012E-29
  -4.57000017         5.92130472E-29
  -4.53999996         8.39565104E-29
  -4.51000023         1.01067062E-28
  -4.48000002         1.02973480E-28
  -4.44999981         8.07331175E-29
  -4.42000008         5.25011753E-29
  -4.38999987         9.47651046E-30
  -4.36000013        -3.88033416E-29
  -4.32999992        -9.03751775E-29
  -4.30000019        -1.43888345E-28
  -4.26999998        -1.80942695E-28
  -4.23999977        -2.03277500E-28
  -4.21000004        -2.14331953E-28
  -4.17999983        -2.14664368E-28
  -4.15000010        -2.07869061E-28
  -4.11999989        -1.80933715E-28
  -4.09000015        -1.42580710E-28
  -4.05999994        -8.96052509E-29
  -4.03000021        -4.59239575E-30
  -4.00000000         1.10414804E-28
  -3.97000003         2.58256806E-28
  -3.94000006         4.39430865E-28
  -3.91000009         6.47380599E-28
  -3.88000011         8.78782671E-28
  -3.84999990         1.10653766E-27
  -3.81999993         1.30480810E-27
  -3.78999996         1.46254610E-27
  -3.75999999         1.54186379E-27
  -3.73000002         1.51383072E-27
  -3.70000005         1.35740977E-27
  -3.67000008         1.04104805E-27
  -3.64000010         5.52519690E-28
  -3.60999990        -1.07925852E-28
  -3.57999992        -9.50079345E-28
  -3.54999995        -1.94956130E-27
  -3.51999998        -3.08438605E-27
  -3.49000001        -4.31119534E-27
  -3.46000004        -5.58074871E-27
  -3.43000007        -6.83805433E-27
  -3.40000010        -7.99810279E-27
  -3.36999989        -8.97896273E-27
  -3.33999991        -9.68391549E-27
  -3.30999994        -9.99409190E-27
  -3.27999997        -9.78028441E-27
  -3.25000000        -8.90278527E-27
  -3.22000003        -7.20943448E-27
  -3.19000006        -4.55759573E-27
  -3.16000009        -8.15975495E-28
  -3.13000011         4.13854458E-27
  -3.09999990         1.03908088E-26
  -3.06999993         1.79623412E-26
  -3.03999996         2.68079156E-26
  -3.00999999         3.67737495E-26
  -2.98000002         4.75710366E-26
  -2.95000005         5.87528688E-26
  -2.92000008         6.96814211E-26
  -2.89000010         7.94993066E-26
  -2.85999990         8.71231111E-26
  -2.82999992         9.12359545E-26
  -2.79999995         9.02908622E-26
  -2.76999998         8.25689678E-26
  -2.74000001         6.62330020E-26
  -2.71000004         3.94331167E-26
  -2.68000007         4.84256355E-28
  -2.65000010        -5.19569369E-26
  -2.61999989        -1.18648440E-25
  -2.58999991        -1.99476089E-25
  -2.55999994        -2.93135733E-25
  -2.52999997        -3.96806354E-25
  -2.50000000        -5.05849857E-25
  -2.47000003        -6.13528533E-25
  -2.44000006        -7.10838963E-25
  -2.41000009        -7.86483969E-25
  -2.38000011        -8.26997104E-25
  -2.34999990        -8.17187766E-25
  -2.31999993        -7.40816811E-25
  -2.28999996        -5.81647606E-25
  -2.25999999        -3.24851639E-25
  -2.23000002         4.12663093E-26
  -2.20000005         5.23183202E-25
  -2.17000008         1.11992334E-24
  -2.14000010         1.82068624E-24
  -2.10999990         2.60264836E-24
  -2.07999992         3.42909592E-24
  -2.04999995         4.24817927E-24
  -2.01999998         4.99269041E-24
  -1.99000001         5.58097397E-24
  -1.96000004         5.91949943E-24
  -1.92999995         5.90710563E-24
  -1.89999998         5.44114561E-24
  -1.87000000         4.42548483E-24
  -1.84000003         2.78020635E-24
  -1.80999994         4.52513985E-25
  -1.77999997        -2.57160569E-24
  -1.75000000        -6.25589378E-24
  -1.72000003        -1.05034282E-23
  -1.69000006        -1.51485086E-23
  -1.65999997        -1.99519820E-23
  -1.63000000        -2.46012064E-23
  -1.60000002        -2.87157802E-23
  -1.57000005        -3.18596938E-23
  -1.53999996        -3.35606294E-23
  -1.50999999        -3.33361007E-23
  -1.48000002        -3.07261796E-23
  -1.45000005        -2.53314943E-23
  -1.41999996        -1.68547690E-23
  -1.38999999        -5.14365394E-24
  -1.36000001         9.76797234E-24
  -1.33000004         2.76234413E-23
  -1.29999995         4.79144648E-23
  -1.26999998         6.98637558E-23
  -1.24000001         9.24214101E-23
  -1.21000004         1.14277849E-22
  -1.17999995         1.33894788E-22
  -1.14999998         1.49555153E-22
  -1.12000000         1.59431528E-22
  -1.09000003         1.61672082E-22
  -1.05999994         1.54501703E-22
  -1.02999997         1.36335385E-22
  -1.00000000         1.05899970E-22
 -0.970000029         6.23598585E-23
 -0.939999998         5.44233285E-24
 -0.910000026        -6.44434357E-23
 -0.879999995        -1.46097355E-22
 -0.850000024        -2.37437086E-22
 -0.819999993        -3.35427999E-22
 -0.790000021        -4.36041919E-22
 -0.759999990        -5.34252602E-22
 -0.730000019        -6.24073794E-22
 -0.699999988        -6.98650256E-22
 -0.670000017        -7.50411093E-22
 -0.639999986        -7.71295737E-22
 -0.610000014        -7.53060807E-22
 -0.579999983        -6.87678753E-22
 -0.550000012        -5.67829905E-22
 -0.519999981        -3.87489461E-22
 -0.490000010        -1.42603724E-22
 -0.460000008         1.68163966E-22
 -0.430000007         5.42646688E-22
 -0.400000006         9.74383017E-22
 -0.370000005         1.45188504E-21
 -0.340000004         1.95802880E-21
 -0.310000002         2.46965071E-21
 -0.280000001         2.95744251E-21
 -0.250000000         3.38622519E-21
 -0.219999999         3.71571066E-21
 -0.189999998         3.90181014E-21
 -0.159999996         3.89854544E-21
 -0.129999995         3.66058723E-21
 -0.100000001         3.14640098E-21
  -7.00000003E-02     2.32190991E-21
  -3.99999991E-02     1.16454944E-21
  -9.99999978E-03    -3.32464734E-22
   1.99999996E-02    -2.15596125E-21
   5.00000007E-02    -4.26897696E-21
   7.99999982E-02    -6.60767100E-21
  0.109999999        -9.07933151E-21
  0.140000001        -1.15618782E-20
  0.170000002        -1.39052098E-20
  0.200000003        -1.59346813E-20
  0.230000004        -1.74569683E-20
  0.259999990        -1.82683485E-20
  0.289999992        -1.81654242E-20
  0.319999993        -1.69579683E-20
  0.349999994        -1.44835900E-20
  0.379999995        -1.06235477E-20
  0.409999996        -5.31890664E-21
  0.439999998         1.41382373E-21
  0.469999999         9.46871708E-21
  0.500000000         1.86393018E-20
  0.529999971         2.86114116E-20
  0.560000002         3.89612602E-20
  0.589999974         4.91597057E-20
  0.620000005         5.85835935E-20
  0.649999976         6.65347637E-20
  0.680000007         7.22668281E-20
  0.709999979         7.50198144E-20
  0.740000010         7.40614869E-20
  0.769999981         6.87346893E-20
  0.800000012         5.85085721E-20
  0.829999983         4.30317352E-20
  0.860000014         2.21843701E-20
  0.889999986        -3.87371064E-21
  0.920000017        -3.46621215E-20
  0.949999988        -6.93504413E-20
  0.980000019        -1.06742546E-19
   1.00999999        -1.45279256E-19
   1.03999996        -1.83060666E-19
   1.07000005        -2.17891781E-19
   1.10000002        -2.47351172E-19
   1.13000000        -2.68883666E-19
   1.15999997        -2.79915541E-19
   1.19000006        -2.77989270E-19
   1.22000003        -2.60914530E-19
   1.25000000        -2.26928522E-19
   1.27999997        -1.74861096E-19
   1.30999994        -1.04293239E-19
   1.34000003        -1.57037170E-20
   1.37000000         8.94089378E-20
   1.39999998         2.08436422E-19
   1.42999995         3.37613095E-19
   1.46000004         4.72019863E-19
   1.49000001         6.05645411E-19
   1.51999998         7.31512315E-19
   1.54999995         8.41869686E-19
   1.58000004         9.28453679E-19
   1.61000001         9.82815472E-19
   1.63999999         9.96708487E-19
   1.66999996         9.62528144E-19
   1.70000005         8.73791826E-19
   1.73000002         7.25641401E-19
   1.75999999         5.15352340E-19
   1.78999996         2.42823625E-19
   1.82000005        -8.89744677E-20
   1.85000002        -4.73627747E-19
   1.88000000        -9.00999141E-19
   1.90999997        -1.35709092E-18
   1.94000006        -1.82406270E-18
   1.97000003        -2.28044555E-18
   2.00000000        -2.70156981E-18
   2.02999997        -3.06023388E-18
   2.05999994        -3.32761960E-18
   2.08999991        -3.47445801E-18
   2.11999989        -3.47244135E-18
   2.15000010        -3.29583891E-18
   2.18000007        -2.92329247E-18
   2.21000004        -2.33970621E-18
   2.24000001        -1.53817089E-18
   2.26999998        -5.21799903E-19
   2.29999995         6.94626108E-19
   2.32999992         2.08335095E-18
   2.35999990         3.60279260E-18
   2.39000010         5.19731724E-18
   2.42000008         6.79773553E-18
   2.45000005         8.32265623E-18
   2.48000002         9.68075692E-18
   2.50999999         1.07740300E-17
   2.53999996         1.15019522E-17
   2.56999993         1.17665441E-17
   2.59999990         1.14781269E-17
   2.63000011         1.05615728E-17
   2.66000009         8.96278649E-18
   2.69000006         6.65503736E-18
   2.72000003         3.64474307E-18
   2.75000000        -2.36699009E-20
   2.77999997        -4.26433361E-18
   2.80999994        -8.94827360E-18
   2.83999991        -1.39038936E-17
   2.86999989        -1.89199318E-17
   2.90000010        -2.37509312E-17
   2.93000007        -2.81254345E-17
   2.96000004        -3.17565920E-17
   2.99000001        -3.43550839E-17
   3.01999998        -3.56437188E-17
   3.04999995        -3.53733366E-17
   3.07999992        -3.33391341E-17
   3.10999990        -2.93966424E-17
   3.14000010        -2.34765372E-17
   3.17000008        -1.55973226E-17
   3.20000005        -5.87505650E-18
   3.23000002         5.47053044E-18
   3.25999999         1.81143141E-17
   3.28999996         3.16287860E-17
   3.31999993         4.54921875E-17
   3.34999990         5.91016379E-17
   3.38000011         7.17913230E-17
   3.41000009         8.28552475E-17
   3.44000006         9.15739363E-17
   3.47000003         9.72446564E-17
   3.50000000         9.92138426E-17
   3.52999997         9.69112233E-17
   3.55999994         8.98842048E-17
   3.58999991         7.78315149E-17
   3.61999989         6.06347609E-17
   3.65000010         3.83867126E-17
   3.68000007         1.14146938E-17
   3.71000004        -1.97019880E-17
   3.74000001        -5.41228311E-17
   3.76999998        -9.07458160E-17
   3.79999995        -1.28218554E-16
   3.82999992        -1.64961136E-16
   3.85999990        -1.99203356E-16
   3.89000010        -2.29036174E-16
   3.92000008        -2.52477996E-16
   3.95000005        -2.67556215E-16
   3.98000002        -2.72401296E-16
   4.01000023        -2.65352817E-16
   4.03999996        -2.45072943E-16
   4.07000017        -2.10662692E-16
   4.09999990        -1.61775101E-16
   4.13000011        -9.87188180E-17
   4.15999985        -2.25436826E-17
   4.19000006         6.49002335E-17
   4.21999979         1.60937332E-16
   4.25000000         2.62082635E-16
   4.28000021         3.64106271E-16
   4.30999994         4.62149170E-16
   4.34000015         5.50891541E-16
   4.36999989         6.24771767E-16
   4.40000010         6.78251998E-16
   4.42999983         7.06117052E-16
   4.46000004         7.03796923E-16
   4.48999977         6.67695320E-16
   4.51999998         5.95503761E-16
   4.55000019         4.86482521E-16
   4.57999992         3.41686632E-16
   4.61000013         1.64115466E-16
   4.63999987        -4.12290276E-17
   4.67000008        -2.67390408E-16
   4.69999981        -5.05620648E-16
   4.73000002        -7.45657556E-16
   4.76000023        -9.76114522E-16
   4.78999996        -1.18496468E-15
   4.82000017        -1.36010727E-15
   4.84999990        -1.48998082E-15
   4.88000011        -1.56419859E-15
   4.90999985        -1.57417103E-15
   4.94000006        -1.51367583E-15
   4.96999979        -1.37934329E-15
   5.00000000        -1.17102707E-15
   5.03000021        -8.92032737E-16
   5.05999994        -5.49182917E-16
   5.09000015        -1.52716401E-16
   5.11999989         2.83987039E-16
   5.15000010         7.44841069E-16
   5.17999983         1.21163288E-15
   5.21000004         1.66471716E-15
   5.23999977         2.08379846E-15
   5.26999998         2.44876251E-15
   5.30000019         2.74051877E-15
   5.32999992         2.94182547E-15
   5.36000013         3.03805244E-15
   5.38999987         3.01786828E-15
   5.42000008         2.87381847E-15
   5.44999981         2.60278613E-15
   5.48000002         2.20632241E-15
   5.51000023         1.69084315E-15
   5.53999996         1.06768556E-15
   5.57000017         3.53031395E-16
   5.59999990        -4.32312540E-16
   5.63000011        -1.26328368E-15
   5.65999985        -2.11107356E-15
   5.69000006        -2.94381261E-15
   5.71999979        -3.72741295E-15
   5.75000000        -4.42660435E-15
   5.78000021        -5.00614387E-15
   5.80999994        -5.43220821E-15
   5.84000015        -5.67393617E-15
   5.86999989        -5.70508411E-15
   5.90000010        -5.50573364E-15
   5.92999983        -5.06396657E-15
   5.96000004        -4.37739258E-15
   5.98999977        -3.45442800E-15
   6.01999998        -2.31515873E-15
   6.05000019        -9.91706281E-16
   6.07999992         4.72064696E-16
   6.11000013         2.02155403E-15
   6.13999987         3.59320058E-15
   6.17000008         5.11701624E-15
   6.19999981         6.51981207E-15
   6.23000002         7.72896219E-15
   6.26000023         8.67653202E-15
   6.28999996         9.30348294E-15
   6.32000017         9.56369315E-15
   6.34999990         9.42745637E-15
   6.38000011         8.88417707E-15
   6.40999985         7.94398659E-15
   6.44000006         6.63809641E-15
   6.46999979         5.01776431E-15
   6.50000000         3.15187588E-15
   6.53000021         1.12326797E-15
   6.55999994        -9.76007584E-16
   6.59000015        -3.05014023E-15
   6.61999989        -5.00534003E-15
   6.65000010        -6.75551720E-15
   6.67999983        -8.22740805E-15
   6.71000004        -9.36475984E-15
   6.73999977        -1.01312518E-14
   6.76999998        -1.05119321E-14
   6.80000019        -1.05131273E-14
   6.82999992        -1.01608167E-14
   6.86000013        -9.49773893E-15
   6.88999987        -8.57946035E-15
   6.92000008        -7.46978027E-15
   6.94999981        -6.23591416E-15
   6.98000002        -4.94382765E-15
   7.01000023        -3.65394894E-15
   7.03999996        -2.41768720E-15
   7.07000017        -1.27477135E-15
   7.09999990        -2.51464389E-16
   7.13000011         6.40366120E-16
   7.15999985         1.40342369E-15
   7.19000006         2.05459552E-15
   7.21999979         2.62403290E-15
   7.25000000         3.15381474E-15
   7.28000021         3.69615278E-15
   7.30999994         4.31092802E-15
   7.34000015         5.06253000E-15
   7.36999989         6.01562333E-15
   7.40000010         7.22976587E-15
   7.42999983         8.75267435E-15
   7.46000004         1.06123581E-14
   7.48999977         1.28084434E-14
   7.51999998         1.53032020E-14
   7.55000019         1.80133516E-14
   7.57999992         2.08037289E-14
   7.61000013         2.34840562E-14
   7.63999987         2.58103170E-14
   7.67000008         2.74915809E-14
   7.69999981         2.82033172E-14
   7.73000002         2.76074058E-14
   7.76000023         2.53781202E-14
   7.78999996         2.12332559E-14
   7.82000017         1.49680056E-14
   7.84999990         6.48919607E-15
   7.88000011        -4.15378054E-15
   7.90999985        -1.67444031E-14
   7.94000006        -3.08844577E-14
   7.96999979        -4.59924897E-14
   8.00000000        -6.13169183E-14
   8.02999973        -7.59652012E-14
   8.06000042        -8.89481698E-14
   8.09000015        -9.92376008E-14
   8.11999989        -1.05833690E-13
   8.14999962        -1.07837445E-13
   8.18000031        -1.04523114E-13
   8.21000004        -9.54039636E-14
   8.23999977        -8.02865532E-14
   8.27000046        -5.93081695E-14
   8.30000019        -3.29541963E-14
   8.32999992        -2.05311151E-15
   8.35999966         3.22503797E-14
   8.39000034         6.85427667E-14
   8.42000008         1.05205910E-13
   8.44999981         1.40493032E-13
   8.47999954         1.72611532E-13
   8.51000023         1.99807280E-13
   8.53999996         2.20444146E-13
   8.56999969         2.33076769E-13
   8.60000038         2.36512443E-13
   8.63000011         2.29862218E-13
   8.65999985         2.12580902E-13
   8.68999958         1.84498453E-13
   8.72000027         1.45843868E-13
   8.75000000         9.72642648E-14
   8.77999973         3.98393036E-14
   8.81000042        -2.49087148E-14
   8.84000015        -9.50114146E-14
   8.86999989        -1.68062070E-13
   8.89999962        -2.41239130E-13
   8.93000031        -3.11353536E-13
   8.96000004        -3.74924159E-13
   8.98999977        -4.28289077E-13
   9.02000046        -4.67753006E-13
   9.05000019        -4.89772123E-13
   9.07999992        -4.91170039E-13
   9.10999966        -4.69375623E-13
   9.14000034        -4.22668004E-13
   9.17000008        -3.50410158E-13
   9.19999981        -2.53249841E-13
   9.22999954        -1.33267664E-13
   9.26000023         5.94961744E-15
   9.28999996         1.59327629E-13
   9.31999969         3.20424243E-13
   9.35000038         4.81655568E-13
   9.38000011         6.34622292E-13
   9.40999985         7.70525841E-13
   9.43999958         8.80646576E-13
   9.47000027         9.56862844E-13
   9.50000000         9.92171189E-13
   9.52999973         9.81175102E-13
   9.56000042         9.20507702E-13
   9.59000015         8.09158188E-13
   9.61999989         6.48672847E-13
   9.64999962         4.43222011E-13
   9.68000031         1.99520630E-13
   9.71000004        -7.33935414E-14
   9.73999977        -3.64509800E-13
   9.77000046        -6.61302339E-13
   9.80000019        -9.50271979E-13
   9.82999992        -1.21753855E-12
   9.85999966        -1.44945546E-12
   9.89000034        -1.63322079E-12
   9.92000008        -1.75744478E-12
   9.94999981        -1.81267284E-12
   9.97999954        -1.79182938E-12
   10.0100002        -1.69057953E-12
   10.0400000        -1.50760199E-12
   10.0699997        -1.24476655E-12
   10.1000004        -9.07218907E-13
   10.1300001        -5.03365470E-13
   10.1599998        -4.47662706E-14
   10.1899996         4.54068125E-13
   10.2200003         9.75982858E-13
   10.2500000         1.50158423E-12
   10.2799997         2.00975001E-12
   10.3100004         2.47824287E-12
   10.3400002         2.88443314E-12
   10.3699999         3.20610986E-12
   10.3999996         3.42238087E-12
   10.4300003         3.51463021E-12
   10.4600000         3.46751469E-12
   10.4899998         3.26994421E-12
   10.5200005         2.91602441E-12
   10.5500002         2.40588105E-12
   10.5799999         1.74632737E-12
   10.6099997         9.51313247E-13
   10.6400003         4.20817657E-14
   10.6700001        -9.52990941E-13
   10.6999998        -1.99893943E-12
   10.7299995        -3.05513535E-12
   10.7600002        -4.07661578E-12
   10.7900000        -5.01577946E-12
   10.8199997        -5.82441127E-12
   10.8500004        -6.45593821E-12
   10.8800001        -6.86783269E-12
   10.9099998        -7.02402980E-12
   10.9399996        -6.89719636E-12
   10.9700003        -6.47074755E-12
   11.0000000        -5.74041162E-12
   11.0299997        -4.71527808E-12
   11.0600004        -3.41817351E-12
   11.0900002        -1.88535364E-12
   11.1199999        -1.65472155E-13
   11.1499996         1.68212265E-12
   11.1800003         3.58967587E-12
   11.2100000         5.48376839E-12
   11.2399998         7.28835308E-12
   11.2700005         8.92788881E-12
   11.3000002         1.03303971E-11
   11.3299999         1.14303090E-11
   11.3599997         1.21709014E-11
   11.3900003         1.25063015E-11
   11.4200001         1.24030118E-11
   11.4499998         1.18409432E-11
   11.4799995         1.08140719E-11
   11.5100002         9.33076966E-12
   11.5400000         7.41390629E-12
   11.5699997         5.10084553E-12
   11.6000004         2.44334869E-12
   11.6300001        -4.92590777E-13
   11.6599998        -3.62709428E-12
   11.6899996        -6.86698398E-12
   11.7200003        -1.01068390E-11
   11.7500000        -1.32306926E-11
   11.7799997        -1.61146010E-11
   11.8100004        -1.86301703E-11
   11.8400002        -2.06491942E-11
   11.8699999        -2.20492756E-11
   11.8999996        -2.27203222E-11
   11.9300003        -2.25715367E-11
   11.9600000        -2.15384464E-11
   11.9899998        -1.95894984E-11
   12.0200005        -1.67314686E-11
   12.0500002        -1.30132051E-11
   12.0799999        -8.52712952E-12
   12.1099997        -3.40815527E-12
   12.1400003         2.17021323E-12
   12.1700001         8.00244333E-12
   12.1999998         1.38599731E-11
   12.2299995         1.95020007E-11
   12.2600002         2.46874101E-11
   12.2900000         2.91869029E-11
   12.3199997         3.27944477E-11
   12.3500004         3.53372470E-11
   12.3800001         3.66835173E-11
   12.4099998         3.67476605E-11
   12.4399996         3.54925846E-11
   12.4700003         3.29294161E-11
   12.5000000         2.91148772E-11
   12.5299997         2.41469848E-11
   12.5600004         1.81597220E-11
   12.5900002         1.13174435E-11
   12.6199999         3.80963880E-12
   12.6499996        -4.15360801E-12
   12.6800003        -1.23452533E-11
   12.7100000        -2.05241362E-11
   12.7399998        -2.84375370E-11
   12.7700005        -3.58239272E-11
   12.8000002        -4.24167611E-11
   12.8299999        -4.79499877E-11
   12.8599997        -5.21656364E-11
   12.8900003        -5.48240134E-11
   12.9200001        -5.57159978E-11
   12.9499998        -5.46771517E-11
   12.9799995        -5.16023786E-11
   13.0100002        -4.64600164E-11
   13.0400000        -3.93034910E-11
   13.0699997        -3.02793554E-11
   13.1000004        -1.96299314E-11
   13.1300001        -7.68976462E-12
   13.1599998         5.12458045E-12
   13.1899996         1.83312913E-11
   13.2200003         3.14057565E-11
   13.2500000         4.38070170E-11
   13.2799997         5.50064508E-11
   13.3100004         6.45162188E-11
   13.3400002         7.19152238E-11
   13.3699999         7.68704891E-11
   13.3999996         7.91522126E-11
   13.4300003         7.86418292E-11
   13.4600000         7.53326290E-11
   13.4899998         6.93238106E-11
   13.5200005         6.08090522E-11
   13.5500002         5.00616770E-11
   13.5799999         3.74183011E-11
   13.6099997         2.32629298E-11
   13.6400003         8.01328188E-12
   13.6700001        -7.88985977E-12
   13.6999998        -2.39897390E-11
   13.7299995        -3.98180100E-11
   13.7600002        -5.48974095E-11
   13.7900000        -6.87445170E-11
   13.8199997        -8.08747305E-11
   13.8500004        -9.08109976E-11
   13.8800001        -9.80978215E-11
   13.9099998        -1.02320923E-10
   13.9399996        -1.03132045E-10
   13.9700003        -1.00277293E-10
   14.0000000        -9.36266342E-11
   14.0299997        -8.32007727E-11
   14.0600004        -6.91921381E-11
   14.0900002        -5.19763989E-11
   14.1199999        -3.21115461E-11
   14.1499996        -1.03226767E-11
   14.1800003         1.25277037E-11
   14.2100000         3.54826203E-11
   14.2399998         5.75440078E-11
   14.2700005         7.77321818E-11