 -0.449999988       0.00000000    
 -0.446999997       0.00000000    
 -0.444000006       0.00000000    
 -0.441000015       0.00000000    
 -0.437999994       0.00000000    
 -0.435000002       0.00000000    
 -0.432000011       0.00000000    
 -0.428999990       0.00000000    
 -0.425999999       0.00000000    
 -0.423000008       0.00000000    
 -0.419999987       0.00000000    
 -0.416999996      -5.01138859E-37
 -0.414000005      -4.71330510E-36
 -0.411000013      -1.27197845E-35
 -0.407999992      -3.42222623E-35
 -0.405000001      -3.00731346E-35
 -0.402000010       5.35681684E-34
 -0.398999989       2.53820289E-33
 -0.395999998       1.83122202E-33
 -0.393000007      -1.84150168E-32
 -0.389999986      -5.73120852E-32
 -0.386999995       5.63881812E-33
 -0.384000003       3.64762809E-31
 -0.381000012       6.27691179E-31
 -0.377999991      -8.03316571E-31
 -0.375000000      -4.21361837E-30
 -0.372000009      -2.74005420E-30
 -0.368999988       1.33072054E-29
 -0.365999997       2.79705093E-29
 -0.363000005      -1.33507239E-29
 -0.360000014      -1.12407768E-28
 -0.356999993      -8.29329929E-29
 -0.354000002       2.69595237E-28
 -0.351000011       5.41106051E-28
 -0.347999990      -2.57250868E-28
 -0.344999999      -1.82941928E-27
 -0.342000008      -1.00657130E-27
 -0.338999987       4.10898001E-27
 -0.335999995       6.03185928E-27
 -0.333000004      -6.78006997E-27
 -0.330000013      -2.15321448E-26
 -0.326999992       7.61436510E-27
 -0.324000001       8.07951339E-26
 -0.321000010       4.80633536E-26
 -0.317999989      -2.54194797E-25
 -0.314999998      -5.20601014E-25
 -0.312000006       1.80464505E-25
 -0.308999985       2.11835383E-24
 -0.305999994       2.71763824E-24
 -0.303000003      -2.58700229E-24
 -0.300000012      -1.27850805E-23
 -0.296999991      -1.29393028E-23
 -0.294000000       1.67251465E-23
 -0.291000009       6.46270889E-23
 -0.287999988       5.88702786E-23
 -0.284999996      -8.03787984E-23
 -0.282000005      -2.88019756E-22
 -0.279000014      -2.58434771E-22
 -0.275999993       3.16812977E-22
 -0.273000002       1.15868405E-21
 -0.270000011       1.08732619E-21
 -0.266999990      -1.05038256E-21
 -0.263999999      -4.25919861E-21
 -0.261000007      -4.34266833E-21
 -0.257999986       2.87732474E-21
 -0.254999995       1.43908424E-20
 -0.252000004       1.63445267E-20
 -0.248999998      -5.87515168E-21
 -0.246000007      -4.47411492E-20
 -0.243000001      -5.76904711E-20
 -0.239999995       4.30083351E-21
 -0.237000003       1.27465288E-19
 -0.233999997       1.90263147E-19
 -0.231000006       3.60407989E-20
 -0.228000000      -3.28957167E-19
 -0.224999994      -5.84111832E-19
 -0.222000003      -2.55761893E-19
 -0.218999997       7.49656470E-19
 -0.216000006       1.66096978E-18
 -0.213000000       1.13199636E-18
 -0.209999993      -1.41672061E-18
 -0.207000002      -4.33953053E-18
 -0.203999996      -4.06834805E-18
 -0.201000005       1.77071162E-18
 -0.197999999       1.02604211E-17
 -0.194999993       1.26806043E-17
 -0.192000002       1.04007995E-18
 -0.188999996      -2.12650533E-17
 -0.186000004      -3.49593063E-17
 -0.182999998      -1.66751224E-17
 -0.180000007       3.56640079E-17
 -0.177000001       8.49340119E-17
 -0.173999995       7.09335102E-17
 -0.171000004      -3.53267829E-17
 -0.167999998      -1.76883098E-16
 -0.165000007      -2.18131352E-16
 -0.162000000      -4.54855832E-17
 -0.158999994       2.92798220E-16
 -0.156000003       5.37773807E-16
 -0.152999997       3.69208983E-16
 -0.150000006      -2.91514991E-16
 -0.147000000      -1.05795283E-15
 -0.143999994      -1.21141784E-15
 -0.141000003      -2.45775530E-16
 -0.137999997       1.51135856E-15
 -0.135000005       2.78242043E-15
 -0.131999999       2.09374728E-15
 -0.128999993      -9.13098341E-16
 -0.126000002      -4.60691225E-15
 -0.123000003      -5.95172910E-15
 -0.119999997      -2.64545055E-15
 -0.116999999       4.49160735E-15
 -0.114000000       1.09340315E-14
 -0.111000001       1.08999681E-14
 -0.108000003       1.82127838E-15
 -0.104999997      -1.23027046E-14
 -0.101999998      -2.19072875E-14
  -9.89999995E-02  -1.77989879E-14
  -9.60000008E-02   1.35847748E-15
  -9.30000022E-02   2.56520997E-14
  -9.00000036E-02   3.84506710E-14
  -8.69999975E-02   2.72792602E-14
  -8.39999989E-02  -5.93608186E-15
  -8.10000002E-02  -4.32009537E-14
  -7.80000016E-02  -6.01990043E-14
  -7.50000030E-02  -4.20907782E-14
  -7.19999969E-02   5.26266017E-15
  -6.89999983E-02   5.70634509E-14
  -6.59999996E-02   8.39327522E-14
  -6.30000010E-02   6.93763962E-14
  -5.99999987E-02   1.86400086E-14
  -5.70000000E-02  -4.60924328E-14
  -5.40000014E-02  -9.88382214E-14
  -5.09999990E-02  -1.20566155E-13
  -4.80000004E-02  -1.01127433E-13
  -4.50000018E-02  -3.61113388E-14
  -4.19999994E-02   7.14353706E-14
  -3.90000008E-02   1.99634810E-13
  -3.59999985E-02   2.95736742E-13
  -3.29999998E-02   2.82470472E-13
  -2.99999993E-02   9.57748217E-14
  -2.70000007E-02  -2.56306451E-13
  -2.40000002E-02  -6.49783612E-13
  -2.09999997E-02  -8.59788965E-13
  -1.79999992E-02  -6.55076416E-13
  -1.49999997E-02   5.47038374E-14
  -1.20000001E-02   1.09167395E-12
  -8.99999961E-03   1.99088380E-12
  -6.00000005E-03   2.14708286E-12
  -3.00000003E-03   1.11014214E-12
   5.55111512E-17  -1.07883114E-12
   3.00000003E-03  -3.68625009E-12
   6.00000005E-03  -5.39536081E-12
   8.99999961E-03  -4.80350915E-12
   1.20000001E-02  -1.19471251E-12
   1.49999997E-02   4.74052264E-12
   1.79999992E-02   1.06858628E-11
   2.09999997E-02   1.33269637E-11
   2.40000002E-02   9.81139909E-12
   2.70000007E-02  -4.78433699E-13
   2.99999993E-02  -1.47395377E-11
   3.29999998E-02  -2.70213279E-11
   3.59999985E-02  -3.02752684E-11
   3.90000008E-02  -1.96060668E-11
   4.19999994E-02   4.63844501E-12
   4.50000018E-02   3.55145080E-11
   4.80000004E-02   6.08773101E-11
   5.09999990E-02   6.74103967E-11
   5.40000014E-02   4.60245106E-11
   5.70000000E-02  -3.29403562E-12
   5.99999987E-02  -6.90437360E-11
   6.30000010E-02  -1.29410843E-10
   6.59999996E-02  -1.57472688E-10
   6.89999983E-02  -1.29801669E-10
   7.19999969E-02  -3.67776053E-11
   7.50000030E-02   1.08358336E-10
   7.80000016E-02   2.65761829E-10
   8.10000002E-02   3.74616699E-10
   8.39999989E-02   3.70125097E-10
   8.69999975E-02   2.09445142E-10
   9.00000036E-02  -1.01323054E-10
   9.30000022E-02  -4.90952223E-10
   9.60000008E-02  -8.29111946E-10
   9.89999995E-02  -9.59770485E-10
  0.101999998      -7.56449792E-10
  0.104999997      -1.82661664E-10
  0.108000003       6.65711319E-10
  0.111000001       1.55755131E-09
  0.114000000       2.17394636E-09
  0.116999999       2.20014540E-09
  0.119999997       1.43917811E-09
  0.123000003      -8.74080044E-11
  0.126000002      -2.08830619E-09
  0.128999993      -4.02809386E-09
  0.131999999      -5.23805843E-09
  0.135000005      -5.09584819E-09
  0.137999997      -3.23372085E-09
  0.141000003       2.80907742E-10
  0.143999994       4.85139529E-09
  0.147000000       9.38960021E-09
  0.150000006       1.25032615E-08
  0.152999997       1.28149766E-08
  0.156000003       9.35775812E-09
  0.158999994       1.96138927E-09
  0.162000000      -8.47415293E-09
  0.165000007      -1.99203800E-08
  0.167999998      -2.94519999E-08
  0.171000004      -3.37874049E-08
  0.173999995      -3.00765173E-08
  0.177000001      -1.67879026E-08
  0.180000007       5.51888135E-09
  0.182999998       3.37664545E-08
  0.186000004       6.24627319E-08
  0.188999996       8.44153334E-08
  0.192000002       9.20079515E-08
  0.194999993       7.88657033E-08
  0.197999999       4.16422949E-08
  0.201000005      -1.83955802E-08
  0.203999996      -9.43395690E-08
  0.207000002      -1.73516483E-07
  0.209999993      -2.38563871E-07
  0.213000000      -2.69854723E-07
  0.216000006      -2.49168238E-07
  0.218999997      -1.64166323E-07
  0.222000003      -1.28869724E-08
  0.224999994       1.92772404E-07
  0.228000000       4.25627576E-07
  0.231000006       6.44636657E-07
  0.233999997       7.99498537E-07
  0.237000003       8.38107667E-07
  0.239999995       7.15930696E-07
  0.243000001       4.05875397E-07
  0.246000007      -9.30255126E-08
  0.248999998      -7.49737978E-07
  0.252000004      -1.49939740E-06
  0.254999995      -2.24612381E-06
  0.257999986      -2.87024409E-06
  0.261000007      -3.23885092E-06
  0.263999999      -3.21790071E-06
  0.266999990      -2.68362714E-06
  0.270000011      -1.53088376E-06
  0.273000002       3.23764198E-07
  0.275999993       2.94594679E-06
  0.279000014       6.39547716E-06
  0.282000005       1.07467877E-05
  0.284999996       1.61174521E-05
  0.287999988       2.27041091E-05
  0.291000009       3.08250164E-05
  0.294000000       4.09691784E-05
  0.296999991       5.38527165E-05
  0.300000012       7.04850390E-05
  0.303000003       9.22485269E-05
  0.305999994       1.20997174E-04
  0.308999985       1.59180068E-04
  0.312000006       2.09996928E-04
  0.314999998       2.77595565E-04
  0.317999989       3.67319619E-04
  0.321000010       4.86024801E-04
  0.324000001       6.42481726E-04
  0.326999992       8.47891555E-04
  0.330000013       1.11654308E-03
  0.333000004       1.46665331E-03
  0.335999995       1.92142895E-03
  0.338999987       2.51039257E-03
  0.342000008       3.27104237E-03
  0.344999999       4.25089942E-03
  0.347999990       5.51003916E-03
  0.351000011       7.12417113E-03
  0.354000002       9.18842852E-03
  0.356999993       1.18219852E-02
  0.360000014       1.51736606E-02
  0.363000005       1.94286965E-02
  0.365999997       2.48169955E-02
  0.368999988       3.16230915E-02
  0.372000009       4.01980430E-02
  0.375000000       5.09737283E-02
  0.377999991       6.44799173E-02
  0.381000012       8.13644901E-02
  0.384000003      0.102417693    
  0.386999995      0.128600627    
  0.389999986      0.161078408    
  0.393000007      0.201259330    
  0.395999998      0.250840575    
  0.398999989      0.311860412    
  0.402000010      0.386760235    
  0.405000001      0.478454500    
  0.407999992      0.590410650    
  0.411000013      0.726741910    
  0.414000005      0.892310858    
  0.416999996       1.09284675    
  0.419999987       1.33507681    
  0.423000008       1.62687504    
  0.425999999       1.97742414    
  0.428999990       2.39739561    
  0.432000011       2.89914584    
  0.435000002       3.49693131    
  0.437999994       4.20713615    
  0.441000015       5.04852819    
  0.444000006       6.04251766    
  0.446999997       7.21341562    
  0.449999988       8.58873177    
  0.453000009       10.1994705    
  0.456000000       12.0803823    
  0.458999991       14.2702999    
  0.462000012       16.8123913    
  0.465000004       19.7543907    
  0.467999995       23.1488266    
  0.470999986       27.0531921    
  0.474000007       31.5300808    
  0.476999998       36.6472359    
  0.479999989       42.4775047    
  0.483000010       49.0987473    
  0.486000001       56.5935287    
  0.488999993       65.0485916    
  0.492000014       74.5544434    
  0.495000005       85.2046738    
  0.497999996       97.0948410    
  0.500999987       110.321411    
  0.504000008       124.980446    
  0.507000029       141.165588    
  0.509999990       158.966415    
  0.513000011       178.465942    
  0.515999973       199.738297    
  0.518999994       222.846741    
  0.522000015       247.839523    
  0.524999976       274.746948    
  0.527999997       303.577881    
  0.531000018       334.316223    
  0.533999979       366.916443    
  0.537000000       401.300537    
  0.540000021       437.353729    
  0.542999983       474.921326    
  0.546000004       513.803223    
  0.549000025       553.750488    
  0.551999986       594.463989    
  0.555000007       635.591553    
  0.558000028       676.724121    
  0.560999990       717.395081    
  0.564000010       757.080750    
  0.566999972       795.199341    
  0.569999993       831.112854    
  0.573000014       864.131897    
  0.575999975       893.518433    
  0.578999996       918.488586    
  0.582000017       938.221680    
  0.584999979       951.871521    
  0.588000000       958.574219    
  0.591000021       957.457458    
  0.593999982       947.653687    
  0.597000003       928.317627    
  0.600000024       898.642395    
  0.602999985       857.872803    
  0.606000006       805.322754    
  0.609000027       740.394226    
  0.611999989       662.594482    
  0.615000010       571.554382    
  0.617999971       467.047424    
  0.620999992       349.004364    
  0.624000013       217.527786    
  0.626999974       72.9082565    
  0.629999995      -84.3637009    
  0.633000016      -253.591766    
  0.635999978      -433.868866    
  0.638999999      -624.072571    
  0.642000020      -822.864075    
  0.644999981      -1028.69495    
  0.648000002      -1239.81604    
  0.651000023      -1454.29089    
  0.653999984      -1670.01331    
  0.657000005      -1884.72644    
  0.660000026      -2096.05298    
  0.662999988      -2301.52002    
  0.666000009      -2498.58862    
  0.669000030      -2684.69922    
  0.671999991      -2857.30298    
  0.675000012      -3013.89746    
  0.677999973      -3152.07422    
  0.680999994      -3269.55688    
  0.684000015      -3364.24536    
  0.686999977      -3434.25244    
  0.689999998      -3477.93018    
  0.693000019      -3493.90674    
  0.695999980      -3481.14087    
  0.699000001      -3438.93530    
  0.702000022      -3366.94482    
  0.704999983      -3265.19019    
  0.708000004      -3134.07666    
  0.711000025      -2974.40381    
  0.713999987      -2787.34766    
  0.717000008      -2574.45166    
  0.720000029      -2337.62183    
  0.722999990      -2079.09473    
  0.726000011      -1801.39185    
  0.728999972      -1507.28027    
  0.731999993      -1199.75854    
  0.735000014      -882.019165    
  0.737999976      -557.382202    
  0.740999997      -229.225708    
  0.744000018       99.0590134    
  0.746999979       424.104736    
  0.750000000       742.625732    
  0.753000021       1051.46826    
  0.755999982       1347.64917    
  0.759000003       1628.40308    
  0.762000024       1891.24072    
  0.764999986       2133.98779    
  0.768000007       2354.79321    
  0.771000028       2552.13574    
  0.773999989       2724.84375    
  0.777000010       2872.12744    
  0.779999971       2993.57471    
  0.782999992       3089.13647    
  0.786000013       3159.11426    
  0.788999975       3204.15356    
  0.791999996       3225.20044    
  0.795000017       3223.45972    
  0.797999978       3200.38257    
  0.800999999       3157.65771    
  0.804000020       3097.15063    
  0.806999981       3020.82690    
  0.810000002       2930.72144    
  0.813000023       2828.92261    
  0.815999985       2717.53247    
  0.819000006       2598.60303    
  0.822000027       2474.11108    
  0.824999988       2345.94775    
  0.828000009       2215.86304    
  0.830999970       2085.41992    
  0.833999991       1955.99353    
  0.837000012       1828.78845    
  0.839999974       1704.81702    
  0.842999995       1584.85596    
  0.846000016       1469.46326    
  0.848999977       1359.00635    
  0.851999998       1253.66516    
  0.855000019       1153.41382    
  0.857999980       1058.05261    
  0.861000001       967.256531    
  0.864000022       880.591675    
  0.866999984       797.504517    
  0.870000005       717.341492    
  0.873000026       639.394287    
  0.875999987       562.945007    
  0.879000008       487.295532    
  0.882000029       411.773987    
  0.884999990       335.726624    
  0.888000011       258.531494    
  0.890999973       179.642487    
  0.893999994       98.6336441    
  0.897000015       15.2102919    
  0.899999976      -70.8091202    
  0.902999997      -159.519363    
  0.906000018      -250.930756    
  0.908999979      -344.931335    
  0.912000000      -441.249023    
  0.915000021      -539.478149    
  0.917999983      -639.148438    
  0.921000004      -739.745117    
  0.924000025      -840.665161    
  0.926999986      -941.201538    
  0.930000007      -1040.58496    
  0.933000028      -1138.02661    
  0.935999990      -1232.72314    
  0.939000010      -1323.87317    
  0.941999972      -1410.69287    
  0.944999993      -1492.40186    
  0.948000014      -1568.22034    
  0.950999975      -1637.42200    
  0.953999996      -1699.37427    
  0.957000017      -1753.51367    
  0.959999979      -1799.30383    
  0.963000000      -1836.26599    
  0.966000021      -1864.03235    
  0.968999982      -1882.33691    
  0.972000003      -1890.97229    
  0.975000024      -1889.79773    
  0.977999985      -1878.77759    
  0.981000006      -1857.97290    
  0.984000027      -1827.50891    
  0.986999989      -1787.57825    
  0.990000010      -1738.44690    
  0.992999971      -1680.44849    
  0.995999992      -1613.97668    
  0.999000013      -1539.50024    
   1.00199997      -1457.55762    
   1.00500000      -1368.71741    
   1.00800002      -1273.56580    
   1.01100004      -1172.73645    
   1.01400006      -1066.92908    
   1.01699996      -956.877502    
   1.01999998      -843.321289    
   1.02300000      -727.007080    
   1.02600002      -608.706177    
   1.02900004      -489.217316    
   1.03199995      -369.349457    
   1.03499997      -249.901443    
   1.03799999      -131.657532    
   1.04100001      -15.3961477    
   1.04400003       98.1108246    
   1.04700005       208.111038    
   1.04999995       313.879456    
   1.05299997       414.719269    
   1.05599999       509.976807    
   1.05900002       599.059265    
   1.06200004       681.421021    
   1.06500006       756.542053    
   1.06799996       823.951294    
   1.07099998       883.268311    
   1.07400000       934.200500    
   1.07700002       976.510498    
   1.08000004       1010.02045    
   1.08299994       1034.63989    
   1.08599997       1050.35803    
   1.08899999       1057.22668    
   1.09200001       1055.37866    
   1.09500003       1045.04919    
   1.09800005       1026.54810    
   1.10099995       1000.22534    
   1.10399997       966.490417    
   1.10699999       925.845154    
   1.11000001       878.860352    
   1.11300004       826.135620    
   1.11600006       768.304321    
   1.11899996       706.053833    
   1.12199998       640.104126    
   1.12500000       571.184692    
   1.12800002       500.045227    
   1.13100004       427.462769    
   1.13399994       354.212097    
   1.13699996       281.035004    
   1.13999999       208.639893    
   1.14300001       137.717484    
   1.14600003       68.9415970    
   1.14900005       2.96009755    
   1.15199995      -59.6176376    
   1.15499997      -118.238304    
   1.15799999      -172.424759    
   1.16100001      -221.780884    
   1.16400003      -265.971375    
   1.16700006      -304.695953    
   1.16999996      -337.694000    
   1.17299998      -364.788116    
   1.17600000      -385.915558    
   1.17900002      -401.099670    
   1.18200004      -410.395966    
   1.18499994      -413.886383    
   1.18799996      -411.722839    
   1.19099998      -404.148804    
   1.19400001      -391.476288    
   1.19700003      -374.062622    
   1.20000005      -352.300171    
   1.20299995      -326.600647    
   1.20599997      -297.388885    
   1.20899999      -265.130096    
   1.21200001      -230.347595    
   1.21500003      -193.580673    
   1.21800005      -155.332153    
   1.22099996      -116.080856    
   1.22399998      -76.3243332    
   1.22700000      -36.5733376    
   1.23000002       2.69076443    
   1.23300004       41.0292931    
   1.23599994       78.0322189    
   1.23899996       113.320183    
   1.24199998       146.557007    
   1.24500000       177.442917    
   1.24800003       205.703247    
   1.25100005       231.100876    
   1.25399995       253.455994    
   1.25699997       272.646332    
   1.25999999       288.591064    
   1.26300001       301.242035    
   1.26600003       310.584930    
   1.26900005       316.642242    
   1.27199996       319.476074    
   1.27499998       319.188660    
   1.27800000       315.916473    
   1.28100002       309.819092    
   1.28400004       301.067627    
   1.28699994       289.847778    
   1.28999996       276.378113    
   1.29299998       260.915253    
   1.29600000       243.719894    
   1.29900002       225.023178    
   1.30200005       205.045685    
   1.30499995       184.041412    
   1.30799997       162.288559    
   1.31099999       140.039597    
   1.31400001       117.511879    
   1.31700003       94.9272919    
   1.32000005       72.5216904    
   1.32299995       50.5068016    
   1.32599998       29.0523949    
   1.32900000       8.31326008    
   1.33200002      -11.5526714    
   1.33500004      -30.3960152    
   1.33800006      -48.0860329    
   1.34099996      -64.5157623    
   1.34399998      -79.6188812    
   1.34700000      -93.3699951    
   1.35000002      -105.742821    
   1.35300004      -116.680840    
   1.35599995      -126.135597    
   1.35899997      -134.122498    
   1.36199999      -140.709473    
   1.36500001      -145.955826    
   1.36800003      -149.888916    
   1.37100005      -152.538208    
   1.37399995      -153.971054    
   1.37699997      -154.288254    
   1.38000000      -153.592880    
   1.38300002      -151.966827    
   1.38600004      -149.475037    
   1.38900006      -146.190491    
   1.39199996      -142.212891    
   1.39499998      -137.658813    
   1.39800000      -132.632172    
   1.40100002      -127.204712    
   1.40400004      -121.430893    
   1.40699995      -115.382942    
   1.40999997      -109.156761    
   1.41299999      -102.831001    
   1.41600001      -96.4381714    
   1.41900003      -90.0038605    
   1.42200005      -83.6012878    
   1.42499995      -77.3258972    
   1.42799997      -71.2162781    
   1.43099999      -65.2435989    
   1.43400002      -59.3899307    
   1.43700004      -53.7011299    
   1.44000006      -48.2482147    
   1.44299996      -43.0649300    
   1.44599998      -38.1350937    
   1.44900000      -33.4210930    
   1.45200002      -28.9009552    
   1.45500004      -24.5940456    
   1.45799994      -20.5458279    
   1.46099997      -16.7706623    
   1.46399999      -13.2222319    
   1.46700001      -9.84200382    
   1.47000003      -6.62262249    
   1.47300005      -3.59824014    
   1.47599995     -0.783974767    
   1.47899997       1.84818017    
   1.48199999       4.33829117    
   1.48500001       6.70540428    
   1.48800004       8.94602299    
   1.49100006       11.0524769    
   1.49399996       13.0294724    
   1.49699998       14.8939571    
   1.50000000       16.6577435    
   1.50300002       18.3157139    
   1.50600004       19.8586426    
   1.50899994       21.2918072    
   1.51199996       22.6284256    
   1.51499999       23.8660679    
   1.51800001       24.9819870    
   1.52100003       25.9568787    
   1.52400005       26.7963638    
   1.52699995       27.5199947    
   1.52999997       28.1282558    
   1.53299999       28.5917187    
   1.53600001       28.8831692    
   1.53900003       29.0115509    
   1.54200006       29.0072021    
   1.54499996       28.8782501    
   1.54799998       28.6023197    
   1.55100000       28.1615543    
   1.55400002       27.5668316    
   1.55700004       26.8453789    
   1.55999994       26.0195751    
   1.56299996       25.0988293    
   1.56599998       24.0815296    
   1.56900001       22.9683266    
   1.57200003       21.7800522    
   1.57500005       20.5514126    
   1.57799995       19.3005333    
   1.58099997       18.0220070    
   1.58399999       16.7193146    
   1.58700001       15.4232693    
   1.59000003       14.1651068    
   1.59300005       12.9500799    
   1.59599996       11.7705002    
   1.59899998       10.6278915    
   1.60200000       9.53141308    
   1.60500002       8.48952866    
   1.60800004       7.51141071    
   1.61099994       6.60294390    
   1.61399996       5.75666571    
   1.61699998       4.95938635    
   1.62000000       4.21274424    
   1.62300003       3.53217840    
   1.62600005       2.92138672    
   1.62899995       2.35986638    
   1.63199997       1.82255113    
   1.63499999       1.30588794    
   1.63800001      0.828249216    
   1.64100003      0.406007022    
   1.64400005       3.55676860E-02
   1.64699996     -0.297955304    
   1.64999998     -0.602201641    
   1.65300000     -0.877645493    
   1.65600002      -1.12952542    
   1.65900004      -1.36377573    
   1.66199994      -1.57346296    
   1.66499996      -1.74568546    
   1.66799998      -1.88084376    
   1.67100000      -1.99024284    
   1.67400002      -2.07863998    
   1.67700005      -2.14516735    
   1.67999995      -2.19579959    
   1.68299997      -2.23853779    
   1.68599999      -2.27316689    
   1.68900001      -2.30059886    
   1.69200003      -2.33225989    
   1.69500005      -2.37546182    
   1.69799995      -2.42102695    
   1.70099998      -2.45921874    
   1.70400000      -2.49620986    
   1.70700002      -2.54446673    
   1.71000004      -2.61014843    
   1.71300006      -2.69605899    
   1.71599996      -2.79963255    
   1.71899998      -2.90259504    
   1.72200000      -2.98200178    
   1.72500002      -3.03758144    
   1.72800004      -3.08979511    
   1.73099995      -3.14509940    
   1.73399997      -3.17977595    
   1.73699999      -3.16468668    
   1.74000001      -3.09395719    
   1.74300003      -2.98258209    
   1.74600005      -2.84136963    
   1.74899995      -2.65992165    
   1.75199997      -2.41743731    
   1.75500000      -2.10956264    
   1.75800002      -1.75523412    
   1.76100004      -1.37180459    
   1.76400006     -0.955675781    
   1.76699996     -0.496984065    
   1.76999998      -1.07471831E-03
   1.77300000      0.513970613    
   1.77600002       1.02767205    
   1.77900004       1.51821268    
   1.78199995       1.96981764    
   1.78499997       2.38390589    
   1.78799999       2.76427722    
   1.79100001       3.09080815    
   1.79400003       3.33101439    
   1.79700005       3.47485781    
   1.79999995       3.52906346    
   1.80299997       3.47950625    
   1.80599999       3.29242563    
   1.80900002       2.95501471    
   1.81200004       2.48545527    
   1.81500006       1.89993763    
   1.81799996       1.19255745    
   1.82099998      0.346684456    
   1.82400000     -0.652008951    
   1.82700002      -1.80795717    
   1.83000004      -3.10586476    
   1.83299994      -4.51769781    
   1.83599997      -6.03096724    
   1.83899999      -7.65677071    
   1.84200001      -9.40018845    
   1.84500003      -11.2390814    
   1.84800005      -13.1417894    
   1.85099995      -15.0891895    
   1.85399997      -17.0685978    
   1.85699999      -19.0590401    
   1.86000001      -21.0335674    
   1.86300004      -22.9702320    
   1.86600006      -24.8520298    
   1.86899996      -26.6527882    
   1.87199998      -28.3247185    
   1.87500000      -29.8105698    
   1.87800002      -31.0755692    
   1.88100004      -32.1157799    
   1.88399994      -32.9225998    
   1.88699996      -33.4515762    
   1.88999999      -33.6413460    
   1.89300001      -33.4510307    
   1.89600003      -32.8654747    
   1.89900005      -31.8782158    
   1.90199995      -30.4811268    
   1.90499997      -28.6559067    
   1.90799999      -26.3707581    
   1.91100001      -23.6071262    
   1.91400003      -20.3911686    
   1.91700006      -16.7714958    
   1.91999996      -12.7667093    
   1.92299998      -8.36807919    
   1.92600000      -3.59442258    
   1.92900002       1.49067938    
   1.93200004       6.81874466    
   1.93499994       12.3418474    
   1.93799996       18.0160847    
   1.94099998       23.7848110    
   1.94400001       29.5775967    
   1.94700003       35.3094597    
   1.95000005       40.8922424    
   1.95299995       46.2623253    
   1.95599997       51.3804893    
   1.95899999       56.1907349    
   1.96200001       60.6026459    
   1.96500003       64.5321808    
   1.96800005       67.9372406    
   1.97099996       70.7949677    
   1.97399998       73.0640564    
   1.97700000       74.6911011    
   1.98000002       75.6426010    
   1.98300004       75.9156036    
   1.98599994       75.5198746    
   1.98899996       74.4577560    
   1.99199998       72.7230148    
   1.99500000       70.3193512    
   1.99800003       67.2772369    
   2.00099993       63.6461067    
   2.00399995       59.4741364    
   2.00699997       54.8032761    
   2.00999999       49.6782951    
   2.01300001       44.1514473    
   2.01600003       38.2840195    
   2.01900005       32.1474037    
   2.02200007       25.8108997    
   2.02500010       19.3278065    
   2.02800012       12.7509537    
   2.03099990       6.15909481    
   2.03399992     -0.358338237    
   2.03699994      -6.74220943    
   2.03999996      -12.9621296    
   2.04299998      -18.9767570    
   2.04600000      -24.7242050    
   2.04900002      -30.1465263    
   2.05200005      -35.1963692    
   2.05500007      -39.8301964    
   2.05800009      -44.0246277    
   2.06100011      -47.7863579    
   2.06399989      -51.1165733    
   2.06699991      -53.9819336    
   2.06999993      -56.3481026    
   2.07299995      -58.2217636    
   2.07599998      -59.6324959    
   2.07900000      -60.5951729    
   2.08200002      -61.1172371    
   2.08500004      -61.2216110    
   2.08800006      -60.9375610    
   2.09100008      -60.2872887    
   2.09400010      -59.2989731    
   2.09699988      -58.0139961    
   2.09999990      -56.4669800    
   2.10299993      -54.6764565    
   2.10599995      -52.6654968    
   2.10899997      -50.4741821    
   2.11199999      -48.1437378    
   2.11500001      -45.7019081    
   2.11800003      -43.1683807    