 -0.449999988       0.00000000    
 -0.446999997       0.00000000    
 -0.444000006       0.00000000    
 -0.441000015       0.00000000    
 -0.437999994       0.00000000    
 -0.435000002       0.00000000    
 -0.432000011       0.00000000    
 -0.428999990       0.00000000    
 -0.425999999      -3.41902924E-37
 -0.423000008      -6.38195628E-34
 -0.419999987      -6.22799315E-33
 -0.416999996      -7.03905339E-33
 -0.414000005       1.00057397E-31
 -0.411000013       4.13070643E-31
 -0.407999992      -2.79597392E-33
 -0.405000001      -4.21402913E-30
 -0.402000010      -1.09368100E-29
 -0.398999989       6.42300420E-30
 -0.395999998       9.27675857E-29
 -0.393000007       1.64235205E-28
 -0.389999986      -1.95917487E-28
 -0.386999995      -1.27414036E-27
 -0.384000003      -1.51658788E-27
 -0.381000012       2.90425016E-27
 -0.377999991       1.16097360E-26
 -0.375000000       9.39698121E-27
 -0.372000009      -2.50935190E-26
 -0.368999988      -7.35839530E-26
 -0.365999997      -4.70438125E-26
 -0.363000005       1.26584405E-25
 -0.360000014       3.29704687E-25
 -0.356999993       2.72011665E-25
 -0.354000002      -1.90962887E-25
 -0.351000011      -9.53024635E-25
 -0.347999990      -2.05415909E-24
 -0.344999999      -2.99659760E-24
 -0.342000008       3.93728638E-25
 -0.338999987       1.54507938E-23
 -0.335999995       3.59201913E-23
 -0.333000004       1.70897864E-23
 -0.330000013      -9.92570539E-23
 -0.326999992      -2.54899159E-22
 -0.324000001      -1.50506974E-22
 -0.321000010       5.36911000E-22
 -0.317999989       1.42617661E-21
 -0.314999998       9.24243472E-22
 -0.312000006      -2.49311489E-21
 -0.308999985      -6.86595613E-21
 -0.305999994      -4.87189307E-21
 -0.303000003       1.00989811E-20
 -0.300000012       2.96496170E-20
 -0.296999991       2.35110240E-20
 -0.294000000      -3.56908950E-20
 -0.291000009      -1.17311246E-19
 -0.287999988      -1.06487038E-19
 -0.284999996       1.06671454E-19
 -0.282000005       4.28048105E-19
 -0.279000014       4.54621360E-19
 -0.275999993      -2.40093929E-19
 -0.273000002      -1.43013986E-18
 -0.270000011      -1.81279754E-18
 -0.266999990       1.90130604E-19
 -0.263999999       4.28254027E-18
 -0.261000007       6.63836471E-18
 -0.257999986       1.79218771E-18
 -0.254999995      -1.10265773E-17
 -0.252000004      -2.18707927E-17
 -0.248999998      -1.33683827E-17
 -0.246000007       2.22773106E-17
 -0.243000001       6.32900504E-17
 -0.239999995       5.99712826E-17
 -0.237000003      -2.47549283E-17
 -0.233999997      -1.55586810E-16
 -0.231000006      -2.07417934E-16
 -0.228000000      -4.77054978E-17
 -0.224999994       3.04801312E-16
 -0.222000003       5.82226678E-16
 -0.218999997       3.96723842E-16
 -0.216000006      -3.90538040E-16
 -0.213000000      -1.32517426E-15
 -0.209999993      -1.45938059E-15
 -0.207000002      -8.26310882E-17
 -0.203999996       2.32846901E-15
 -0.201000005       3.86116327E-15
 -0.197999999       2.32708707E-15
 -0.194999993      -2.57749225E-15
 -0.192000002      -7.83598735E-15
 -0.188999996      -8.32008107E-15
 -0.186000004      -8.34273455E-16
 -0.182999998       1.16358729E-14
 -0.180000007       1.96417759E-14
 -0.177000001       1.31936994E-14
 -0.173999995      -8.93103493E-15
 -0.171000004      -3.38664271E-14
 -0.167999998      -4.01086838E-14
 -0.165000007      -1.32839652E-14
 -0.162000000       3.78764030E-14
 -0.158999994       7.95198326E-14
 -0.156000003       7.16624365E-14
 -0.152999997      -3.99489802E-16
 -0.150000006      -1.04114850E-13
 -0.147000000      -1.68166479E-13
 -0.143999994      -1.24571875E-13
 -0.141000003       3.73835010E-14
 -0.137999997       2.41934402E-13
 -0.135000005       3.51025741E-13
 -0.131999999       2.41449547E-13
 -0.128999993      -1.00931402E-13
 -0.126000002      -5.27420935E-13
 -0.123000003      -7.63738031E-13
 -0.119999997      -5.49357814E-13
 -0.116999999       1.71647093E-13
 -0.114000000       1.11636503E-12
 -0.111000001       1.70715742E-12
 -0.108000003       1.34982151E-12
 -0.104999997      -1.42941607E-13
 -0.101999998      -2.22694519E-12
  -9.89999995E-02  -3.69131635E-12
  -9.60000008E-02  -3.24234953E-12
  -9.30000022E-02  -3.95004884E-13
  -9.00000036E-02   3.86548215E-12
  -8.69999975E-02   7.22741225E-12
  -8.39999989E-02   7.18097413E-12
  -8.10000002E-02   2.63853891E-12
  -7.80000016E-02  -4.95145374E-12
  -7.50000030E-02  -1.18910324E-11
  -7.19999969E-02  -1.40232079E-11
  -6.89999983E-02  -9.10741274E-12
  -6.59999996E-02   1.66031696E-12
  -6.30000010E-02   1.39763036E-11
  -5.99999987E-02   2.24226211E-11
  -5.70000000E-02   2.28796253E-11
  -5.40000014E-02   1.39994518E-11
  -5.09999990E-02  -2.69381999E-12
  -4.80000004E-02  -2.33734664E-11
  -4.50000018E-02  -4.21898731E-11
  -4.19999994E-02  -5.12899445E-11
  -3.90000008E-02  -4.19506686E-11
  -3.59999985E-02  -8.34783197E-12
  -3.29999998E-02   4.64198437E-11
  -2.99999993E-02   1.05443328E-10
  -2.70000007E-02   1.39329229E-10
  -2.40000002E-02   1.16942817E-10
  -2.09999997E-02   2.33178876E-11
  -1.79999992E-02  -1.23710611E-10
  -1.49999997E-02  -2.69271438E-10
  -1.20000001E-02  -3.37003758E-10
  -8.99999961E-03  -2.62326466E-10
  -6.00000005E-03  -3.06098931E-11
  -3.00000003E-03   2.98772229E-10
   5.55111512E-17   5.98971928E-10
   3.00000003E-03   7.17680193E-10
   6.00000005E-03   5.43066037E-10
   8.99999961E-03   6.77039189E-11
   1.20000001E-02  -5.80512194E-10
   1.49999997E-02  -1.16274756E-09
   1.79999992E-02  -1.40970657E-09
   2.09999997E-02  -1.13251231E-09
   2.40000002E-02  -3.19161503E-10
   2.70000007E-02   8.28480895E-10
   2.99999993E-02   1.94017269E-09
   3.29999998E-02   2.59305399E-09
   3.59999985E-02   2.45508680E-09
   3.90000008E-02   1.40465606E-09
   4.19999994E-02  -4.09323853E-10
   4.50000018E-02  -2.57497867E-09
   4.80000004E-02  -4.48238380E-09
   5.09999990E-02  -5.43684653E-09
   5.40000014E-02  -4.82310059E-09
   5.70000000E-02  -2.32008146E-09
   5.99999987E-02   1.86882221E-09
   6.30000010E-02   6.86057566E-09
   6.59999996E-02   1.11371641E-08
   6.89999983E-02   1.28815776E-08
   7.19999969E-02   1.05824629E-08
   7.50000030E-02   3.73281583E-09
   7.80000016E-02  -6.65898936E-09
   8.10000002E-02  -1.80154753E-08
   8.39999989E-02  -2.67168829E-08
   8.69999975E-02  -2.91108311E-08
   9.00000036E-02  -2.27132162E-08
   9.30000022E-02  -7.22614590E-09
   9.60000008E-02   1.49507855E-08
   9.89999995E-02   3.88974186E-08
  0.101999998       5.80510324E-08
  0.104999997       6.56488339E-08
  0.108000003       5.64782816E-08
  0.111000001       2.85843811E-08
  0.114000000      -1.54745283E-08
  0.116999999      -6.82183838E-08
  0.119999997      -1.17967389E-07
  0.123000003      -1.50765601E-07
  0.126000002      -1.53309628E-07
  0.128999993      -1.16420267E-07
  0.131999999      -3.83764167E-08
  0.135000005       7.27129077E-08
  0.137999997       1.98341922E-07
  0.141000003       3.11508586E-07
  0.143999994       3.81277403E-07
  0.147000000       3.79467224E-07
  0.150000006       2.88113483E-07
  0.152999997       1.05805100E-07
  0.156000003      -1.48965057E-07
  0.158999994      -4.38576819E-07
  0.162000000      -7.11181485E-07
  0.165000007      -9.08650406E-07
  0.167999998      -9.75975922E-07
  0.171000004      -8.70666156E-07
  0.173999995      -5.71184785E-07
  0.177000001      -8.38737577E-08
  0.180000007       5.52277129E-07
  0.182999998       1.26409520E-06
  0.186000004       1.94734753E-06
  0.188999996       2.47569028E-06
  0.192000002       2.71560998E-06
  0.194999993       2.54605197E-06
  0.197999999       1.88012325E-06
  0.201000005       6.85585803E-07
  0.203999996      -9.99064241E-07
  0.207000002      -3.05544972E-06
  0.209999993      -5.28466308E-06
  0.213000000      -7.41555823E-06
  0.216000006      -9.12115866E-06
  0.218999997      -1.00409397E-05
  0.222000003      -9.80548703E-06
  0.224999994      -8.05920172E-06
  0.228000000      -4.47646380E-06
  0.231000006       1.23311588E-06
  0.233999997       9.33460615E-06
  0.237000003       2.00971881E-05
  0.239999995       3.38476602E-05
  0.243000001       5.10518912E-05
  0.246000007       7.24261845E-05
  0.248999998       9.90777480E-05
  0.252000004       1.32671150E-04
  0.254999995       1.75618756E-04
  0.257999986       2.31297512E-04
  0.261000007       3.04302608E-04
  0.263999999       4.00757941E-04
  0.266999990       5.28709090E-04
  0.270000011       6.98631688E-04
  0.273000002       9.24087362E-04
  0.275999993       1.22256821E-03
  0.279000014       1.61657704E-03
  0.282000005       2.13500462E-03
  0.284999996       2.81488430E-03
  0.287999988       3.70362122E-03
  0.291000009       4.86180419E-03
  0.294000000       6.36673113E-03
  0.296999991       8.31679441E-03
  0.300000012       1.08369272E-02
  0.303000003       1.40853357E-02
  0.305999994       1.82618126E-02
  0.308999985       2.36179512E-02
  0.312000006       3.04697044E-02
  0.314999998       3.92127819E-02
  0.317999989       5.03414199E-02
  0.321000010       6.44711554E-02
  0.324000001       8.23664144E-02
  0.326999992      0.104973823    
  0.330000013      0.133462206    
  0.333000004      0.169270426    
  0.335999995      0.214164570    
  0.338999987      0.270305991    
  0.342000008      0.340331763    
  0.344999999      0.427450210    
  0.347999990      0.535552740    
  0.351000011      0.669345498    
  0.354000002      0.834502935    
  0.356999993       1.03784609    
  0.360000014       1.28754902    
  0.363000005       1.59337652    
  0.365999997       1.96695626    
  0.368999988       2.42209148    
  0.372000009       2.97511220    
  0.375000000       3.64527607    
  0.377999991       4.45521450    
  0.381000012       5.43143797    
  0.384000003       6.60489702    
  0.386999995       8.01159286    
  0.389999986       9.69325924    
  0.393000007       11.6980991    
  0.395999998       14.0815859    
  0.398999989       16.9073105    
  0.402000010       20.2478886    
  0.405000001       24.1859341    
  0.407999992       28.8150387    
  0.411000013       34.2407837    
  0.414000005       40.5817795    
  0.416999996       47.9706955    
  0.419999987       56.5552254    
  0.423000008       66.4990387    
  0.425999999       77.9825821    
  0.428999990       91.2037506    
  0.432000011       106.378410    
  0.435000002       123.740662    
  0.437999994       143.542923    
  0.441000015       166.055542    
  0.444000006       191.566025    
  0.446999997       220.377762    
  0.449999988       252.808273    
  0.453000009       289.186859    
  0.456000000       329.851471    
  0.458999991       375.145050    
  0.462000012       425.410645    
  0.465000004       480.985748    
  0.467999995       542.195984    
  0.470999986       609.347778    
  0.474000007       682.719788    
  0.476999998       762.553833    
  0.479999989       849.043701    
  0.483000010       942.324097    
  0.486000001       1042.45862    
  0.488999993       1149.42688    
  0.492000014       1263.11157    
  0.495000005       1383.28284    
  0.497999996       1509.58545    
  0.500999987       1641.52527    
  0.504000008       1778.45471    
  0.507000029       1919.55872    
  0.509999990       2063.84375    
  0.513000011       2210.12793    
  0.515999973       2357.03149    
  0.518999994       2502.97119    
  0.522000015       2646.15723    
  0.524999976       2784.59302    
  0.527999997       2916.07886    
  0.531000018       3038.21655    
  0.533999979       3148.42578    
  0.537000000       3243.96021    
  0.540000021       3321.92944    
  0.542999983       3379.32617    
  0.546000004       3413.06128    
  0.549000025       3419.99927    
  0.551999986       3397.00610    
  0.555000007       3340.99292    
  0.558000028       3248.97266    
  0.560999990       3118.11621    
  0.564000010       2945.81396    
  0.566999972       2729.74048    
  0.569999993       2467.91797    
  0.573000014       2158.77515    
  0.575999975       1801.21448    
  0.578999996       1394.67578    
  0.582000017       939.196960    
  0.584999979       435.464813    
  0.588000000      -115.143921    
  0.591000021      -710.528198    
  0.593999982      -1347.83374    
  0.597000003      -2023.43274    
  0.600000024      -2732.91748    
  0.602999985      -3471.10791    
  0.606000006      -4232.07959    
  0.609000027      -5009.20166    
  0.611999989      -5795.19678    
  0.615000010      -6582.20215    
  0.617999971      -7361.84961    
  0.620999992      -8125.35547    
  0.624000013      -8863.63574    
  0.626999974      -9567.42480    
  0.629999995      -10227.4072    
  0.633000016      -10834.3672    
  0.635999978      -11379.3154    
  0.638999999      -11853.6270    
  0.642000020      -12249.1875    
  0.644999981      -12558.5469    
  0.648000002      -12775.0674    
  0.651000023      -12893.0400    
  0.653999984      -12907.7959    
  0.657000005      -12815.8076    
  0.660000026      -12614.7734    
  0.662999988      -12303.6973    
  0.666000009      -11882.9316    
  0.669000030      -11354.2109    
  0.671999991      -10720.6533    
  0.675000012      -9986.72168    
  0.677999973      -9158.17188    
  0.680999994      -8242.00098    
  0.684000015      -7246.37061    
  0.686999977      -6180.50049    
  0.689999998      -5054.52100    
  0.693000019      -3879.31470    
  0.695999980      -2666.36523    
  0.699000001      -1427.60022    
  0.702000022      -175.215439    
  0.704999983       1078.50659    
  0.708000004       2321.37793    
  0.711000025       3541.48608    
  0.713999987       4727.36816    
  0.717000008       5868.16748    
  0.720000029       6953.77490    
  0.722999990       7974.95752    
  0.726000011       8923.48145    
  0.728999972       9792.20996    
  0.731999993       10575.1611    
  0.735000014       11267.5498    
  0.737999976       11865.8242    
  0.740999997       12367.6826    
  0.744000018       12772.0508    
  0.746999979       13079.0303    
  0.750000000       13289.8340    
  0.753000021       13406.7207    
  0.755999982       13432.9189    
  0.759000003       13372.5176    
  0.762000024       13230.3486    
  0.764999986       13011.8691    
  0.768000007       12723.0195    
  0.771000028       12370.0938    
  0.773999989       11959.6416    
  0.777000010       11498.3545    
  0.779999971       10992.9326    
  0.782999992       10449.9688    
  0.786000013       9875.86621    
  0.788999975       9276.76270    
  0.791999996       8658.45801    
  0.795000017       8026.32666    
  0.797999978       7385.27490    
  0.800999999       6739.72754    
  0.804000020       6093.63232    
  0.806999981       5450.45801    
  0.810000002       4813.17773    
  0.813000023       4184.26758    
  0.815999985       3565.72607    
  0.819000006       2959.13330    
  0.822000027       2365.72510    
  0.824999988       1786.45068    
  0.828000009       1221.99768    
  0.830999970       672.805115    
  0.833999991       139.105728    
  0.837000012      -378.988434    
  0.839999974      -881.400635    
  0.842999995      -1368.05103    
  0.846000016      -1838.85583    
  0.848999977      -2293.71362    
  0.851999998      -2732.45557    
  0.855000019      -3154.78955    
  0.857999980      -3560.27734    
  0.861000001      -3948.35400    
  0.864000022      -4318.35059    
  0.866999984      -4669.49902    
  0.870000005      -5000.91846    
  0.873000026      -5311.60010    
  0.875999987      -5600.43115    
  0.879000008      -5866.23730    
  0.882000029      -6107.81592    
  0.884999990      -6323.95312    
  0.888000011      -6513.43408    
  0.890999973      -6675.07275    
  0.893999994      -6807.76318    
  0.897000015      -6910.52588    
  0.899999976      -6982.50928    
  0.902999997      -7022.97803    
  0.906000018      -7031.32617    
  0.908999979      -7007.12158    
  0.912000000      -6950.16406    
  0.915000021      -6860.50146    
  0.917999983      -6738.40918    
  0.921000004      -6584.35645    
  0.924000025      -6399.01074    
  0.926999986      -6183.28223    
  0.930000007      -5938.35498    
  0.933000028      -5665.66064    
  0.935999990      -5366.82080    
  0.939000010      -5043.61279    
  0.941999972      -4697.99268    
  0.944999993      -4332.13672    
  0.948000014      -3948.43579    
  0.950999975      -3549.42896    
  0.953999996      -3137.72827    
  0.957000017      -2716.00220    
  0.959999979      -2287.00586    
  0.963000000      -1853.60461    
  0.966000021      -1418.73950    
  0.968999982      -985.347961    
  0.972000003      -556.306030    
  0.975000024      -134.430695    
  0.977999985       277.489532    
  0.981000006       676.698669    
  0.984000027       1060.53113    
  0.986999989       1426.47742    
  0.990000010       1772.21094    
  0.992999971       2095.57031    
  0.995999992       2394.54688    
  0.999000013       2667.31079    
   1.00199997       2912.26367    
   1.00500000       3128.07251    
   1.00800002       3313.66064    
   1.01100004       3468.18457    
   1.01400006       3591.03809    
   1.01699996       3681.88965    
   1.01999998       3740.71338    
   1.02300000       3767.77271    
   1.02600002       3763.58447    
   1.02900004       3728.89844    
   1.03199995       3664.71362    
   1.03499997       3572.29883    
   1.03799999       3453.18237    
   1.04100001       3309.11011    
   1.04400003       3141.99829    
   1.04700005       2953.91821    
   1.04999995       2747.10254    
   1.05299997       2523.94092    
   1.05599999       2286.93799    
   1.05900002       2038.64636    
   1.06200004       1781.63062    
   1.06500006       1518.47302    
   1.06799996       1251.78699    
   1.07099998       984.187134    
   1.07400000       718.216003    
   1.07700002       456.280792    
   1.08000004       200.641586    
   1.08299994      -46.5601654    
   1.08599997      -283.288391    
   1.08899999      -507.645752    
   1.09200001      -717.932129    
   1.09500003      -912.681824    
   1.09800005      -1090.65857    
   1.10099995      -1250.82593    
   1.10399997      -1392.32800    
   1.10699999      -1514.50500    
   1.11000001      -1616.92432    
   1.11300004      -1699.38855    
   1.11600006      -1761.91016    
   1.11899996      -1804.67615    
   1.12199998      -1828.03650    
   1.12500000      -1832.51843    
   1.12800002      -1818.82581    
   1.13100004      -1787.81604    
   1.13399994      -1740.46887    
   1.13699996      -1677.86975    
   1.13999999      -1601.20508    
   1.14300001      -1511.75195    
   1.14600003      -1410.85583    
   1.14900005      -1299.90552    
   1.15199995      -1180.31616    
   1.15499997      -1053.52747    
   1.15799999      -921.009094    
   1.16100001      -784.248474    
   1.16400003      -644.710327    
   1.16700006      -503.796570    
   1.16999996      -362.842102    
   1.17299998      -223.139709    
   1.17600000      -85.9543533    
   1.17900002       47.4974937    
   1.18200004       176.085648    
   1.18499994       298.788483    
   1.18799996       414.689240    
   1.19099998       522.962646    
   1.19400001       622.870789    
   1.19700003       713.773010    
   1.20000005       795.141663    
   1.20299995       866.567627    
   1.20599997       927.757080    
   1.20899999       978.525085    
   1.21200001       1018.79504    
   1.21500003       1048.60205    
   1.21800005       1068.09070    
   1.22099996       1077.50110    
   1.22399998       1077.15283    
   1.22700000       1067.44617    
   1.23000002       1048.88428    
   1.23300004       1022.08368    
   1.23599994       987.741089    
   1.23899996       946.575500    
   1.24199998       899.300598    
   1.24500000       846.654358    
   1.24800003       789.442261    
   1.25100005       728.540222    
   1.25399995       664.846436    
   1.25699997       599.223450    
   1.25999999       532.471741    
   1.26300001       465.347504    
   1.26600003       398.598572    
   1.26900005       332.972931    
   1.27199996       269.178986    
   1.27499998       207.834946    
   1.27800000       149.461700    
   1.28100002       94.5198898    
   1.28400004       43.4389458    
   1.28699994      -3.39868617    
   1.28999996      -45.6959305    
   1.29299998      -83.2589645    
   1.29600000      -115.984032    
   1.29900002      -143.834717    
   1.30200005      -166.831055    
   1.30499995      -185.053009    
   1.30799997      -198.644836    
   1.31099999      -207.805344    
   1.31400001      -212.767639    
   1.31700003      -213.792542    
   1.32000005      -211.189117    
   1.32299995      -205.335861    
   1.32599998      -196.664688    
   1.32900000      -185.609619    
   1.33200002      -172.566925    
   1.33500004      -157.904587    
   1.33800006      -142.004761    
   1.34099996      -125.289124    
   1.34399998      -108.196327    
   1.34700000      -91.1311646    
   1.35000002      -74.4324799    
   1.35300004      -58.3874054    
   1.35599995      -43.2712135    
   1.35899997      -29.3665333    
   1.36199999      -16.9385471    
   1.36500001      -6.19252920    
   1.36800003       2.74081302    
   1.37100005       9.78066254    
   1.37399995       14.8662434    
   1.37699997       17.9559135    
   1.38000000       19.0462093    
   1.38300002       18.1768646    
   1.38600004       15.4152222    
   1.38900006       10.8489180    
   1.39199996       4.60315752    
   1.39499998      -3.14285254    
   1.39800000      -12.1712780    
   1.40100002      -22.2636738    
   1.40400004      -33.2238922    
   1.40699995      -44.8675079    
   1.40999997      -56.9952507    
   1.41299999      -69.3799973    
   1.41600001      -81.7814102    
   1.41900003      -93.9769135    
   1.42200005      -105.779518    
   1.42499995      -117.022362    
   1.42799997      -127.530128    
   1.43099999      -137.121201    
   1.43400002      -145.649582    
   1.43700004      -153.038223    
   1.44000006      -159.259705    
   1.44299996      -164.284058    
   1.44599998      -168.054459    
   1.44900000      -170.514099    
   1.45200002      -171.651001    
   1.45500004      -171.515472    
   1.45799994      -170.196228    
   1.46099997      -167.777283    
   1.46399999      -164.315094    
   1.46700001      -159.861099    
   1.47000003      -154.507080    
   1.47300005      -148.395233    
   1.47599995      -141.670349    
   1.47899997      -134.427963    
   1.48199999      -126.722137    
   1.48500001      -118.621002    
   1.48800004      -110.237206    
   1.49100006      -101.699783    
   1.49399996      -93.1099243    
   1.49699998      -84.5317078    
   1.50000000      -76.0141907    
   1.50300002      -67.6090775    
   1.50600004      -59.3687172    
   1.50899994      -51.3373451    
   1.51199996      -43.5498466    
   1.51499999      -36.0387535    
   1.51800001      -28.8402710    
   1.52100003      -21.9884262    
   1.52400005      -15.4976368    
   1.52699995      -9.35365009    
   1.52999997      -3.53354836    
   1.53299999       1.95767677    
   1.53600001       7.07673025    
   1.53900003       11.7795019    
   1.54200006       16.0711765    
   1.54499996       20.0114517    
   1.54799998       23.6630230    
   1.55100000       27.0341339    
   1.55400002       30.0742035    
   1.55700004       32.7278328    
   1.55999994       34.9957161    
   1.56299996       36.9453583    
   1.56599998       38.6624146    
   1.56900001       40.1886749    
   1.57200003       41.5050735    
   1.57500005       42.5731239    
   1.57799995       43.3892975    
   1.58099997       43.9963684    
   1.58399999       44.4475365    
   1.58700001       44.7709846    
   1.59000003       44.9723473    
   1.59300005       45.0596886    
   1.59599996       45.0523376    
   1.59899998       44.9664383    
   1.60200000       44.8030510    
   1.60500002       44.5551910    
   1.60800004       44.2215881    
   1.61099994       43.8105011    
   1.61399996       43.3328438    
   1.61699998       42.7926445    
   1.62000000       42.1809692    
   1.62300003       41.4793243    
   1.62600005       40.6734238    
   1.62899995       39.7639580    
   1.63199997       38.7595100    
   1.63499999       37.6592560    
   1.63800001       36.4494553    
   1.64100003       35.1199493    
   1.64400005       33.6795921    
   1.64699996       32.1530762    
   1.64999998       30.5664921    
   1.65300000       28.9364052    
   1.65600002       27.2658291    
   1.65900004       25.5481186    
   1.66199994       23.7834244    
   1.66499996       21.9995289    
   1.66799998       20.2517929    
   1.67100000       18.5925617    
   1.67400002       17.0385494    
   1.67700005       15.5721140    
   1.67999995       14.1741247    
   1.68299997       12.8526011    
   1.68599999       11.6408825    
   1.68900001       10.5713758    
   1.69200003       9.64877605    
   1.69500005       8.84447289    
   1.69799995       8.11955929    
   1.70099998       7.45865059    
   1.70400000       6.87863111    
   1.70700002       6.39670944    
   1.71000004       5.99110937    
   1.71300006       5.60358810    
   1.71599996       5.18515491    
   1.71899998       4.73193979    
   1.72200000       4.26937437    
   1.72500002       3.80601454    
   1.72800004       3.31268740    
   1.73099995       2.74931288    
   1.73399997       2.10641360    
   1.73699999       1.41474640    
   1.74000001      0.713747680    
   1.74300003       1.36690363E-02
   1.74600005     -0.707854331    
   1.74899995      -1.47124791    
   1.75199997      -2.26066017    
   1.75500000      -3.02873182    
   1.75800002      -3.73504925    
   1.76100004      -4.37286425    
   1.76400006      -4.95330572    
   1.76699996      -5.47135448    
   1.76999998      -5.90275383    
   1.77300000      -6.23864603    
   1.77600002      -6.50924730    
   1.77900004      -6.75833607    
   1.78199995      -6.99718809    
   1.78499997      -7.19841003    
   1.78799999      -7.34155703    
   1.79100001      -7.45836210    
   1.79400003      -7.62659168    
   1.79700005      -7.91910791    
   1.79999995      -8.35899067    
   1.80299997      -8.92374039    
   1.80599999      -9.59558964    
   1.80900002      -10.4081678    
   1.81200004      -11.4360275    
   1.81500006      -12.7317533    
   1.81799996      -14.2809935    
   1.82099998      -16.0314636    
   1.82400000      -17.9614830    
   1.82700002      -20.1022053    
   1.83000004      -22.4870911    
   1.83299994      -25.0934067    
   1.83599997      -27.8458405    
   1.83899999      -30.6741657    
   1.84200001      -33.5574265    
   1.84500003      -36.5075035    
   1.84800005      -39.5111771    
   1.85099995      -42.4930267    
   1.85399997      -45.3414612    
   1.85699999      -47.9743233    
   1.86000001      -50.3750610    
   1.86300004      -52.5602570    
   1.86600006      -54.5152740    
   1.86899996      -56.1669197    
   1.87199998      -57.4160042    
   1.87500000      -58.1893387    
   1.87800002      -58.4614563    
   1.88100004      -58.2357521    
   1.88399994      -57.5115395    
   1.88699996      -56.2670479    
   1.88999999      -54.4672737    
   1.89300001      -52.0824127    
   1.89600003      -49.0981178    
   1.89900005      -45.5138893    
   1.90199995      -41.3395844    
   1.90499997      -36.5949173    
   1.90799999      -31.3067169    
   1.91100001      -25.5026321    
   1.91400003      -19.2104588    
   1.91700006      -12.4681787    
   1.91999996      -5.33496618    
   1.92299998       2.11047721    
   1.92600000       9.78492737    
   1.92900002       17.6149101    
   1.93200004       25.5344620    
   1.93499994       33.4653969    
   1.93799996       41.2994003    
   1.94099998       48.9040375    
   1.94400001       56.1503601    
   1.94700003       62.9348412    
   1.95000005       69.1760483    
   1.95299995       74.7968369    
   1.95599997       79.7138901    
   1.95899999       83.8390427    
   1.96200001       87.0840149    
   1.96500003       89.3674622    
   1.96800005       90.6296768    
   1.97099996       90.8501205    
   1.97399998       90.0517731    
   1.97700000       88.2833328    
   1.98000002       85.5905609    
   1.98300004       82.0022964    
   1.98599994       77.5497513    
   1.98899996       72.3060379    
   1.99199998       66.4060898    
   1.99500000       60.0204124    
   1.99800003       53.3046684    
   2.00099993       46.3761978    
   2.00399995       39.3403473    
   2.00699997       32.3356094    
   2.00999999       25.5473881    
   2.01300001       19.1731129    
   2.01600003       13.3704834    
   2.01900005       8.23806190    
   2.02200007       3.84488368    
   2.02500010      0.273491055    
   2.02800012      -2.37376714    
   2.03099990      -4.01132917    
   2.03399992      -4.60506201    
   2.03699994      -4.16592169    
   2.03999996      -2.71631789    
   2.04299998     -0.273640633    
   2.04600000       3.12956309    
   2.04900002       7.41352940    
   2.05200005       12.4458475    
   2.05500007       18.0741043    
   2.05800009       24.1676636    
   2.06100011       30.6260815    
   2.06399989       37.3444633    
   2.06699991       44.1750908    
   2.06999993       50.9303970    
   2.07299995       57.4229622    
   2.07599998       63.4962425    
   2.07900000       69.0179367    
   2.08200002       73.8561707    
   2.08500004       77.8736267    
   2.08800006       80.9448090    
   2.09100008       82.9730530    
   2.09400010       83.8862000    
   2.09699988       83.6155090    
   2.09999990       82.0834808    
   2.10299993       79.2195511    
   2.10599995       74.9914169    
   2.10899997       69.4159393    
   2.11199999       62.5328064    
   2.11500001       54.3688927    
   2.11800003       44.9353371    