 -0.449999988       0.00000000    
 -0.446999997       0.00000000    
 -0.444000006       0.00000000    
 -0.441000015       0.00000000    
 -0.437999994       0.00000000    
 -0.435000002       0.00000000    
 -0.432000011       0.00000000    
 -0.428999990      -2.39437473E-32
 -0.425999999       2.50603229E-32
 -0.423000008      -3.41454853E-30
 -0.419999987      -2.72144975E-29
 -0.416999996       2.43207073E-30
 -0.414000005       5.40294127E-28
 -0.411000013       1.46464594E-27
 -0.407999992      -2.06049255E-27
 -0.405000001      -1.73213948E-26
 -0.402000010      -2.22474830E-26
 -0.398999989       6.40563560E-26
 -0.395999998       2.50134259E-25
 -0.393000007       1.52338310E-25
 -0.389999986      -8.56305357E-25
 -0.386999995      -2.15540505E-24
 -0.384000003      -4.71278620E-25
 -0.381000012       6.78244541E-24
 -0.377999991       1.26860777E-23
 -0.375000000      -1.49429780E-25
 -0.372000009      -3.57016957E-23
 -0.368999988      -5.34410034E-23
 -0.365999997       7.16880976E-24
 -0.363000005       1.25027019E-22
 -0.360000014       1.47120754E-22
 -0.356999993      -3.58931743E-23
 -0.354000002      -2.20977029E-22
 -0.351000011      -5.44625467E-23
 -0.347999990       2.12687578E-22
 -0.344999999      -5.09076908E-22
 -0.342000008      -2.35337913E-21
 -0.338999987      -1.91058163E-21
 -0.335999995       5.87098427E-21
 -0.333000004       1.80099644E-20
 -0.330000013       1.51327814E-20
 -0.326999992      -2.53160436E-20
 -0.324000001      -8.83270114E-20
 -0.321000010      -9.21721928E-20
 -0.317999989       5.95810634E-20
 -0.314999998       3.31090957E-19
 -0.312000006       4.42613644E-19
 -0.308999985       1.55113749E-20
 -0.305999994      -9.64973186E-19
 -0.303000003      -1.72103726E-18
 -0.300000012      -9.37275664E-19
 -0.296999991       1.98787114E-18
 -0.294000000       5.43076415E-18
 -0.291000009       5.48286081E-18
 -0.287999988      -1.31060895E-18
 -0.284999996      -1.33204765E-17
 -0.282000005      -2.11395915E-17
 -0.279000014      -1.15183395E-17
 -0.275999993       2.09134585E-17
 -0.273000002       6.04565994E-17
 -0.270000011       6.88366537E-17
 -0.266999990       7.30233969E-18
 -0.263999999      -1.20695789E-16
 -0.261000007      -2.34529712E-16
 -0.257999986      -1.95045536E-16
 -0.254999995       9.45589003E-17
 -0.252000004       5.43429975E-16
 -0.248999998       8.06250375E-16
 -0.246000007       4.39264748E-16
 -0.243000001      -7.02088034E-16
 -0.239999995      -2.06038774E-15
 -0.237000003      -2.40407030E-15
 -0.233999997      -5.92541210E-16
 -0.231000006       3.18028642E-15
 -0.228000000       6.61956206E-15
 -0.224999994       6.15777748E-15
 -0.222000003      -4.04861896E-16
 -0.218999997      -1.09191127E-14
 -0.216000006      -1.82499635E-14
 -0.213000000      -1.39256071E-14
 -0.209999993       4.99291491E-15
 -0.207000002       3.03906850E-14
 -0.203999996       4.44527329E-14
 -0.201000005       2.98701222E-14
 -0.197999999      -1.58163786E-14
 -0.194999993      -7.16881727E-14
 -0.192000002      -9.96787220E-14
 -0.188999996      -6.62210765E-14
 -0.186000004       3.12009499E-14
 -0.182999998       1.49838610E-13
 -0.180000007       2.13884452E-13
 -0.177000001       1.54186329E-13
 -0.173999995      -4.07628812E-14
 -0.171000004      -2.92050401E-13
 -0.167999998      -4.45908366E-13
 -0.165000007      -3.49531303E-13
 -0.162000000       3.72778522E-14
 -0.158999994       5.59193046E-13
 -0.156000003       8.90230218E-13
 -0.152999997       7.03858900E-13
 -0.150000006      -7.31880377E-14
 -0.147000000      -1.08911697E-12
 -0.143999994      -1.66034038E-12
 -0.141000003      -1.17768013E-12
 -0.137999997       3.72966686E-13
 -0.135000005       2.16327715E-12
 -0.131999999       2.86986385E-12
 -0.128999993       1.56107950E-12
 -0.126000002      -1.41291959E-12
 -0.123000003      -4.26349277E-12
 -0.119999997      -4.71735715E-12
 -0.116999999      -1.65774610E-12
 -0.114000000       3.66471046E-12
 -0.111000001       7.93442048E-12
 -0.108000003       7.73505565E-12
 -0.104999997       2.04239707E-12
 -0.101999998      -6.53829551E-12
  -9.89999995E-02  -1.29368408E-11
  -9.60000008E-02  -1.26917955E-11
  -9.30000022E-02  -4.95753221E-12
  -9.00000036E-02   6.66698034E-12
  -8.69999975E-02   1.61564893E-11
  -8.39999989E-02   1.85929726E-11
  -8.10000002E-02   1.28502582E-11
  -7.80000016E-02   1.79141500E-12
  -7.50000030E-02  -9.80160224E-12
  -7.19999969E-02  -1.78720944E-11
  -6.89999983E-02  -2.06100519E-11
  -6.59999996E-02  -1.83646084E-11
  -6.30000010E-02  -1.26258518E-11
  -5.99999987E-02  -4.91603633E-12
  -5.70000000E-02   4.12451930E-12
  -5.40000014E-02   1.53545596E-11
  -5.09999990E-02   3.07167174E-11
  -4.80000004E-02   5.06493424E-11
  -4.50000018E-02   6.95590530E-11
  -4.19999994E-02   7.26517457E-11
  -3.90000008E-02   3.94304450E-11
  -3.59999985E-02  -4.33726006E-11
  -3.29999998E-02  -1.64190536E-10
  -2.99999993E-02  -2.76804996E-10
  -2.70000007E-02  -3.11140391E-10
  -2.40000002E-02  -2.06727482E-10
  -2.09999997E-02   4.59499418E-11
  -1.79999992E-02   3.81754961E-10
  -1.49999997E-02   6.74597100E-10
  -1.20000001E-02   7.86918031E-10
  -8.99999961E-03   6.30264618E-10
  -6.00000005E-03   2.04688169E-10
  -3.00000003E-03  -4.00804639E-10
   5.55111512E-17  -1.03886655E-09
   3.00000003E-03  -1.54122548E-09
   6.00000005E-03  -1.74446713E-09
   8.99999961E-03  -1.50733137E-09
   1.20000001E-02  -7.38789252E-10
   1.49999997E-02   5.50510415E-10
   1.79999992E-02   2.18740648E-09
   2.09999997E-02   3.80436926E-09
   2.40000002E-02   4.87508034E-09
   2.70000007E-02   4.82941198E-09
   2.99999993E-02   3.22594884E-09
   3.29999998E-02  -5.93139565E-11
   3.59999985E-02  -4.67189576E-09
   3.90000008E-02  -9.69115188E-09
   4.19999994E-02  -1.36754510E-08
   4.50000018E-02  -1.49081032E-08
   4.80000004E-02  -1.18747030E-08
   5.09999990E-02  -3.89672117E-09
   5.40000014E-02   8.29166780E-09
   5.70000000E-02   2.23116086E-08
   5.99999987E-02   3.44653550E-08
   6.30000010E-02   4.06082563E-08
   6.59999996E-02   3.72992410E-08
   6.89999983E-02   2.28387158E-08
   7.19999969E-02  -2.10255746E-09
   7.50000030E-02  -3.43243265E-08
   7.80000016E-02  -6.82849048E-08
   8.10000002E-02  -9.65369011E-08
   8.39999989E-02  -1.10511181E-07
   8.69999975E-02  -1.01908512E-07
   9.00000036E-02  -6.48408047E-08
   9.30000022E-02   1.57274416E-09
   9.60000008E-02   9.09668714E-08
   9.89999995E-02   1.88890979E-07
  0.101999998       2.74124943E-07
  0.104999997       3.22206830E-07
  0.108000003       3.10494244E-07
  0.111000001       2.23678697E-07
  0.114000000       5.86951536E-08
  0.116999999      -1.71794866E-07
  0.119999997      -4.38019185E-07
  0.123000003      -6.94491234E-07
  0.126000002      -8.84812152E-07
  0.128999993      -9.50059871E-07
  0.131999999      -8.40040457E-07
  0.135000005      -5.25626547E-07
  0.137999997      -9.74032499E-09
  0.141000003       6.65427592E-07
  0.143999994       1.41672854E-06
  0.147000000       2.12484156E-06
  0.150000006       2.64581331E-06
  0.152999997       2.82905694E-06
  0.156000003       2.54069118E-06
  0.158999994       1.68978045E-06
  0.162000000       2.53551377E-07
  0.165000007      -1.70319800E-06
  0.167999998      -4.01878242E-06
  0.171000004      -6.43767635E-06
  0.173999995      -8.62546131E-06
  0.177000001      -1.01928845E-05
  0.180000007      -1.07249471E-05
  0.182999998      -9.81060930E-06
  0.186000004      -7.06835408E-06
  0.188999996      -2.16209764E-06
  0.192000002       5.19905780E-06
  0.194999993       1.52837129E-05
  0.197999999       2.83885911E-05
  0.201000005       4.49181680E-05
  0.203999996       6.54921168E-05
  0.207000002       9.10779781E-05
  0.209999993       1.23147867E-04
  0.213000000       1.63860910E-04
  0.216000006       2.16277011E-04
  0.218999997       2.84611073E-04
  0.222000003       3.74541181E-04
  0.224999994       4.93589032E-04
  0.228000000       6.51598035E-04
  0.231000006       8.61343171E-04
  0.233999997       1.13931834E-03
  0.237000003       1.50675385E-03
  0.239999995       1.99092505E-03
  0.243000001       2.62682303E-03
  0.246000007       3.45927035E-03
  0.248999998       4.54559177E-03
  0.252000004       5.95895387E-03
  0.254999995       7.79253757E-03
  0.257999986       1.01647163E-02
  0.261000007       1.32255042E-02
  0.263999999       1.71645116E-02
  0.266999990       2.22207624E-02
  0.270000011       2.86947507E-02
  0.273000002       3.69631723E-02
  0.275999993       4.74969633E-02
  0.279000014       6.08831868E-02
  0.282000005       7.78516382E-02
  0.284999996       9.93069708E-02
  0.287999988      0.126367286    
  0.291000009      0.160410523    
  0.294000000      0.203129604    
  0.296999991      0.256598592    
  0.300000012      0.323351055    
  0.303000003      0.406472892    
  0.305999994      0.509711683    
  0.308999985      0.637604296    
  0.312000006      0.795626462    
  0.314999998      0.990367174    
  0.317999989       1.22973061    
  0.321000010       1.52316976    
  0.324000001       1.88195384    
  0.326999992       2.31947565    
  0.330000013       2.85160065    
  0.333000004       3.49706054    
  0.335999995       4.27789879    
  0.338999987       5.21997023    
  0.342000008       6.35349512    
  0.344999999       7.71367693    
  0.347999990       9.34137917    
  0.351000011       11.2838621    
  0.354000002       13.5955830    
  0.356999993       16.3390598    
  0.360000014       19.5858002    
  0.363000005       23.4172764    
  0.365999997       27.9259357    
  0.368999988       33.2162590    
  0.372000009       39.4057922    
  0.375000000       46.6262245    
  0.377999991       55.0244217    
  0.381000012       64.7634277    
  0.384000003       76.0233994    
  0.386999995       89.0023346    
  0.389999986       103.916664    
  0.393000007       121.001617    
  0.395999998       140.511398    
  0.398999989       162.718933    
  0.402000010       187.915359    
  0.405000001       216.408829    
  0.407999992       248.522903    
  0.411000013       284.594299    
  0.414000005       324.970032    
  0.416999996       370.003784    
  0.419999987       420.051239    
  0.423000008       475.464661    
  0.425999999       536.586609    
  0.428999990       603.742493    
  0.432000011       677.232300    
  0.435000002       757.321289    
  0.437999994       844.229248    
  0.441000015       938.118591    
  0.444000006       1039.08240    
  0.446999997       1147.13135    
  0.449999988       1262.18091    
  0.453000009       1384.03467    
  0.456000000       1512.37048    
  0.458999991       1646.72522    
  0.462000012       1786.48096    
  0.465000004       1930.85120    
  0.467999995       2078.86719    
  0.470999986       2229.36646    
  0.474000007       2380.98267    
  0.476999998       2532.13794    
  0.479999989       2681.03760    
  0.483000010       2825.67017    
  0.486000001       2963.80664    
  0.488999993       3093.00781    
  0.492000014       3210.63745    
  0.495000005       3313.87866    
  0.497999996       3399.75049    
  0.500999987       3465.13525    
  0.504000008       3506.81079    
  0.507000029       3521.49072    
  0.509999990       3505.87256    
  0.513000011       3456.68481    
  0.515999973       3370.73755    
  0.518999994       3244.97974    
  0.522000015       3076.56421    
  0.524999976       2862.91504    
  0.527999997       2601.79761    
  0.531000018       2291.38843    
  0.533999979       1930.34338    
  0.537000000       1517.86047    
  0.540000021       1053.74500    
  0.542999983       538.468384    
  0.546000004      -26.7773762    
  0.549000025      -640.032104    
  0.551999986      -1298.53394    
  0.555000007      -1998.69800    
  0.558000028      -2736.10693    
  0.560999990      -3505.51001    
  0.564000010      -4300.83496    
  0.566999972      -5115.21680    
  0.569999993      -5941.04834    
  0.573000014      -6770.04883    
  0.575999975      -7593.35010    
  0.578999996      -8401.58887    
  0.582000017      -9185.01465    
  0.584999979      -9933.59180    
  0.588000000      -10637.1494    
  0.591000021      -11285.5254    
  0.593999982      -11868.7354    
  0.597000003      -12377.1230    
  0.600000024      -12801.5166    
  0.602999985      -13133.3750    
  0.606000006      -13364.9521    
  0.609000027      -13489.4463    
  0.611999989      -13501.1475    
  0.615000010      -13395.5684    
  0.617999971      -13169.5459    
  0.620999992      -12821.3330    
  0.624000013      -12350.6660    
  0.626999974      -11758.8213    
  0.629999995      -11048.6367    
  0.633000016      -10224.5234    
  0.635999978      -9292.43457    
  0.638999999      -8259.81836    
  0.642000020      -7135.52734    
  0.644999981      -5929.71680    
  0.648000002      -4653.71924    
  0.651000023      -3319.90674    
  0.653999984      -1941.53638    
  0.657000005      -532.566833    
  0.660000026       892.545349    
  0.662999988       2319.06470    
  0.666000009       3732.19092    
  0.669000030       5117.25049    
  0.671999991       6459.88379    
  0.675000012       7746.24365    
  0.677999973       8963.20508    
  0.680999994       10098.5781    
  0.684000015       11141.2764    
  0.686999977       12081.4551    
  0.689999998       12910.6104    
  0.693000019       13621.6670    
  0.695999980       14209.0674    
  0.699000001       14668.8457    
  0.702000022       14998.6807    
  0.704999983       15197.8965    
  0.708000004       15267.4004    
  0.711000025       15209.6328    
  0.713999987       15028.4824    
  0.717000008       14729.2217    
  0.720000029       14318.4072    
  0.722999990       13803.7520    
  0.726000011       13193.9795    
  0.728999972       12498.6504    
  0.731999993       11727.9990    
  0.735000014       10892.7842    
  0.737999976       10004.1221    
  0.740999997       9073.31152    
  0.744000018       8111.66406    
  0.746999979       7130.34619    
  0.750000000       6140.24121    
  0.753000021       5151.81592    
  0.755999982       4174.98828    
  0.759000003       3218.99536    
  0.762000024       2292.30127    
  0.764999986       1402.52637    
  0.768000007       556.396301    
  0.771000028      -240.309982    
  0.773999989      -982.800598    
  0.777000010      -1667.28479    
  0.779999971      -2290.96338    
  0.782999992      -2852.00684    
  0.786000013      -3349.52344    
  0.788999975      -3783.51270    
  0.791999996      -4154.80615    
  0.795000017      -4464.99658    
  0.797999978      -4716.35840    
  0.800999999      -4911.75977    
  0.804000020      -5054.58936    
  0.806999981      -5148.67529    
  0.810000002      -5198.18701    
  0.813000023      -5207.51709    
  0.815999985      -5181.18018    
  0.819000006      -5123.74023    
  0.822000027      -5039.75342    
  0.824999988      -4933.69873    
  0.828000009      -4809.89600    
  0.830999970      -4672.41699    
  0.833999991      -4525.03223    
  0.837000012      -4371.16602    
  0.839999974      -4213.88086    
  0.842999995      -4055.86646    
  0.846000016      -3899.42163    
  0.848999977      -3746.43286    
  0.851999998      -3598.35840    
  0.855000019      -3456.23486    
  0.857999980      -3320.70630    
  0.861000001      -3192.05933    
  0.864000022      -3070.26147    
  0.866999984      -2955.00195    
  0.870000005      -2845.71826    
  0.873000026      -2741.61768    
  0.875999987      -2641.70361    
  0.879000008      -2544.82935    
  0.882000029      -2449.77148    
  0.884999990      -2355.29663    
  0.888000011      -2260.19385    
  0.890999973      -2163.28809    
  0.893999994      -2063.45508    
  0.897000015      -1959.65503    
  0.899999976      -1850.97583    
  0.902999997      -1736.67236    
  0.906000018      -1616.19287    
  0.908999979      -1489.19067    
  0.912000000      -1355.52124    
  0.915000021      -1215.23047    
  0.917999983      -1068.54211    
  0.921000004      -915.856445    
  0.924000025      -757.761475    
  0.926999986      -595.041809    
  0.930000007      -428.666718    
  0.933000028      -259.748749    
  0.935999990      -89.4891968    
  0.939000010       80.8607864    
  0.941999972       250.002441    
  0.944999993       416.569794    
  0.948000014       579.131592    
  0.950999975       736.242737    
  0.953999996       886.520386    
  0.957000017       1028.68787    
  0.959999979       1161.56592    
  0.963000000       1284.04688    
  0.966000021       1395.10071    
  0.968999982       1493.81580    
  0.972000003       1579.44092    
  0.975000024       1651.39734    
  0.977999985       1709.27063    
  0.981000006       1752.80090    
  0.984000027       1781.88440    
  0.986999989       1796.58484    
  0.990000010       1797.13538    
  0.992999971       1783.91736    
  0.995999992       1757.43567    
  0.999000013       1718.31921    
   1.00199997       1667.34106    
   1.00500000       1605.41748    
   1.00800002       1533.56995    
   1.01100004       1452.87109    
   1.01400006       1364.41956    
   1.01699996       1269.35181    
   1.01999998       1168.85608    
   1.02300000       1064.16089    
   1.02600002       956.493469    
   1.02900004       847.039978    
   1.03199995       736.930481    
   1.03499997       627.246216    
   1.03799999       519.021240    
   1.04100001       413.222809    
   1.04400003       310.722198    
   1.04700005       212.280930    
   1.04999995       118.557693    
   1.05299997       30.1182632    
   1.05599999      -52.5677872    
   1.05900002      -129.138138    
   1.06200004      -199.338058    
   1.06500006      -263.006836    
   1.06799996      -320.070282    
   1.07099998      -370.552887    
   1.07400000      -414.590363    
   1.07700002      -452.412415    
   1.08000004      -484.298492    
   1.08299994      -510.545959    
   1.08599997      -531.474792    
   1.08899999      -547.448730    
   1.09200001      -558.879944    
   1.09500003      -566.206787    
   1.09800005      -569.863953    
   1.10099995      -570.263733    
   1.10399997      -567.795471    
   1.10699999      -562.832031    
   1.11000001      -555.724426    
   1.11300004      -546.781738    
   1.11600006      -536.255859    
   1.11899996      -524.350647    
   1.12199998      -511.246704    
   1.12500000      -497.109863    
   1.12800002      -482.076202    
   1.13100004      -466.233063    
   1.13399994      -449.620178    
   1.13699996      -432.246857    
   1.13999999      -414.105225    
   1.14300001      -395.171234    
   1.14600003      -375.404236    
   1.14900005      -354.759552    
   1.15199995      -333.210602    
   1.15499997      -310.756134    
   1.15799999      -287.403137    
   1.16100001      -263.145721    
   1.16400003      -237.972702    
   1.16700006      -211.902863    
   1.16999996      -185.010986    
   1.17299998      -157.412781    
   1.17600000      -129.224976    
   1.17900002      -100.546242    
   1.18200004      -71.4815750    
   1.18499994      -42.1823273    
   1.18799996      -12.8539686    
   1.19099998       16.2811489    
   1.19400001       45.0296402    
   1.19700003       73.2354202    
   1.20000005       100.746605    
   1.20299995       127.383095    
   1.20599997       152.944565    
   1.20899999       177.250366    
   1.21200001       200.165283    
   1.21500003       221.584015    
   1.21800005       241.399353    
   1.22099996       259.496979    
   1.22399998       275.783203    
   1.22700000       290.210358    
   1.23000002       302.769653    
   1.23300004       313.462280    
   1.23599994       322.279327    
   1.23899996       329.207336    
   1.24199998       334.249146    
   1.24500000       337.438934    
   1.24800003       338.835754    
   1.25100005       338.499146    
   1.25399995       336.468018    
   1.25699997       332.761261    
   1.25999999       327.398376    
   1.26300001       320.418549    
   1.26600003       311.881927    
   1.26900005       301.854645    
   1.27199996       290.390900    
   1.27499998       277.522766    
   1.27800000       263.263367    
   1.28100002       247.623505    
   1.28400004       230.635132    
   1.28699994       212.367920    
   1.28999996       192.922806    
   1.29299998       172.401474    
   1.29600000       150.878799    
   1.29900002       128.409042    
   1.30200005       105.065056    
   1.30499995       80.9729462    
   1.30799997       56.3101921    
   1.31099999       31.2752323    
   1.31400001       6.05985165    
   1.31700003      -19.1549778    
   1.32000005      -44.1821175    
   1.32299995      -68.8073959    
   1.32599998      -92.7861404    
   1.32900000      -115.863480    
   1.33200002      -137.797516    
   1.33500004      -158.359222    
   1.33800006      -177.314972    
   1.34099996      -194.421936    
   1.34399998      -209.445923    
   1.34700000      -222.178650    
   1.35000002      -232.438660    
   1.35300004      -240.069305    
   1.35599995      -244.944901    
   1.35899997      -246.973724    
   1.36199999      -246.088470    
   1.36500001      -242.239624    
   1.36800003      -235.408524    
   1.37100005      -225.630508    
   1.37399995      -213.002472    
   1.37699997      -197.665558    
   1.38000000      -179.778687    
   1.38300002      -159.506393    
   1.38600004      -137.031799    
   1.38900006      -112.584602    
   1.39199996      -86.4564819    
   1.39499998      -58.9827118    
   1.39800000      -30.4987907    
   1.40100002      -1.31103790    
   1.40400004       28.2880325    
   1.40699995       57.9751854    
   1.40999997       87.3756485    
   1.41299999       116.097572    
   1.41600001       143.791229    
   1.41900003       170.172363    
   1.42200005       194.990250    
   1.42499995       217.981705    
   1.42799997       238.860580    
   1.43099999       257.351196    
   1.43400002       273.233521    
   1.43700004       286.363434    
   1.44000006       296.652283    
   1.44299996       304.023376    
   1.44599998       308.389648    
   1.44900000       309.680145    
   1.45200002       307.889771    
   1.45500004       303.095062    
   1.45799994       295.418823    
   1.46099997       284.986389    
   1.46399999       271.920990    
   1.46700001       256.370728    
   1.47000003       238.528717    
   1.47300005       218.627045    
   1.47599995       196.919907    
   1.47899997       173.673828    
   1.48199999       149.166031    
   1.48500001       123.681526    
   1.48800004       97.5046387    
   1.49100006       70.9094009    
   1.49399996       44.1580124    
   1.49699998       17.5121307    
   1.50000000      -8.75162220    
   1.50300002      -34.3428726    
   1.50600004      -58.9865532    
   1.50899994      -82.4599075    
   1.51199996      -104.601196    
   1.51499999      -125.279221    
   1.51800001      -144.355682    
   1.52100003      -161.679703    
   1.52400005      -177.117981    
   1.52699995      -190.587067    
   1.52999997      -202.057816    
   1.53299999      -211.532425    
   1.53600001      -219.020233    
   1.53900003      -224.536636    
   1.54200006      -228.123520    
   1.54499996      -229.863785    
   1.54799998      -229.867477    
   1.55100000      -228.241394    
   1.55400002      -225.078583    
   1.55700004      -220.481995    
   1.55999994      -214.592453    
   1.56299996      -207.582336    
   1.56599998      -199.616013    
   1.56900001      -190.820801    
   1.57200003      -181.300690    
   1.57500005      -171.175369    
   1.57799995      -160.597443    
   1.58099997      -149.727280    
   1.58399999      -138.693008    
   1.58700001      -127.577003    
   1.59000003      -116.438744    
   1.59300005      -105.349098    
   1.59599996      -94.4038467    
   1.59899998      -83.7042923    
   1.60200000      -73.3227615    
   1.60500002      -63.2875404    
   1.60800004      -53.6047058    
   1.61099994      -44.2922211    
   1.61399996      -35.3867035    
   1.61699998      -26.9198971    
   1.62000000      -18.9001427    
   1.62300003      -11.3203278    
   1.62600005      -4.17465019    
   1.62899995       2.53817391    
   1.63199997       8.82197857    
   1.63499999       14.6870956    
   1.63800001       20.1483784    
   1.64100003       25.2197685    
   1.64400005       29.9086094    
   1.64699996       34.2189026    
   1.64999998       38.1663322    
   1.65300000       41.7853584    
   1.65600002       45.1095009    
   1.65900004       48.1441193    
   1.66199994       50.8704643    
   1.66499996       53.2808838    
   1.66799998       55.4016113    
   1.67100000       57.2755623    
   1.67400002       58.9281006    
   1.67700005       60.3544159    
   1.67999995       61.5367050    
   1.68299997       62.4690552    
   1.68599999       63.1658134    
   1.68900001       63.6478615    
   1.69200003       63.9227333    
   1.69500005       63.9805946    
   1.69799995       63.8104286    
   1.70099998       63.4164543    
   1.70400000       62.8146286    
   1.70700002       62.0135231    
   1.71000004       61.0025597    
   1.71300006       59.7614632    
   1.71599996       58.2805634    
   1.71899998       56.5698509    
   1.72200000       54.6478996    
   1.72500002       52.5253792    
   1.72800004       50.2025642    
   1.73099995       47.6799202    
   1.73399997       44.9641037    
   1.73699999       42.0630646    
   1.74000001       38.9834099    
   1.74300003       35.7381401    
   1.74600005       32.3522720    
   1.74899995       28.8541355    
   1.75199997       25.2604465    
   1.75500000       21.5731926    
   1.75800002       17.7939301    
   1.76100004       13.9435654    
   1.76400006       10.0675964    
   1.76699996       6.21462011    
   1.76999998       2.40205622    
   1.77300000      -1.39293540    
   1.77600002      -5.19699574    
   1.77900004      -8.99263859    
   1.78199995      -12.7161312    
   1.78499997      -16.3089561    
   1.78799999      -19.7657452    
   1.79100001      -23.1255913    
   1.79400003      -26.4201508    
   1.79700005      -29.6364555    
   1.79999995      -32.7282295    
   1.80299997      -35.6556892    
   1.80599999      -38.4107437    
   1.80900002      -41.0065727    
   1.81200004      -43.4486160    
   1.81500006      -45.7199211    
   1.81799996      -47.7941742    
   1.82099998      -49.6549454    
   1.82400000      -51.2917786    
   1.82700002      -52.6770248    
   1.83000004      -53.7596893    
   1.83299994      -54.4956589    
   1.83599997      -54.8818398    
   1.83899999      -54.9452782    
   1.84200001      -54.6887856    
   1.84500003      -54.0531349    
   1.84800005      -52.9455605    
   1.85099995      -51.3107033    
   1.85399997      -49.1692238    
   1.85699999      -46.5815430    
   1.86000001      -43.5750771    
   1.86300004      -40.1134338    
   1.86600006      -36.1395035    
   1.86899996      -31.6427441    
   1.87199998      -26.6763763    
   1.87500000      -21.3113976    
   1.87800002      -15.5877409    
   1.88100004      -9.51987362    
   1.88399994      -3.14249325    
   1.88699996       3.46618342    
   1.88999999       10.2130556    
   1.89300001       17.0328941    
   1.89600003       23.8898315    
   1.89900005       30.7330112    
   1.90199995       37.4589348    
   1.90499997       43.9298859    
   1.90799999       50.0354767    
   1.91100001       55.7318382    
   1.91400003       61.0119705    
   1.91700006       65.8356628    
   1.91999996       70.0955276    
   1.92299998       73.6597824    
   1.92600000       76.4481964    
   1.92900002       78.4607315    
   1.93200004       79.7306824    
   1.93499994       80.2575455    
   1.93799996       79.9918060    
   1.94099998       78.8792114    
   1.94400001       76.9074402    
   1.94700003       74.1086655    
   1.95000005       70.5314178    
   1.95299995       66.2227325    
   1.95599997       61.2326164    
   1.95899999       55.6197090    
   1.96200001       49.4418678    
   1.96500003       42.7422218    
   1.96800005       35.5543633    
   1.97099996       27.9331856    
   1.97399998       19.9848042    
   1.97700000       11.8548269    
   1.98000002       3.66964746    
   1.98300004      -4.51448488    
   1.98599994      -12.6928282    
   1.98899996      -20.8348160    
   1.99199998      -28.8297539    
   1.99500000      -36.5146675    
   1.99800003      -43.7532578    
   2.00099993      -50.4851761    
   2.00399995      -56.7043800    
   2.00699997      -62.3973732    
   2.00999999      -67.5018158    
   2.01300001      -71.9166565    
   2.01600003      -75.5451660    
   2.01900005      -78.3283539    
   2.02200007      -80.2452621    
   2.02500010      -81.2931290    
   2.02800012      -81.4723969    
   2.03099990      -80.7822876    
   2.03399992      -79.2158127    
   2.03699994      -76.7522583    
   2.03999996      -73.3627396    
   2.04299998      -69.0368576    
   2.04600000      -63.8105392    
   2.04900002      -57.7627144    
   2.05200005      -50.9754601    
   2.05500007      -43.4927902    
   2.05800009      -35.3196831    
   2.06100011      -26.4628239    
   2.06399989      -16.9718876    
   2.06699991      -6.94279575    
   2.06999993       3.51439047    
   2.07299995       14.3088770    
   2.07599998       25.3756733    
   2.07900000       36.6562805    
   2.08200002       48.0766983    
   2.08500004       59.5439873    
   2.08800006       70.9592285    
   2.09100008       82.2255707    
   2.09400010       93.2399979    
   2.09699988       103.886795    
   2.09999990       114.053375    
   2.10299993       123.654144    
   2.10599995       132.624268    
   2.10899997       140.878235    
   2.11199999       148.279602    
   2.11500001       154.664642    
   2.11800003       159.900787    