 -0.449999988       0.00000000    
 -0.446999997       0.00000000    
 -0.444000006       0.00000000    
 -0.441000015       0.00000000    
 -0.437999994       0.00000000    
 -0.435000002       0.00000000    
 -0.432000011       0.00000000    
 -0.428999990      -1.88041691E-29
 -0.425999999      -1.52570184E-29
 -0.423000008       4.91786067E-28
 -0.419999987       2.75338976E-27
 -0.416999996       6.87057789E-27
 -0.414000005       1.65453156E-27
 -0.411000013      -4.75106610E-26
 -0.407999992      -1.45333644E-25
 -0.405000001      -8.38106595E-26
 -0.402000010       5.58705017E-25
 -0.398999989       1.51526276E-24
 -0.395999998       5.50654445E-25
 -0.393000007      -4.67485559E-24
 -0.389999986      -9.52063053E-24
 -0.386999995       2.58477178E-25
 -0.384000003       2.91602875E-23
 -0.381000012       4.01338918E-23
 -0.377999991      -2.84344882E-23
 -0.375000000      -1.52330631E-22
 -0.372000009      -1.27387051E-22
 -0.368999988       2.60515672E-22
 -0.365999997       7.62631545E-22
 -0.363000005       4.39846677E-22
 -0.360000014      -1.49035399E-21
 -0.356999993      -3.83196104E-21
 -0.354000002      -2.62376743E-21
 -0.351000011       5.80084275E-21
 -0.347999990       1.79178937E-20
 -0.344999999       1.84540634E-20
 -0.342000008      -1.14857800E-20
 -0.338999987      -6.94151229E-20
 -0.335999995      -1.05407684E-19
 -0.333000004      -3.27987582E-20
 -0.330000013       1.92279749E-19
 -0.326999992       4.50701144E-19
 -0.324000001       4.21836185E-19
 -0.321000010      -2.19519828E-19
 -0.317999989      -1.36767004E-18
 -0.314999998      -2.13193023E-18
 -0.312000006      -1.11590573E-18
 -0.308999985       2.37873342E-18
 -0.305999994       6.80959730E-18
 -0.303000003       8.03411247E-18
 -0.300000012       1.57876870E-18
 -0.296999991      -1.27819977E-17
 -0.294000000      -2.71619031E-17
 -0.291000009      -2.68959530E-17
 -0.287999988       4.09672365E-19
 -0.284999996       5.11119665E-17
 -0.282000005       9.63266249E-17
 -0.279000014       8.88976960E-17
 -0.275999993      -7.63725520E-18
 -0.273000002      -1.77072079E-16
 -0.270000011      -3.23129385E-16
 -0.266999990      -2.93578761E-16
 -0.263999999       2.42534120E-17
 -0.261000007       5.68135438E-16
 -0.257999986       1.02230619E-15
 -0.254999995       9.15294909E-16
 -0.252000004      -6.45453929E-17
 -0.248999998      -1.67467286E-15
 -0.246000007      -2.95780835E-15
 -0.243000001      -2.61621881E-15
 -0.239999995       8.35355473E-17
 -0.237000003       4.36078099E-15
 -0.233999997       7.71457449E-15
 -0.231000006       7.01220418E-15
 -0.228000000       6.10338325E-16
 -0.224999994      -9.68463845E-15
 -0.222000003      -1.83483938E-14
 -0.218999997      -1.84025955E-14
 -0.216000006      -5.58043390E-15
 -0.213000000       1.76503879E-14
 -0.209999993       4.07464996E-14
 -0.207000002       4.81988649E-14
 -0.203999996       2.70577035E-14
 -0.201000005      -2.35193487E-14
 -0.197999999      -8.53830624E-14
 -0.194999993      -1.23015123E-13
 -0.192000002      -9.77473446E-14
 -0.188999996       7.43789118E-15
 -0.186000004       1.63809572E-13
 -0.182999998       2.91728257E-13
 -0.180000007       2.89414380E-13
 -0.177000001       9.30679755E-14
 -0.173999995      -2.59861116E-13
 -0.171000004      -6.09099468E-13
 -0.167999998      -7.26100929E-13
 -0.165000007      -4.37930725E-13
 -0.162000000       2.38562642E-13
 -0.158999994       1.03903052E-12
 -0.156000003       1.53234294E-12
 -0.152999997       1.32799858E-12
 -0.150000006       3.15245036E-13
 -0.147000000      -1.20055864E-12
 -0.143999994      -2.56285791E-12
 -0.141000003      -3.03038302E-12
 -0.137999997      -2.13659472E-12
 -0.135000005       2.71731473E-14
 -0.131999999       2.75382646E-12
 -0.128999993       4.94318345E-12
 -0.126000002       5.53382297E-12
 -0.123000003       3.96744096E-12
 -0.119999997       4.75884956E-13
 -0.116999999      -3.95159686E-12
 -0.114000000      -7.91133044E-12
 -0.111000001      -1.00649974E-11
 -0.108000003      -9.51383590E-12
 -0.104999997      -5.92153626E-12
 -0.101999998       5.40895020E-13
  -9.89999995E-02   9.18177426E-12
  -9.60000008E-02   1.85195314E-11
  -9.30000022E-02   2.58955600E-11
  -9.00000036E-02   2.74822907E-11
  -8.69999975E-02   1.92645691E-11
  -8.39999989E-02  -8.95843458E-13
  -8.10000002E-02  -3.08383805E-11
  -7.80000016E-02  -6.27165958E-11
  -7.50000030E-02  -8.39757638E-11
  -7.19999969E-02  -8.10879142E-11
  -6.89999983E-02  -4.50692782E-11
  -6.59999996E-02   2.32363209E-11
  -6.30000010E-02   1.10292608E-10
  -5.99999987E-02   1.90915783E-10
  -5.70000000E-02   2.33604497E-10
  -5.40000014E-02   2.09409892E-10
  -5.09999990E-02   1.02569689E-10
  -4.80000004E-02  -7.98778682E-11
  -4.50000018E-02  -3.03028713E-10
  -4.19999994E-02  -5.06900577E-10
  -3.90000008E-02  -6.18519014E-10
  -3.59999985E-02  -5.71482250E-10
  -3.29999998E-02  -3.27942923E-10
  -2.99999993E-02   1.03405680E-10
  -2.70000007E-02   6.58435251E-10
  -2.40000002E-02   1.22001154E-09
  -2.09999997E-02   1.63182190E-09
  -1.79999992E-02   1.72352677E-09
  -1.49999997E-02   1.34781108E-09
  -1.20000001E-02   4.28342084E-10
  -8.99999961E-03  -9.88225168E-10
  -6.00000005E-03  -2.69157940E-09
  -3.00000003E-03  -4.29975566E-09
   5.55111512E-17  -5.30287814E-09
   3.00000003E-03  -5.16548493E-09
   6.00000005E-03  -3.47566997E-09
   8.99999961E-03  -1.11049565E-10
   1.20000001E-02   4.62078775E-09
   1.49999997E-02   9.91382709E-09
   1.79999992E-02   1.45089469E-08
   2.09999997E-02   1.68793743E-08
   2.40000002E-02   1.55536721E-08
   2.70000007E-02   9.53214752E-09
   2.99999993E-02  -1.29124234E-09
   3.29999998E-02  -1.58167452E-08
   3.59999985E-02  -3.16460387E-08
   3.90000008E-02  -4.52775204E-08
   4.19999994E-02  -5.25987645E-08
   4.50000018E-02  -4.96312644E-08
   4.80000004E-02  -3.34470052E-08
   5.09999990E-02  -3.14787107E-09
   5.40000014E-02   3.92439574E-08
   5.70000000E-02   8.82019506E-08
   5.99999987E-02   1.34690538E-07
   6.30000010E-02   1.66998220E-07
   6.59999996E-02   1.72530221E-07
   6.89999983E-02   1.40431169E-07
   7.19999969E-02   6.46198401E-08
   7.50000030E-02  -5.33897726E-08
   7.80000016E-02  -2.02556663E-07
   8.10000002E-02  -3.61831184E-07
   8.39999989E-02  -5.01480770E-07
   8.69999975E-02  -5.86360784E-07
   9.00000036E-02  -5.81055303E-07
   9.30000022E-02  -4.56553551E-07
   9.60000008E-02  -1.97771200E-07
   9.89999995E-02   1.89207398E-07
  0.101999998       6.71653765E-07
  0.104999997       1.18808191E-06
  0.108000003       1.65080542E-06
  0.111000001       1.95381131E-06
  0.114000000       1.98572025E-06
  0.116999999       1.64672360E-06
  0.119999997       8.67651124E-07
  0.123000003      -3.71170501E-07
  0.126000002      -2.02384626E-06
  0.128999993      -3.96811265E-06
  0.131999999      -6.00178328E-06
  0.135000005      -7.84744225E-06
  0.137999997      -9.16501631E-06
  0.141000003      -9.57030352E-06
  0.143999994      -8.65610673E-06
  0.147000000      -6.01147212E-06
  0.150000006      -1.23383768E-06
  0.152999997       6.07154834E-06
  0.156000003       1.63106833E-05
  0.158999994       2.99437397E-05
  0.162000000       4.75560555E-05
  0.165000007       6.99594093E-05
  0.167999998       9.83242644E-05
  0.171000004       1.34343412E-04
  0.173999995       1.80429313E-04
  0.177000001       2.39950925E-04
  0.180000007       3.17520695E-04
  0.182999998       4.19346470E-04
  0.186000004       5.53670572E-04
  0.188999996       7.31321808E-04
  0.192000002       9.66414867E-04
  0.194999993       1.27723790E-03
  0.197999999       1.68737769E-03
  0.201000005       2.22715596E-03
  0.203999996       2.93546147E-03
  0.207000002       3.86207411E-03
  0.209999993       5.07059740E-03
  0.213000000       6.64213113E-03
  0.216000006       8.67985189E-03
  0.218999997       1.13146948E-02
  0.222000003       1.47123970E-02
  0.224999994       1.90821942E-02
  0.228000000       2.46875435E-02
  0.231000006       3.18592750E-02
  0.233999997       4.10116576E-02
  0.237000003       5.26619926E-02
  0.239999995       6.74543753E-02
  0.243000001       8.61885995E-02
  0.246000007      0.109854892    
  0.248999998      0.139675766    
  0.252000004      0.177156091    
  0.254999995      0.224142984    
  0.257999986      0.282896966    
  0.261000007      0.356176227    
  0.263999999      0.447336167    
  0.266999990      0.560446799    
  0.270000011      0.700430036    
  0.273000002      0.873219728    
  0.275999993       1.08594847    
  0.279000014       1.34716153    
  0.282000005       1.66706610    
  0.284999996       2.05781722    
  0.287999988       2.53384209    
  0.291000009       3.11220813    
  0.294000000       3.81304097    
  0.296999991       4.65999174    
  0.300000012       5.68076468    
  0.303000003       6.90769863    
  0.305999994       8.37840939    
  0.308999985       10.1364937    
  0.312000006       12.2323036    
  0.314999998       14.7237673    
  0.317999989       17.6772881    
  0.321000010       21.1686878    
  0.324000001       25.2842121    
  0.326999992       30.1215420    
  0.330000013       35.7908401    
  0.333000004       42.4158363    
  0.335999995       50.1348648    
  0.338999987       59.1018715    
  0.342000008       69.4873886    
  0.344999999       81.4793091    
  0.347999990       95.2836304    
  0.351000011       111.124878    
  0.354000002       129.246414    
  0.356999993       149.910263    
  0.360000014       173.396774    
  0.363000005       200.003632    
  0.365999997       230.044678    
  0.368999988       263.847809    
  0.372000009       301.752502    
  0.375000000       344.105957    
  0.377999991       391.259308    
  0.381000012       443.562317    
  0.384000003       501.357666    
  0.386999995       564.973938    
  0.389999986       634.717407    
  0.393000007       710.862732    
  0.395999998       793.642822    
  0.398999989       883.237915    
  0.402000010       979.763550    
  0.405000001       1083.25696    
  0.407999992       1193.66357    
  0.411000013       1310.82336    
  0.414000005       1434.45483    
  0.416999996       1564.14075    
  0.419999987       1699.31213    
  0.423000008       1839.23633    
  0.425999999       1983.00110    
  0.428999990       2129.50366    
  0.432000011       2277.43945    
  0.435000002       2425.29443    
  0.437999994       2571.34033    
  0.441000015       2713.62866    
  0.444000006       2849.99414    
  0.446999997       2978.05884    
  0.449999988       3095.24658    
  0.453000009       3198.79419    
  0.456000000       3285.77222    
  0.458999991       3353.11060    
  0.462000012       3397.63135    
  0.465000004       3416.08813    
  0.467999995       3405.21069    
  0.470999986       3361.75439    
  0.474000007       3282.55225    
  0.476999998       3164.57520    
  0.479999989       3005.00073    
  0.483000010       2801.28296    
  0.486000001       2551.22314    
  0.488999993       2253.03149    
  0.492000014       1905.39856    
  0.495000005       1507.56873    
  0.497999996       1059.41199    
  0.500999987       561.487549    
  0.504000008       15.0957413    
  0.507000029      -577.681152    
  0.509999990      -1213.94763    
  0.513000011      -1889.96802    
  0.515999973      -2601.14795    
  0.518999994      -3342.03369    
  0.522000015      -4106.33252    
  0.524999976      -4886.95605    
  0.527999997      -5676.07373    
  0.531000018      -6465.18311    
  0.533999979      -7245.19971    
  0.537000000      -8006.55469    
  0.540000021      -8739.31641    
  0.542999983      -9433.31934    
  0.546000004      -10078.3232    
  0.549000025      -10664.1709    
  0.551999986      -11180.9531    
  0.555000007      -11619.1797    
  0.558000028      -11969.9492    
  0.560999990      -12225.1162    
  0.564000010      -12377.4629    
  0.566999972      -12420.8574    
  0.569999993      -12350.4014    
  0.573000014      -12162.5635    
  0.575999975      -11855.2803    
  0.578999996      -11428.0557    
  0.582000017      -10882.0098    
  0.584999979      -10219.9268    
  0.588000000      -9446.26074    
  0.591000021      -8567.12109    
  0.593999982      -7590.22119    
  0.597000003      -6524.78613    
  0.600000024      -5381.43799    
  0.602999985      -4172.06689    
  0.606000006      -2909.68530    
  0.609000027      -1608.22827    
  0.611999989      -282.331879    
  0.615000010       1052.88660    
  0.617999971       2382.05396    
  0.620999992       3689.77905    
  0.624000013       4960.90283    
  0.626999974       6180.73389    
  0.629999995       7335.27588    
  0.633000016       8411.45801    
  0.635999978       9397.34961    
  0.638999999       10282.3428    
  0.642000020       11057.3115    
  0.644999981       11714.7363    
  0.648000002       12248.8164    
  0.651000023       12655.5293    
  0.653999984       12932.6738    
  0.657000005       13079.8945    
  0.660000026       13098.6611    
  0.662999988       12992.1973    
  0.666000009       12765.3789    
  0.669000030       12424.6191    
  0.671999991       11977.7432    
  0.675000012       11433.8242    
  0.677999973       10802.9971    
  0.680999994       10096.2529    
  0.684000015       9325.22363    
  0.686999977       8502.00586    
  0.689999998       7638.95654    
  0.693000019       6748.47266    
  0.695999980       5842.75439    
  0.699000001       4933.59424    
  0.702000022       4032.23145    
  0.704999983       3149.23950    
  0.708000004       2294.40015    
  0.711000025       1476.54321    
  0.713999987       703.399109    
  0.717000008      -18.4842587    
  0.720000029      -683.743408    
  0.722999990      -1288.17517    
  0.726000011      -1828.73474    
  0.728999972      -2303.55347    
  0.731999993      -2711.93457    
  0.735000014      -3054.29468    
  0.737999976      -3332.05518    
  0.740999997      -3547.52490    
  0.744000018      -3703.79834    
  0.746999979      -3804.66699    
  0.750000000      -3854.51807    
  0.753000021      -3858.20508    
  0.755999982      -3820.91406    
  0.759000003      -3748.04126    
  0.762000024      -3645.08838    
  0.764999986      -3517.55664    
  0.768000007      -3370.83374    
  0.771000028      -3210.08911    
  0.773999989      -3040.20044    
  0.777000010      -2865.69873    
  0.779999971      -2690.71484    
  0.782999992      -2518.91333    
  0.786000013      -2353.44189    
  0.788999975      -2196.91431    
  0.791999996      -2051.43066    
  0.795000017      -1918.59314    
  0.797999978      -1799.50220    
  0.800999999      -1694.74438    
  0.804000020      -1604.41174    
  0.806999981      -1528.16907    
  0.810000002      -1465.33032    
  0.813000023      -1414.90894    
  0.815999985      -1375.64294    
  0.819000006      -1346.02490    
  0.822000027      -1324.35901    
  0.824999988      -1308.83179    
  0.828000009      -1297.57727    
  0.830999970      -1288.72644    
  0.833999991      -1280.44519    
  0.837000012      -1270.97766    
  0.839999974      -1258.69507    
  0.842999995      -1242.13025    
  0.846000016      -1219.98633    
  0.848999977      -1191.13965    
  0.851999998      -1154.67041    
  0.855000019      -1109.90710    
  0.857999980      -1056.44482    
  0.861000001      -994.116211    
  0.864000022      -922.953308    
  0.866999984      -843.177124    
  0.870000005      -755.217834    
  0.873000026      -659.726379    
  0.875999987      -557.547546    
  0.879000008      -449.657654    
  0.882000029      -337.110779    
  0.884999990      -221.029770    
  0.888000011      -102.628105    
  0.890999973       16.7889633    
  0.893999994       135.873474    
  0.897000015       253.301498    
  0.899999976       367.807861    
  0.902999997       478.183990    
  0.906000018       583.274597    
  0.908999979       681.995789    
  0.912000000       773.362793    
  0.915000021       856.502197    
  0.917999983       930.650330    
  0.921000004       995.152954    
  0.924000025       1049.48328    
  0.926999986       1093.26636    
  0.930000007       1126.28137    
  0.933000028       1148.42932    
  0.935999990       1159.70020    
  0.939000010       1160.18298    
  0.941999972       1150.10693    
  0.944999993       1129.85718    
  0.948000014       1099.92969    
  0.950999975       1060.86694    
  0.953999996       1013.23834    
  0.957000017       957.676453    
  0.959999979       894.918213    
  0.963000000       825.798462    
  0.966000021       751.194763    
  0.968999982       671.973633    
  0.972000003       588.982178    
  0.975000024       503.078583    
  0.977999985       415.152649    
  0.981000006       326.100098    
  0.984000027       236.776093    
  0.986999989       147.980942    
  0.990000010       60.4874191    
  0.992999971      -24.9379234    
  0.995999992      -107.558540    
  0.999000013      -186.714737    
   1.00199997      -261.842438    
   1.00500000      -332.449890    
   1.00800002      -398.087280    
   1.01100004      -458.345795    
   1.01400006      -512.882507    
   1.01699996      -561.441833    
   1.01999998      -603.851135    
   1.02300000      -640.003052    
   1.02600002      -669.848511    
   1.02900004      -693.407959    
   1.03199995      -710.776001    
   1.03499997      -722.098877    
   1.03799999      -727.545532    
   1.04100001      -727.312012    
   1.04400003      -721.655640    
   1.04700005      -710.909241    
   1.04999995      -695.440674    
   1.05299997      -675.593933    
   1.05599999      -651.675903    
   1.05900002      -624.000061    
   1.06200004      -592.932983    
   1.06500006      -558.884766    
   1.06799996      -522.245972    
   1.07099998      -483.331940    
   1.07400000      -442.395264    
   1.07700002      -399.692139    
   1.08000004      -355.523438    
   1.08299994      -310.197449    
   1.08599997      -263.957214    
   1.08899999      -216.963852    
   1.09200001      -169.356812    
   1.09500003      -121.313446    
   1.09800005      -73.0358734    
   1.10099995      -24.6915913    
   1.10399997       23.6092072    
   1.10699999       71.7700043    
   1.11000001       119.653152    
   1.11300004       167.079590    
   1.11600006       213.880234    
   1.11899996       259.933289    
   1.12199998       305.135101    
   1.12500000       349.330688    
   1.12800002       392.283966    
   1.13100004       433.727936    
   1.13399994       473.437286    
   1.13699996       511.233917    
   1.13999999       546.919312    
   1.14300001       580.219910    
   1.14600003       610.815491    
   1.14900005       638.413635    
   1.15199995       662.781128    
   1.15499997       683.700012    
   1.15799999       700.911926    
   1.16100001       714.122131    
   1.16400003       723.062378    
   1.16700006       727.539978    
   1.16999996       727.416626    
   1.17299998       722.551819    
   1.17600000       712.788086    
   1.17900002       698.006042    
   1.18200004       678.182312    
   1.18499994       653.374207    
   1.18799996       623.651367    
   1.19099998       589.064270    
   1.19400001       549.692993    
   1.19700003       505.719086    
   1.20000005       457.434723    
   1.20299995       405.180023    
   1.20599997       349.281006    
   1.20899999       290.057465    
   1.21200001       227.885757    
   1.21500003       163.238785    
   1.21800005       96.6521988    
   1.22099996       28.6556759    
   1.22399998      -40.2488365    
   1.22700000      -109.540627    
   1.23000002      -178.634323    
   1.23300004      -246.902313    
   1.23599994      -313.742126    
   1.23899996      -378.607819    
   1.24199998      -440.975067    
   1.24500000      -500.295258    
   1.24800003      -556.004395    
   1.25100005      -607.579468    
   1.25399995      -654.576782    
   1.25699997      -696.609680    
   1.25999999      -733.301758    
   1.26300001      -764.282043    
   1.26600003      -789.236267    
   1.26900005      -807.955872    
   1.27199996      -820.324341    
   1.27499998      -826.262939    
   1.27800000      -825.707153    
   1.28100002      -818.640930    
   1.28400004      -805.142517    
   1.28699994      -785.383057    
   1.28999996      -759.585876    
   1.29299998      -727.999023    
   1.29600000      -690.910400    
   1.29900002      -648.684021    
   1.30200005      -601.768555    
   1.30499995      -550.660522    
   1.30799997      -495.858612    
   1.31099999      -437.859863    
   1.31400001      -377.200195    
   1.31700003      -314.483032    
   1.32000005      -250.350067    
   1.32299995      -185.422424    
   1.32599998      -120.281723    
   1.32900000      -55.5077858    
   1.33200002       8.28389072    
   1.33500004       70.4611588    
   1.33800006       130.433151    
   1.34099996       187.682297    
   1.34399998       241.739853    
   1.34700000       292.143372    
   1.35000002       338.432343    
   1.35300004       380.190308    
   1.35599995       417.085663    
   1.35899997       448.869995    
   1.36199999       475.345642    
   1.36500001       496.347015    
   1.36800003       511.755859    
   1.37100005       521.527222    
   1.37399995       525.694824    
   1.37699997       524.356873    
   1.38000000       517.664001    
   1.38300002       505.825958    
   1.38600004       489.120300    
   1.38900006       467.885345    
   1.39199996       442.496613    
   1.39499998       413.351379    
   1.39800000       380.881012    
   1.40100002       345.575562    
   1.40400004       307.985382    
   1.40699995       268.684387    
   1.40999997       228.227570    
   1.41299999       187.145813    
   1.41600001       145.976852    
   1.41900003       105.285912    
   1.42200005       65.6411133    
   1.42499995       27.5665188    
   1.42799997      -8.47632504    
   1.43099999      -42.0656204    
   1.43400002      -72.7942810    
   1.43700004      -100.279182    
   1.44000006      -124.193962    
   1.44299996      -144.288757    
   1.44599998      -160.383820    
   1.44900000      -172.355713    
   1.45200002      -180.134674    
   1.45500004      -183.711777    
   1.45799994      -183.142090    
   1.46099997      -178.535812    
   1.46399999      -170.045853    
   1.46700001      -157.868225    
   1.47000003      -142.260040    
   1.47300005      -123.552635    
   1.47599995      -102.132187    
   1.47899997      -78.3964310    
   1.48199999      -52.7311020    
   1.48500001      -25.5312786    
   1.48800004       2.76339483    
   1.49100006       31.6710606    
   1.49399996       60.7145882    
   1.49699998       89.4658051    
   1.50000000       117.541138    
   1.50300002       144.558304    
   1.50600004       170.108902    
   1.50899994       193.784729    
   1.51199996       215.235153    
   1.51499999       234.197342    
   1.51800001       250.473007    
   1.52100003       263.886078    
   1.52400005       274.270203    
   1.52699995       281.492859    
   1.52999997       285.481384    
   1.53299999       286.223572    
   1.53600001       283.750214    
   1.53900003       278.126221    
   1.54200006       269.459747    
   1.54499996       257.911255    
   1.54799998       243.680801    
   1.55100000       226.980942    
   1.55400002       208.027374    
   1.55700004       187.061859    
   1.55999994       164.377319    
   1.56299996       140.303589    
   1.56599998       115.161270    
   1.56900001       89.2343521    
   1.57200003       62.7914734    
   1.57500005       36.1261024    
   1.57799995       9.56266403    
   1.58099997      -16.5822697    
   1.58399999      -42.0420494    
   1.58700001      -66.5999985    
   1.59000003      -90.0524979    
   1.59300005      -112.184608    
   1.59599996      -132.791733    
   1.59899998      -151.721176    
   1.60200000      -168.880447    
   1.60500002      -184.202713    
   1.60800004      -197.614105    
   1.61099994      -209.042679    
   1.61399996      -218.454926    
   1.61699998      -225.874725    
   1.62000000      -231.365829    
   1.62300003      -235.000046    
   1.62600005      -236.845505    
   1.62899995      -236.983826    
   1.63199997      -235.529999    
   1.63499999      -232.623489    
   1.63800001      -228.395523    
   1.64100003      -222.954773    
   1.64400005      -216.414017    
   1.64699996      -208.923691    
   1.64999998      -200.661133    
   1.65300000      -191.783493    
   1.65600002      -182.403046    
   1.65900004      -172.615967    
   1.66199994      -162.541260    
   1.66499996      -152.314163    
   1.66799998      -142.040451    
   1.67100000      -131.773331    
   1.67400002      -121.548325    
   1.67700005      -111.437057    
   1.67999995      -101.551941    
   1.68299997      -91.9884262    
   1.68599999      -82.7680435    
   1.68900001      -73.8503036    
   1.69200003      -65.2040176    
   1.69500005      -56.8590813    
   1.69799995      -48.8823433    
   1.70099998      -41.3095093    
   1.70400000      -34.1130753    
   1.70700002      -27.2398434    
   1.71000004      -20.6693707    
   1.71300006      -14.4243813    
   1.71599996      -8.52581215    
   1.71899998      -2.95228720    
   1.72200000       2.34394979    
   1.72500002       7.38491964    
   1.72800004       12.1460361    
   1.73099995       16.5956459    
   1.73399997       20.7464924    
   1.73699999       24.6524639    
   1.74000001       28.3514690    
   1.74300003       31.8243694    
   1.74600005       35.0215683    
   1.74899995       37.9250526    
   1.75199997       40.5706100    
   1.75500000       43.0056038    
   1.75800002       45.2363739    
   1.76100004       47.2282486    
   1.76400006       48.9538689    
   1.76699996       50.4288673    
   1.76999998       51.6933899    
   1.77300000       52.7649994    
   1.77600002       53.6220856    
   1.77900004       54.2387505    
   1.78199995       54.6286659    
   1.78499997       54.8423004    
   1.78799999       54.9179916    
   1.79100001       54.8469353    
   1.79400003       54.5983391    
   1.79700005       54.1753616    
   1.79999995       53.6310654    
   1.80299997       53.0227356    
   1.80599999       52.3609428    
   1.80900002       51.6156998    
   1.81200004       50.7709694    
   1.81500006       49.8619003    
   1.81799996       48.9530754    
   1.82099998       48.0851059    
   1.82400000       47.2495575    
   1.82700002       46.4172096    
   1.83000004       45.5854340    
   1.83299994       44.7916527    
   1.83599997       44.0805664    
   1.83899999       43.4651947    
   1.84200001       42.9250031    
   1.84500003       42.4370041    
   1.84800005       41.9980774    
   1.85099995       41.6149254    
   1.85399997       41.2819519    
   1.85699999       40.9785690    
   1.86000001       40.6866837    
   1.86300004       40.4011040    
   1.86600006       40.1157112    
   1.86899996       39.8009644    
   1.87199998       39.4028130    
   1.87500000       38.8712196    
   1.87800002       38.1898079    
   1.88100004       37.3707619    
   1.88399994       36.4166718    
   1.88699996       35.2930183    
   1.88999999       33.9457283    
   1.89300001       32.3426094    
   1.89600003       30.4878311    
   1.89900005       28.3951950    
   1.90199995       26.0594616    
   1.90499997       23.4633484    
   1.90799999       20.6077938    
   1.91100001       17.5243912    
   1.91400003       14.2543917    
   1.91700006       10.8199654    
   1.91999996       7.22113609    
   1.92299998       3.46251941    
   1.92600000     -0.419075489    
   1.92900002      -4.35817432    
   1.93200004      -8.29399109    
   1.93499994      -12.1961737    
   1.93799996      -16.0522785    
   1.94099998      -19.8340073    
   1.94400001      -23.4876518    
   1.94700003      -26.9622974    
   1.95000005      -30.2381496    
   1.95299995      -33.3172112    
   1.95599997      -36.1889687    
   1.95899999      -38.8161278    
   1.96200001      -41.1582565    
   1.96500003      -43.2026176    
   1.96800005      -44.9639168    
   1.97099996      -46.4558868    
   1.97399998      -47.6738472    
   1.97700000      -48.6124153    
   1.98000002      -49.2935638    
   1.98300004      -49.7617912    
   1.98599994      -50.0440331    
   1.98899996      -50.1228867    
   1.99199998      -49.9630775    
   1.99500000      -49.5675659    
   1.99800003      -48.9986305    
   2.00099993      -48.3349991    
   2.00399995      -47.6085663    
   2.00699997      -46.7889175    
   2.00999999      -45.8308678    
   2.01300001      -44.7308578    
   2.01600003      -43.5309601    
   2.01900005      -42.2711067    
   2.02200007      -40.9479294    
   2.02500010      -39.5261574    
   2.02800012      -37.9837227    
   2.03099990      -36.3327370    
   2.03399992      -34.5911369    
   2.03699994      -32.7429504    
   2.03999996      -30.7405186    
   2.04299998      -28.5477238    
   2.04600000      -26.1670780    
   2.04900002      -23.6115627    
   2.05200005      -20.8563347    
   2.05500007      -17.8369122    
   2.05800009      -14.5009718    
   2.06100011      -10.8480406    
   2.06399989      -6.90483952    
   2.06699991      -2.66650271    
   2.06999993       1.92415917    
   2.07299995       6.93594408    
   2.07599998       12.3954449    
   2.07900000       18.2780972    
   2.08200002       24.5477161    
   2.08500004       31.1965351    
   2.08800006       38.2422180    
   2.09100008       45.6901779    
   2.09400010       53.5086746    
   2.09699988       61.6438179    
   2.09999990       70.0478210    
   2.10299993       78.6777496    
   2.10599995       87.4668808    
   2.10899997       96.3123474    
   2.11199999       105.101135    
   2.11500001       113.741867    
   2.11800003       122.158287    