 -0.449999988       0.00000000    
 -0.446999997       0.00000000    
 -0.444000006       0.00000000    
 -0.441000015       0.00000000    
 -0.437999994       0.00000000    
 -0.435000002       0.00000000    
 -0.432000011       0.00000000    
 -0.428999990       6.04228010E-25
 -0.425999999       3.89726791E-24
 -0.423000008      -1.62463981E-24
 -0.419999987      -6.56228901E-23
 -0.416999996      -1.53918097E-22
 -0.414000005       1.69176219E-22
 -0.411000013       1.35484349E-21
 -0.407999992       1.72656565E-21
 -0.405000001      -3.36291086E-21
 -0.402000010      -1.36140778E-20
 -0.398999989      -1.04056397E-20
 -0.395999998       3.25925382E-20
 -0.393000007       9.10789961E-20
 -0.389999986       4.48352895E-20
 -0.386999995      -2.10898215E-19
 -0.384000003      -4.82320330E-19
 -0.381000012      -1.82779980E-19
 -0.377999991       1.05368283E-18
 -0.375000000       2.24022203E-18
 -0.372000009       9.07316940E-19
 -0.368999988      -4.32292115E-18
 -0.365999997      -9.54984401E-18
 -0.363000005      -5.27006901E-18
 -0.360000014       1.44778693E-17
 -0.356999993       3.72611216E-17
 -0.354000002       2.94731963E-17
 -0.351000011      -3.56676806E-17
 -0.347999990      -1.28307704E-16
 -0.344999999      -1.42270208E-16
 -0.342000008       3.37549081E-17
 -0.338999987       3.64092215E-16
 -0.335999995       5.65215027E-16
 -0.333000004       2.38652195E-16
 -0.330000013      -7.27495317E-16
 -0.326999992      -1.76314228E-15
 -0.324000001      -1.70694207E-15
 -0.321000010       3.52560100E-16
 -0.317999989       3.87775325E-15
 -0.314999998       6.35240363E-15
 -0.312000006       4.38889910E-15
 -0.308999985      -3.59115246E-15
 -0.305999994      -1.46315285E-14
 -0.303000003      -2.08154552E-14
 -0.300000012      -1.28024854E-14
 -0.296999991       1.31784012E-14
 -0.294000000       4.82041233E-14
 -0.291000009       6.88712596E-14
 -0.287999988       4.61176981E-14
 -0.284999996      -3.44400615E-14
 -0.282000005      -1.48757173E-13
 -0.279000014      -2.25292224E-13
 -0.275999993      -1.70629204E-13
 -0.273000002       6.60556137E-14
 -0.270000011       4.18555029E-13
 -0.266999990       6.78717716E-13
 -0.263999999       5.76581534E-13
 -0.261000007      -3.71275920E-14
 -0.257999986      -9.99874771E-13
 -0.254999995      -1.79036712E-12
 -0.252000004      -1.73686044E-12
 -0.248999998      -4.38927296E-13
 -0.246000007       1.82185864E-12
 -0.243000001       3.98404356E-12
 -0.239999995       4.60173132E-12
 -0.237000003       2.63000624E-12
 -0.233999997      -1.78635687E-12
 -0.231000006      -7.00140640E-12
 -0.228000000      -1.03337191E-11
 -0.224999994      -9.23322530E-12
 -0.222000003      -2.69094100E-12
 -0.218999997       7.76971543E-12
 -0.216000006       1.81086986E-11
 -0.213000000       2.30382310E-11
 -0.209999993       1.82652556E-11
 -0.207000002       2.88672276E-12
 -0.203999996      -1.91924462E-11
 -0.201000005      -3.97744372E-11
 -0.197999999      -4.90359905E-11
 -0.194999993      -3.95283181E-11
 -0.192000002      -9.89824021E-12
 -0.188999996       3.33146462E-11
 -0.186000004       7.66597757E-11
 -0.182999998       1.03271502E-10
 -0.180000007       9.78563272E-11
 -0.177000001       5.20479215E-11
 -0.173999995      -3.08081685E-11
 -0.171000004      -1.32566152E-10
 -0.167999998      -2.20718666E-10
 -0.165000007      -2.54605614E-10
 -0.162000000      -1.98467909E-10
 -0.158999994      -3.91266915E-11
 -0.156000003       1.98177461E-10
 -0.152999997       4.44808163E-10
 -0.150000006       6.01935668E-10
 -0.147000000       5.72649761E-10
 -0.143999994       3.04462400E-10
 -0.141000003      -1.73998732E-10
 -0.137999997      -7.40179251E-10
 -0.135000005      -1.20067878E-09
 -0.131999999      -1.34940414E-09
 -0.128999993      -1.04478382E-09
 -0.126000002      -2.78715578E-10
 -0.123000003       7.91715637E-10
 -0.119999997       1.86821247E-09
 -0.116999999       2.58962918E-09
 -0.114000000       2.64230837E-09
 -0.111000001       1.86698190E-09
 -0.108000003       3.27843974E-10
 -0.104999997      -1.67697733E-09
 -0.101999998      -3.66581054E-09
  -9.89999995E-02  -5.07231368E-09
  -9.60000008E-02  -5.37365752E-09
  -9.30000022E-02  -4.22722390E-09
  -9.00000036E-02  -1.59303115E-09
  -8.69999975E-02   2.18557106E-09
  -8.39999989E-02   6.37377484E-09
  -8.10000002E-02   9.93555549E-09
  -7.80000016E-02   1.17298633E-08
  -7.50000030E-02   1.07911449E-08
  -7.19999969E-02   6.64011246E-09
  -6.89999983E-02  -4.55094601E-10
  -6.59999996E-02  -9.35690458E-09
  -6.30000010E-02  -1.81501036E-08
  -5.99999987E-02  -2.44770355E-08
  -5.70000000E-02  -2.60747193E-08
  -5.40000014E-02  -2.13952518E-08
  -5.09999990E-02  -1.01417337E-08
  -4.80000004E-02   6.43972875E-09
  -4.50000018E-02   2.56021391E-08
  -4.19999994E-02   4.34684111E-08
  -3.90000008E-02   5.56544713E-08
  -3.59999985E-02   5.80517820E-08
  -3.29999998E-02   4.76948792E-08
  -2.99999993E-02   2.36377193E-08
  -2.70000007E-02  -1.22980985E-08
  -2.40000002E-02  -5.51359030E-08
  -2.09999997E-02  -9.69944409E-08
  -1.79999992E-02  -1.28160579E-07
  -1.49999997E-02  -1.38929607E-07
  -1.20000001E-02  -1.21870912E-07
  -8.99999961E-03  -7.39811696E-08
  -6.00000005E-03   1.81913062E-09
  -3.00000003E-03   9.62282769E-08
   5.55111512E-17   1.94298153E-07
   3.00000003E-03   2.77313433E-07
   6.00000005E-03   3.25619453E-07
   8.99999961E-03   3.22069099E-07
   1.20000001E-02   2.55614452E-07
   1.49999997E-02   1.24453749E-07
   1.79999992E-02  -6.18716953E-08
   2.09999997E-02  -2.81916414E-07
   2.40000002E-02  -5.03608021E-07
   2.70000007E-02  -6.87489774E-07
   2.99999993E-02  -7.91892660E-07
   3.29999998E-02  -7.79720096E-07
   3.59999985E-02  -6.26031749E-07
   3.90000008E-02  -3.25006454E-07
   4.19999994E-02   1.05481831E-07
   4.50000018E-02   6.23115852E-07
   4.80000004E-02   1.16458284E-06
   5.09999990E-02   1.65227630E-06
   5.40000014E-02   2.00256841E-06
   5.70000000E-02   2.13434510E-06
   5.99999987E-02   1.97769305E-06
   6.30000010E-02   1.48364677E-06
   6.59999996E-02   6.35669210E-07
   6.89999983E-02  -5.38162112E-07
   7.19999969E-02  -1.95542634E-06
   7.50000030E-02  -3.47613741E-06
   7.80000016E-02  -4.90859429E-06
   8.10000002E-02  -6.02343016E-06
   8.39999989E-02  -6.57129794E-06
   8.69999975E-02  -6.29810665E-06
   9.00000036E-02  -4.95304903E-06
   9.30000022E-02  -2.28805811E-06
   9.60000008E-02   1.94995118E-06
   9.89999995E-02   8.03256626E-06
  0.101999998       1.62700890E-05
  0.104999997       2.70428918E-05
  0.108000003       4.08502383E-05
  0.111000001       5.83816400E-05
  0.114000000       8.06131065E-05
  0.116999999       1.08928289E-04
  0.119999997       1.45263999E-04
  0.123000003       1.92283056E-04
  0.126000002       2.53583043E-04
  0.128999993       3.33953474E-04
  0.131999999       4.39702882E-04
  0.135000005       5.79082698E-04
  0.137999997       7.62833224E-04
  0.141000003       1.00488053E-03
  0.143999994       1.32321741E-03
  0.147000000       1.74100685E-03
  0.150000006       2.28796876E-03
  0.152999997       3.00211832E-03
  0.156000003       3.93196847E-03
  0.158999994       5.13929734E-03
  0.162000000       6.70267083E-03
  0.165000007       8.72186199E-03
  0.167999998       1.13233086E-02
  0.171000004       1.46667436E-02
  0.173999995       1.89532638E-02
  0.177000001       2.44352371E-02
  0.180000007       3.14285606E-02
  0.182999998       4.03275676E-02
  0.186000004       5.16231731E-02
  0.188999996       6.59250841E-02
  0.192000002       8.39884952E-02
  0.194999993      0.106745929    
  0.197999999      0.135345444    
  0.201000005      0.171196252    
  0.203999996      0.216022953    
  0.207000002      0.271929830    
  0.209999993      0.341477454    
  0.213000000      0.427771896    
  0.216000006      0.534569681    
  0.218999997      0.666401207    
  0.222000003      0.828713298    
  0.224999994       1.02803493    
  0.228000000       1.27216876    
  0.231000006       1.57040691    
  0.233999997       1.93378007    
  0.237000003       2.37534118    
  0.239999995       2.91048932    
  0.243000001       3.55732584    
  0.246000007       4.33705759    
  0.248999998       5.27444935    
  0.252000004       6.39831686    
  0.254999995       7.74207878    
  0.257999986       9.34434509    
  0.261000007       11.2495670    
  0.263999999       13.5087185    
  0.266999990       16.1800346    
  0.270000011       19.3297768    
  0.273000002       23.0330563    
  0.275999993       27.3746834    
  0.279000014       32.4499588    
  0.282000005       38.3655052    
  0.284999996       45.2400284    
  0.287999988       53.2051544    
  0.291000009       62.4060440    
  0.294000000       73.0021133    
  0.296999991       85.1672516    
  0.300000012       99.0900574    
  0.303000003       114.974037    
  0.305999994       133.037231    
  0.308999985       153.511581    
  0.312000006       176.641922    
  0.314999998       202.684570    
  0.317999989       231.905548    
  0.321000010       264.577881    
  0.324000001       300.978668    
  0.326999992       341.385010    
  0.330000013       386.069366    
  0.333000004       435.294312    
  0.335999995       489.306335    
  0.338999987       548.329773    
  0.342000008       612.558838    
  0.344999999       682.148376    
  0.347999990       757.203796    
  0.351000011       837.771423    
  0.354000002       923.828308    
  0.356999993       1015.27234    
  0.360000014       1111.90930    
  0.363000005       1213.44141    
  0.365999997       1319.45325    
  0.368999988       1429.40210    
  0.372000009       1542.60669    
  0.375000000       1658.24133    
  0.377999991       1775.32446    
  0.381000012       1892.70825    
  0.384000003       2009.07300    
  0.386999995       2122.92798    
  0.389999986       2232.61353    
  0.393000007       2336.30396    
  0.395999998       2432.00928    
  0.398999989       2517.58569    
  0.402000010       2590.75366    
  0.405000001       2649.11963    
  0.407999992       2690.19629    
  0.411000013       2711.42798    
  0.414000005       2710.22705    
  0.416999996       2684.01587    
  0.419999987       2630.26685    
  0.423000008       2546.54468    
  0.425999999       2430.55664    
  0.428999990       2280.20532    
  0.432000011       2093.64600    
  0.435000002       1869.34241    
  0.437999994       1606.12402    
  0.441000015       1303.23999    
  0.444000006       960.409119    
  0.446999997       577.867493    
  0.449999988       156.416962    
  0.453000009      -302.531616    
  0.456000000      -796.925476    
  0.458999991      -1324.05359    
  0.462000012      -1880.53625    
  0.465000004      -2462.32178    
  0.467999995      -3064.69116    
  0.470999986      -3682.28687    
  0.474000007      -4309.14746    
  0.476999998      -4938.75879    
  0.479999989      -5564.11230    
  0.483000010      -6177.78857    
  0.486000001      -6772.04639    
  0.488999993      -7338.92383    
  0.492000014      -7870.35645    
  0.495000005      -8358.28320    
  0.497999996      -8794.77344    
  0.500999987      -9172.16992    
  0.504000008      -9483.22949    
  0.507000029      -9721.24902    
  0.509999990      -9880.20312    
  0.513000011      -9954.86426    
  0.515999973      -9940.91211    
  0.518999994      -9835.04102    
  0.522000015      -9635.06152    
  0.524999976      -9339.98633    
  0.527999997      -8950.09277    
  0.531000018      -8466.94434    
  0.533999979      -7893.39795    
  0.537000000      -7233.60693    
  0.540000021      -6492.98828    
  0.542999983      -5678.17041    
  0.546000004      -4796.93555    
  0.549000025      -3858.11865    
  0.551999986      -2871.47778    
  0.555000007      -1847.55273    
  0.558000028      -797.506042    
  0.560999990       267.036285    
  0.564000010       1334.15320    
  0.566999972       2391.80762    
  0.569999993       3428.03760    
  0.573000014       4431.14844    
  0.575999975       5389.89697    
  0.578999996       6293.67041    
  0.582000017       7132.64355    
  0.584999979       7897.92627    
  0.588000000       8581.68457    
  0.591000021       9177.25977    
  0.593999982       9679.26562    
  0.597000003       10083.6729    
  0.600000024       10387.8438    
  0.602999985       10590.5068    
  0.606000006       10691.7627    
  0.609000027       10693.0732    
  0.611999989       10597.2129    
  0.615000010       10408.1953    
  0.617999971       10131.1562    
  0.620999992       9772.22168    
  0.624000013       9338.35840    
  0.626999974       8837.27539    
  0.629999995       8277.30762    
  0.633000016       7667.26318    
  0.635999978       7016.20264    
  0.638999999       6333.25977    
  0.642000020       5627.53760    
  0.644999981       4907.99463    
  0.648000002       4183.31055    
  0.651000023       3461.73242    
  0.653999984       2750.96436    
  0.657000005       2058.08057    
  0.660000026       1389.45618    
  0.662999988       750.733032    
  0.666000009       146.779297    
  0.669000030      -418.368530    
  0.671999991      -941.539062    
  0.675000012      -1420.38403    
  0.677999973      -1853.30322    
  0.680999994      -2239.41260    
  0.684000015      -2578.53833    
  0.686999977      -2871.18188    
  0.689999998      -3118.43579    
  0.693000019      -3321.89185    
  0.695999980      -3483.55420    
  0.699000001      -3605.76758    
  0.702000022      -3691.15259    
  0.704999983      -3742.54346    
  0.708000004      -3762.91455    
  0.711000025      -3755.29199    
  0.713999987      -3722.68677    
  0.717000008      -3668.06128    
  0.720000029      -3594.28442    
  0.722999990      -3504.07617    
  0.726000011      -3399.96729    
  0.728999972      -3284.29810    
  0.731999993      -3159.21533    
  0.735000014      -3026.65356    
  0.737999976      -2888.31519    
  0.740999997      -2745.66333    
  0.744000018      -2599.92847    
  0.746999979      -2452.14136    
  0.750000000      -2303.18970    
  0.753000021      -2153.84375    
  0.755999982      -2004.71594    
  0.759000003      -1856.24670    
  0.762000024      -1708.77344    
  0.764999986      -1562.60718    
  0.768000007      -1418.03174    
  0.771000028      -1275.26538    
  0.773999989      -1134.47668    
  0.777000010      -995.839661    
  0.779999971      -859.562439    
  0.782999992      -725.884277    
  0.786000013      -595.067200    
  0.788999975      -467.383911    
  0.791999996      -343.103790    
  0.795000017      -222.510254    
  0.797999978      -105.938339    
  0.800999999       6.23393345    
  0.804000020       113.643066    
  0.806999981       215.961685    
  0.810000002       312.854401    
  0.813000023       403.953339    
  0.815999985       488.908112    
  0.819000006       567.445496    
  0.822000027       639.364807    
  0.824999988       704.495300    
  0.828000009       762.673401    
  0.830999970       813.752380    
  0.833999991       857.636353    
  0.837000012       894.322449    
  0.839999974       923.909851    
  0.842999995       946.547974    
  0.846000016       962.376343    
  0.848999977       971.538086    
  0.851999998       974.247009    
  0.855000019       970.806885    
  0.857999980       961.560486    
  0.861000001       946.838684    
  0.864000022       926.961487    
  0.866999984       902.270203    
  0.870000005       873.148743    
  0.873000026       840.014587    
  0.875999987       803.273499    
  0.879000008       763.277588    
  0.882000029       720.347107    
  0.884999990       674.834656    
  0.888000011       627.139099    
  0.890999973       577.638306    
  0.893999994       526.634155    
  0.897000015       474.383423    
  0.899999976       421.159332    
  0.902999997       367.261749    
  0.906000018       312.982941    
  0.908999979       258.578674    
  0.912000000       204.264450    
  0.915000021       150.238159    
  0.917999983       96.7220383    
  0.921000004       43.9721413    
  0.924000025      -7.77920723    
  0.926999986      -58.3757210    
  0.930000007      -107.691917    
  0.933000028      -155.541580    
  0.935999990      -201.673584    
  0.939000010      -245.858246    
  0.941999972      -287.936920    
  0.944999993      -327.783752    
  0.948000014      -365.255951    
  0.950999975      -400.189148    
  0.953999996      -432.411591    
  0.957000017      -461.760925    
  0.959999979      -488.108307    
  0.963000000      -511.360199    
  0.966000021      -531.418518    
  0.968999982      -548.157715    
  0.972000003      -561.472778    
  0.975000024      -571.333557    
  0.977999985      -577.758240    
  0.981000006      -580.747375    
  0.984000027      -580.277832    
  0.986999989      -576.353760    
  0.990000010      -569.036682    
  0.992999971      -558.429565    
  0.995999992      -544.652283    
  0.999000013      -527.829407    
   1.00199997      -508.093719    
   1.00500000      -485.609100    
   1.00800002      -460.593018    
   1.01100004      -433.290558    
   1.01400006      -403.919373    
   1.01699996      -372.663055    
   1.01999998      -339.730865    
   1.02300000      -305.400726    
   1.02600002      -269.986633    
   1.02900004      -233.775253    
   1.03199995      -196.998428    
   1.03499997      -159.856415    
   1.03799999      -122.564232    
   1.04100001      -85.3803635    
   1.04400003      -48.5800209    
   1.04700005      -12.3888760    
   1.04999995       23.0432701    
   1.05299997       57.5906792    
   1.05599999       91.0938721    
   1.05900002       123.373566    
   1.06200004       154.283966    
   1.06500006       183.730255    
   1.06799996       211.648666    
   1.07099998       237.991425    
   1.07400000       262.714600    
   1.07700002       285.760101    
   1.08000004       307.063629    
   1.08299994       326.596069    
   1.08599997       344.379944    
   1.08899999       360.446167    
   1.09200001       374.791351    
   1.09500003       387.390259    
   1.09800005       398.227570    
   1.10099995       407.302063    
   1.10399997       414.618927    
   1.10699999       420.193878    
   1.11000001       424.044891    
   1.11300004       426.164124    
   1.11600006       426.509186    
   1.11899996       425.029480    
   1.12199998       421.687378    
   1.12500000       416.454498    
   1.12800002       409.312347    
   1.13100004       400.258728    
   1.13399994       389.286346    
   1.13699996       376.346863    
   1.13999999       361.360199    
   1.14300001       344.268433    
   1.14600003       325.065918    
   1.14900005       303.779694    
   1.15199995       280.445129    
   1.15499997       255.100830    
   1.15799999       227.782928    
   1.16100001       198.523651    
   1.16400003       167.377014    
   1.16700006       134.450485    
   1.16999996       99.8981094    
   1.17299998       63.8914375    
   1.17600000       26.6138344    
   1.17900002      -11.7258425    
   1.18200004      -50.8931694    
   1.18499994      -90.6327591    
   1.18799996      -130.657700    
   1.19099998      -170.646011    
   1.19400001      -210.261261    
   1.19700003      -249.165771    
   1.20000005      -287.005920    
   1.20299995      -323.406525    
   1.20599997      -357.994507    
   1.20899999      -390.410919    
   1.21200001      -420.293060    
   1.21500003      -447.269257    
   1.21800005      -470.987823    
   1.22099996      -491.141815    
   1.22399998      -507.463623    
   1.22700000      -519.714966    
   1.23000002      -527.683899    
   1.23300004      -531.182129    
   1.23599994      -530.058350    
   1.23899996      -524.238586    
   1.24199998      -513.740662    
   1.24500000      -498.625305    
   1.24800003      -478.953888    
   1.25100005      -454.826324    
   1.25399995      -426.442932    
   1.25699997      -394.096069    
   1.25999999      -358.114502    
   1.26300001      -318.847321    
   1.26600003      -276.684082    
   1.26900005      -232.054337    
   1.27199996      -185.416077    
   1.27499998      -137.264175    
   1.27800000      -88.1297607    
   1.28100002      -38.5482025    
   1.28400004       10.9541082    
   1.28699994       59.8317986    
   1.28999996       107.520439    
   1.29299998       153.496750    
   1.29600000       197.314316    
   1.29900002       238.557404    
   1.30200005       276.788422    
   1.30499995       311.569855    
   1.30799997       342.522583    
   1.31099999       369.351227    
   1.31400001       391.840088    
   1.31700003       409.838898    
   1.32000005       423.231628    
   1.32299995       431.912598    
   1.32599998       435.819794    
   1.32900000       434.998444    
   1.33200002       429.598267    
   1.33500004       419.799622    
   1.33800006       405.771729    
   1.34099996       387.713531    
   1.34399998       365.909149    
   1.34700000       340.725555    
   1.35000002       312.563873    
   1.35300004       281.812988    
   1.35599995       248.840622    
   1.35899997       214.030914    
   1.36199999       177.834213    
   1.36500001       140.760010    
   1.36800003       103.301620    
   1.37100005       65.8766174    
   1.37399995       28.8516655    
   1.37699997      -7.39325619    
   1.38000000      -42.4439125    
   1.38300002      -75.8829117    
   1.38600004      -107.330940    
   1.38900006      -136.474579    
   1.39199996      -163.068115    
   1.39499998      -186.900223    
   1.39800000      -207.757904    
   1.40100002      -225.441711    
   1.40400004      -239.815201    
   1.40699995      -250.816025    
   1.40999997      -258.416046    
   1.41299999      -262.598175    
   1.41600001      -263.377533    
   1.41900003      -260.820435    
   1.42200005      -255.036530    
   1.42499995      -246.173431    
   1.42799997      -234.418274    
   1.43099999      -219.979965    
   1.43400002      -203.068634    
   1.43700004      -183.913269    
   1.44000006      -162.792099    
   1.44299996      -140.015091    
   1.44599998      -115.878807    
   1.44900000      -90.6661987    
   1.45200002      -64.6850739    
   1.45500004      -38.2717361    
   1.45799994      -11.7515068    
   1.46099997       14.5818596    
   1.46399999       40.4499741    
   1.46700001       65.5792770    
   1.47000003       89.7076187    
   1.47300005       112.582169    
   1.47599995       133.956116    
   1.47899997       153.610870    
   1.48199999       171.381470    
   1.48500001       187.146317    
   1.48800004       200.796906    
   1.49100006       212.230789    
   1.49399996       221.366547    
   1.49699998       228.154770    
   1.50000000       232.585846    
   1.50300002       234.699570    
   1.50600004       234.573959    
   1.50899994       232.292801    
   1.51199996       227.934662    
   1.51499999       221.599716    
   1.51800001       213.431763    
   1.52100003       203.602264    
   1.52400005       192.284409    
   1.52699995       179.648209    
   1.52999997       165.870697    
   1.53299999       151.144363    
   1.53600001       135.680344    
   1.53900003       119.696236    
   1.54200006       103.388466    
   1.54499996       86.9184265    
   1.54799998       70.4327621    
   1.55100000       54.0889854    
   1.55400002       38.0551643    
   1.55700004       22.4967861    
   1.55999994       7.56807899    
   1.56299996      -6.60598755    
   1.56599998      -19.9511929    
   1.56900001      -32.4283257    
   1.57200003      -43.9852180    
   1.57500005      -54.5442924    
   1.57799995      -64.0457458    
   1.58099997      -72.4779053    
   1.58399999      -79.8547287    
   1.58700001      -86.1894455    
   1.59000003      -91.5027084    
   1.59300005      -95.8324661    
   1.59599996      -99.2230606    
   1.59899998      -101.723351    
   1.60200000      -103.398682    
   1.60500002      -104.321045    
   1.60800004      -104.547005    
   1.61099994      -104.133492    
   1.61399996      -103.174149    
   1.61699998      -101.783264    
   1.62000000      -100.037224    
   1.62300003      -97.9651108    
   1.62600005      -95.6069489    
   1.62899995      -93.0523148    
   1.63199997      -90.4079742    
   1.63499999      -87.7479553    
   1.63800001      -85.1019974    
   1.64100003      -82.4733887    
   1.64400005      -79.8650131    
   1.64699996      -77.3093948    
   1.64999998      -74.8778381    
   1.65300000      -72.6387177    
   1.65600002      -70.5969696    
   1.65900004      -68.6897354    
   1.66199994      -66.8512497    
   1.66499996      -65.0742874    
   1.66799998      -63.4015656    
   1.67100000      -61.8631859    
   1.67400002      -60.4309769    
   1.67700005      -59.0350075    
   1.67999995      -57.6170006    
   1.68299997      -56.1566734    
   1.68599999      -54.6469612    
   1.68900001      -53.0630112    
   1.69200003      -51.3713074    
   1.69500005      -49.5586205    
   1.69799995      -47.6331787    
   1.70099998      -45.5978241    
   1.70400000      -43.4314232    
   1.70700002      -41.0938530    
   1.71000004      -38.5483856    
   1.71300006      -35.7968788    
   1.71599996      -32.9014397    
   1.71899998      -29.9467525    
   1.72200000      -26.9593601    
   1.72500002      -23.8823681    
   1.72800004      -20.6546154    
   1.73099995      -17.3010483    
   1.73399997      -13.9212503    
   1.73699999      -10.6016035    
   1.74000001      -7.36297369    
   1.74300003      -4.18215752    
   1.74600005      -1.03666818    
   1.74899995       2.06591988    
   1.75199997       5.07948971    
   1.75500000       7.94370890    
   1.75800002       10.6329756    
   1.76100004       13.1717730    
   1.76400006       15.5866394    
   1.76699996       17.8600292    
   1.76999998       19.9540482    
   1.77300000       21.8635826    
   1.77600002       23.6164932    
   1.77900004       25.2294464    
   1.78199995       26.6920986    
   1.78499997       27.9940014    
   1.78799999       29.1444550    
   1.79100001       30.1631680    
   1.79400003       31.0655441    
   1.79700005       31.8561363    
   1.79999995       32.5260391    
   1.80299997       33.0619125    
   1.80599999       33.4693222    
   1.80900002       33.7819366    
   1.81200004       34.0353127    
   1.81500006       34.2326889    
   1.81799996       34.3450737    
   1.82099998       34.3451996    
   1.82400000       34.2375298    
   1.82700002       34.0544548    
   1.83000004       33.8236542    
   1.83299994       33.5411758    
   1.83599997       33.1831284    
   1.83899999       32.7434502    
   1.84200001       32.2460976    
   1.84500003       31.7127419    
   1.84800005       31.1328297    
   1.85099995       30.4785862    
   1.85399997       29.7399178    
   1.85699999       28.9328499    
   1.86000001       28.0810738    
   1.86300004       27.1975040    
   1.86600006       26.2752361    
   1.86899996       25.2911777    
   1.87199998       24.2289619    
   1.87500000       23.1011372    
   1.87800002       21.9354839    
   1.88100004       20.7383213    
   1.88399994       19.4876862    
   1.88699996       18.1633854    
   1.88999999       16.7659283    
   1.89300001       15.3083849    
   1.89600003       13.8136683    
   1.89900005       12.3192587    
   1.90199995       10.8545713    
   1.90499997       9.40391445    
   1.90799999       7.91560555    
   1.91100001       6.36153698    
   1.91400003       4.77662230    
   1.91700006       3.23645163    
   1.91999996       1.80707824    
   1.92299998      0.510157347    
   1.92600000     -0.684999168    
   1.92900002      -1.83525562    
   1.93200004      -2.96640110    
   1.93499994      -4.03334093    
   1.93799996      -4.95048285    
   1.94099998      -5.66754818    
   1.94400001      -6.20832348    
   1.94700003      -6.63646173    
   1.95000005      -6.99391460    
   1.95299995      -7.27167559    
   1.95599997      -7.42836142    
   1.95899999      -7.43329334    
   1.96200001      -7.29848337    
   1.96500003      -7.07433414    
   1.96800005      -6.81564903    
   1.97099996      -6.55202389    
   1.97399998      -6.28671646    
   1.97700000      -6.01521492    
   1.98000002      -5.74160814    
   1.98300004      -5.48353100    
   1.98599994      -5.26962757    
   1.98899996      -5.13503170    
   1.99199998      -5.11477089    
   1.99500000      -5.23075199    
   1.99800003      -5.47792292    
   2.00099993      -5.83181906    
   2.00399995      -6.28446388    
   2.00699997      -6.86852312    
   2.00999999      -7.62578535    
   2.01300001      -8.54898739    
   2.01600003      -9.57624912    
   2.01900005      -10.6537514    
   2.02200007      -11.7881479    
   2.02500010      -13.0248394    
   2.02800012      -14.3843203    
   2.03099990      -15.8272676    
   2.03399992      -17.2721405    
   2.03699994      -18.6441841    
   2.03999996      -19.9230080    
   2.04299998      -21.1477146    
   2.04600000      -22.3580017    
   2.04900002      -23.5221214    
   2.05200005      -24.5401554    
   2.05500007      -25.3286285    
   2.05800009      -25.8854542    
   2.06100011      -26.2591591    
   2.06399989      -26.4689217    
   2.06699991      -26.4694443    
   2.06999993      -26.1843052    
   2.07299995      -25.5604229    
   2.07599998      -24.5964909    
   2.07900000      -23.3285122    
   2.08200002      -21.7834740    
   2.08500004      -19.9421921    
   2.08800006      -17.7524414    
   2.09100008      -15.1785707    
   2.09400010      -12.2278805    
   2.09699988      -8.92831802    
   2.09999990      -5.29682922    
   2.10299993      -1.33865058    
   2.10599995       2.93402886    
   2.10899997       7.49675369    
   2.11199999       12.3262262    
   2.11500001       17.4111633    
   2.11800003       22.7418232    