 -0.622799993       0.00000000    
 -0.610800028       0.00000000    
 -0.598800004       0.00000000    
 -0.586799979       7.00242667E-17
 -0.574800014       3.99971499E-16
 -0.562799990       1.19473595E-15
 -0.550800025       2.37392842E-15
 -0.538800001       3.23342249E-15
 -0.526799977       2.39551760E-15
 -0.514800012      -1.64188930E-15
 -0.502799988      -9.32579124E-15
 -0.490799993      -1.86665360E-14
 -0.478799999      -2.44856015E-14
 -0.466800004      -1.91800243E-14
 -0.454800010       4.58259309E-15
 -0.442799985       4.97594214E-14
 -0.430799991       1.10980588E-13
 -0.418799996       1.72930328E-13
 -0.406800002       2.12962663E-13
 -0.394800007       2.08531434E-13
 -0.382800013       1.47977577E-13
 -0.370799989       4.12337333E-14
 -0.358799994      -7.39934440E-14
 -0.346799999      -1.34329220E-13
 -0.334800005      -6.24632046E-14
 -0.322800010       2.13652650E-13
 -0.310799986       7.39618382E-13
 -0.298799992       1.51863049E-12
 -0.286799997       2.50725287E-12
 -0.274800003       3.62623083E-12
 -0.262800008       4.78502134E-12
 -0.250800014       5.91435277E-12
 -0.238800004       6.99854931E-12
 -0.226799995       8.09964162E-12
 -0.214800000       9.36803152E-12
 -0.202800006       1.10384575E-11
 -0.190799996       1.34135238E-11
 -0.178800002       1.68387110E-11
 -0.166800007       2.16723462E-11
 -0.154799998       2.82524854E-11
 -0.142800003       3.68618434E-11
 -0.130799994       4.76930336E-11
 -0.118799999       6.08196132E-11
 -0.106799997       7.61826921E-11
  -9.48000029E-02   9.36043881E-11
  -8.28000009E-02   1.12836823E-10
  -7.07999989E-02   1.33645789E-10
  -5.88000007E-02   1.55915378E-10
  -4.67999987E-02   1.79746371E-10
  -3.48000005E-02   2.05513703E-10
  -2.28000004E-02   2.33851605E-10
  -1.08000003E-02   2.65549804E-10
   1.20000006E-03   3.01368402E-10
   1.31999999E-02   3.41803807E-10
   2.52000000E-02   3.86855881E-10
   3.72000001E-02   4.35850772E-10
   4.91999984E-02   4.87361818E-10
   6.12000003E-02   5.39246647E-10
   7.32000023E-02   5.88793236E-10
   8.51999968E-02   6.32949526E-10
   9.71999988E-02   6.68604727E-10
  0.109200001       6.92900182E-10
  0.121200003       7.03560765E-10
  0.133200005       6.99247160E-10
  0.145199999       6.79923839E-10
  0.157199994       6.47213227E-10
  0.169200003       6.04672201E-10
  0.181199998       5.57898172E-10
  0.193200007       5.14359555E-10
  0.205200002       4.82870133E-10
  0.217199996       4.72681894E-10
  0.229200006       4.92247854E-10
  0.241200000       5.47785206E-10
  0.253199995       6.41819875E-10
  0.265199989       7.71914865E-10
  0.277200013       9.29765209E-10
  0.289200008       1.10079990E-09
  0.301200002       1.26439437E-09
  0.313199997       1.39476763E-09
  0.325199991       1.46263535E-09
  0.337199986       1.43768342E-09
  0.349200010       1.29189903E-09
  0.361200005       1.00369935E-09
  0.373199999       5.62642266E-10
  0.385199994      -2.57216557E-11
  0.397199988      -7.35530248E-10
  0.409200013      -1.51767721E-09
  0.421200007      -2.29918484E-09
  0.433200002      -2.98569502E-09
  0.445199996      -3.46761619E-09
  0.457199991      -3.63005026E-09
  0.469199985      -3.36613448E-09
  0.481200010      -2.59294297E-09
  0.493200004      -1.26865818E-09
  0.505200028       5.90621163E-10
  0.517199993       2.89632407E-09
  0.529200017       5.47712853E-09
  0.541199982       8.07505440E-09
  0.553200006       1.03498801E-08
  0.565199971       1.18935173E-08
  0.577199996       1.22553230E-08
  0.589200020       1.09783267E-08
  0.601199985       7.64503927E-09
  0.613200009       1.92993399E-09
  0.625199974      -6.34580655E-09
  0.637199998      -1.71630763E-08
  0.649200022      -3.02636209E-08
  0.661199987      -4.51255069E-08
  0.673200011      -6.09611490E-08
  0.685199976      -7.67424240E-08
  0.697200000      -9.12552522E-08
  0.709200025      -1.03183595E-07
  0.721199989      -1.11220061E-07
  0.733200014      -1.14197398E-07
  0.745199978      -1.11232431E-07
  0.757200003      -1.01871748E-07
  0.769200027      -8.62261089E-08
  0.781199992      -6.50796323E-08
  0.793200016      -3.99595983E-08
  0.805199981      -1.31540130E-08
  0.817200005       1.23336950E-08
  0.829200029       3.28980754E-08
  0.841199994       4.45143975E-08
  0.853200018       4.29845635E-08
  0.865199983       2.42350495E-08
  0.877200007      -1.53508068E-08
  0.889199972      -7.85870142E-08
  0.901199996      -1.67150944E-07
  0.913200021      -2.81285736E-07
  0.925199986      -4.19566845E-07
  0.937200010      -5.78752861E-07
  0.949199975      -7.53745496E-07
  0.961199999      -9.37669995E-07
  0.973200023      -1.12208909E-06
  0.985199988      -1.29734906E-06
  0.997200012      -1.45305705E-06
   1.00919998      -1.57866509E-06
   1.02119994      -1.66414554E-06
   1.03320003      -1.70071746E-06
   1.04519999      -1.68159067E-06
   1.05719995      -1.60267996E-06
   1.06920004      -1.46324817E-06
   1.08120000      -1.26643977E-06
   1.09319997      -1.01966020E-06
   1.10520005      -7.34774687E-07
   1.11720002      -4.28096115E-07
   1.12919998      -1.20151341E-07
   1.14119995       1.64791771E-07
   1.15320003       3.99428785E-07
   1.16520000       5.54340033E-07
   1.17719996       5.99111161E-07
   1.18920004       5.03608476E-07
   1.20120001       2.39367949E-07
   1.21319997      -2.18960636E-07
   1.22520006      -8.92193441E-07
   1.23720002      -1.79525091E-06
   1.24919999      -2.93595099E-06
   1.26119995      -4.31400304E-06
   1.27320004      -5.92027573E-06
   1.28520000      -7.73635747E-06
   1.29719996      -9.73449187E-06
   1.30920005      -1.18778889E-05
   1.32120001      -1.41214496E-05
   1.33319998      -1.64128851E-05
   1.34519994      -1.86942325E-05
   1.35720003      -2.09037353E-05
   1.36919999      -2.29780326E-05
   1.38119996      -2.48545693E-05
   1.39320004      -2.64741830E-05
   1.40520000      -2.77837116E-05
   1.41719997      -2.87385847E-05
   1.42920005      -2.93052253E-05
   1.44120002      -2.94631955E-05
   1.45319998      -2.92069599E-05
   1.46519995      -2.85471870E-05
   1.47720003      -2.75115162E-05
   1.48920000      -2.61446767E-05
   1.50119996      -2.45079646E-05
   1.51320004      -2.26780303E-05
   1.52520001      -2.07449793E-05
   1.53719997      -1.88098384E-05
   1.54920006      -1.69814411E-05
   1.56120002      -1.53728288E-05
   1.57319999      -1.40973052E-05
   1.58519995      -1.32642544E-05
   1.59720004      -1.29749014E-05
   1.60920000      -1.33181447E-05
   1.62119997      -1.43666339E-05
   1.63320005      -1.61732314E-05
   1.64520001      -1.87680234E-05
   1.65719998      -2.21559349E-05
   1.66919994      -2.63151542E-05
   1.68120003      -3.11963522E-05
   1.69319999      -3.67228204E-05
   1.70519996      -4.27914929E-05
   1.71720004      -4.92748586E-05
   1.72920001      -5.60237495E-05
   1.74119997      -6.28708731E-05
   1.75320005      -6.96350107E-05
   1.76520002      -7.61257761E-05
   1.77719998      -8.21487847E-05
   1.78919995      -8.75111073E-05
   1.80120003      -9.20268649E-05
   1.81320000      -9.55227297E-05
   1.82519996      -9.78433600E-05
   1.83720005      -9.88563916E-05
   1.84920001      -9.84569997E-05
   1.86119998      -9.65717845E-05
   1.87320006      -9.31618997E-05
   1.88520002      -8.82253298E-05
   1.89719999      -8.17981054E-05
   1.90919995      -7.39545503E-05
   1.92120004      -6.48064015E-05
   1.93320000      -5.45008879E-05
   1.94519997      -4.32177039E-05
   1.95720005      -3.11649710E-05
   1.96920002      -1.85743083E-05
   1.98119998      -5.69503891E-06
   1.99319994       7.21220022E-06
   2.00519991       1.98823782E-05
   2.01719999       3.20532454E-05
   2.02920008       4.34725553E-05
   2.04119992       5.39051143E-05
   2.05320001       6.31394360E-05
   2.06520009       7.09937012E-05
   2.07719994       7.73209395E-05
   2.08920002       8.20131536E-05
   2.10120010       8.50042707E-05
   2.11319995       8.62718953E-05
   2.12520003       8.58376588E-05
   2.13720012       8.37662883E-05
   2.14919996       8.01633723E-05
   2.16120005       7.51718690E-05
   2.17319989       6.89675217E-05
   2.18519998       6.17533442E-05
   2.19720006       5.37533524E-05
   2.20919991       4.52057211E-05
   2.22119999       3.63556865E-05
   2.23320007       2.74483191E-05
   2.24519992       1.87214973E-05
   2.25720000       1.03991933E-05
   2.26920009       2.68536655E-06
   2.28119993      -4.24146674E-06
   2.29320002      -1.02327631E-05
   2.30520010      -1.51735212E-05
   2.31719995      -1.89847979E-05
   2.32920003      -2.16251137E-05
   2.34120011      -2.30907572E-05
   2.35319996      -2.34149975E-05
   2.36520004      -2.26662396E-05
   2.37719989      -2.09452464E-05
   2.38919997      -1.83814427E-05
   2.40120006      -1.51285112E-05
   2.41319990      -1.13593260E-05
   2.42519999      -7.26041617E-06
   2.43720007      -3.02609237E-06
   2.44919991       1.14763498E-06
   2.46120000       5.06913375E-06
   2.47320008       8.55713552E-06
   2.48519993       1.14464119E-05
   2.49720001       1.35930331E-05
   2.50920010       1.48790268E-05
   2.52119994       1.52163366E-05
   2.53320003       1.45499198E-05
   2.54520011       1.28599031E-05
   2.55719995       1.01626783E-05
   2.56920004       6.51088976E-06
   2.58119988       1.99224883E-06
   2.59319997      -3.27282100E-06
   2.60520005      -9.13468557E-06
   2.61719990      -1.54190802E-05
   2.62919998      -2.19326557E-05
   2.64120007      -2.84693142E-05
   2.65319991      -3.48171598E-05
   2.66520000      -4.07658117E-05
   2.67720008      -4.61138188E-05
   2.68919992      -5.06759206E-05
   2.70120001      -5.42898451E-05
   2.71320009      -5.68223913E-05
   2.72519994      -5.81745335E-05
   2.73720002      -5.82853063E-05
   2.74920011      -5.71343626E-05
   2.76119995      -5.47429445E-05
   2.77320004      -5.11733815E-05
   2.78520012      -4.65269550E-05
   2.79719996      -4.09403583E-05
   2.80920005      -3.45807894E-05
   2.82119989      -2.76399860E-05
   2.83319998      -2.03273630E-05
   2.84520006      -1.28626734E-05
   2.85719991      -5.46836327E-06
   2.86919999       1.63796813E-06
   2.88120008       8.25076131E-06
   2.89319992       1.41830642E-05
   2.90520000       1.92722437E-05
   2.91720009       2.33846731E-05
   2.92919993       2.64192404E-05
   2.94120002       2.83096106E-05
   2.95320010       2.90252301E-05
   2.96519995       2.85710539E-05
   2.97720003       2.69861393E-05
   2.98920012       2.43411505E-05
   3.00119996       2.07349804E-05
   3.01320004       1.62906144E-05
   3.02519989       1.11504451E-05
   3.03719997       5.47119544E-06
   3.04920006      -5.81359700E-07
   3.06119990      -6.83771623E-06
   3.07319999      -1.31298393E-05
   3.08520007      -1.92960888E-05
   3.09719992      -2.51857400E-05
   3.10920000      -3.06629627E-05
   3.12120008      -3.56101482E-05
   3.13319993      -3.99304772E-05
   3.14520001      -4.35496950E-05
   3.15720010      -4.64170043E-05
   3.16919994      -4.85050878E-05
   3.18120003      -4.98093141E-05
   3.19320011      -5.03461124E-05
   3.20519996      -5.01506875E-05
   3.21720004      -4.92741492E-05
   3.22919989      -4.77802168E-05
   3.24119997      -4.57416572E-05
   3.25320005      -4.32366833E-05
   3.26519990      -4.03454324E-05
   3.27719998      -3.71468086E-05
   3.28920007      -3.37157544E-05
   3.30119991      -3.01211658E-05
   3.31320000      -2.64245482E-05
   3.32520008      -2.26794018E-05
   3.33719993      -1.89313796E-05
   3.34920001      -1.52191333E-05
   3.36120009      -1.15757257E-05
   3.37319994      -8.03043895E-06
   3.38520002      -4.61078253E-06
   3.39720011      -1.34448521E-06
   3.40919995       1.73873468E-06
   3.42120004       4.60583578E-06
   3.43319988       7.21971583E-06
   3.44519997       9.53918334E-06
   3.45720005       1.15196945E-05
   3.46919990       1.31148654E-05
   3.48119998       1.42786521E-05
   3.49320006       1.49680882E-05
   3.50519991       1.51463564E-05
   3.51719999       1.47859828E-05
   3.52920008       1.38718688E-05
   3.54119992       1.24039207E-05
   3.55320001       1.03990424E-05
   3.56520009       7.89229034E-06
   3.57719994       4.93706602E-06
   3.58920002       1.60425213E-06
   3.60120010      -2.01964622E-06
   3.61319995      -5.83533028E-06
   3.62520003      -9.73434180E-06
   3.63720012      -1.36032768E-05
   3.64919996      -1.73283534E-05
   3.66120005      -2.08000511E-05
   3.67319989      -2.39175715E-05
   3.68519998      -2.65928174E-05
   3.69720006      -2.87536859E-05
   3.70919991      -3.03465040E-05
   3.72119999      -3.13374876E-05
   3.73320007      -3.17131562E-05
   3.74519992      -3.14797762E-05
   3.75720000      -3.06618640E-05
   3.76920009      -2.92999521E-05
   3.78119993      -2.74477807E-05
   3.79320002      -2.51691272E-05
   3.80520010      -2.25345320E-05
   3.81719995      -1.96180845E-05
   3.82920003      -1.64945250E-05
   3.84120011      -1.32367886E-05
   3.85319996      -9.91407978E-06
   3.86520004      -6.59058878E-06
   3.87719989      -3.32480204E-06
   3.88919997      -1.69374502E-07
   3.90120006       2.82852352E-06
   3.91319990       5.62652895E-06
   3.92519999       8.18620902E-06
   3.93720007       1.04721639E-05
   3.94919991       1.24512317E-05
   3.96120000       1.40919528E-05
   3.97320008       1.53643869E-05
   3.98519993       1.62403321E-05
   3.99720001       1.66939826E-05
   4.00920010       1.67029957E-05
   4.02120018       1.62498873E-05
   4.03319979       1.53236524E-05
   4.04519987       1.39214617E-05
   4.05719995       1.20502946E-05
   4.06920004       9.72829912E-06
   4.08120012       6.98577105E-06
   4.09320021       3.86559759E-06
   4.10519981       4.23068911E-07
   4.11719990      -3.27498674E-06
   4.12919998      -7.15173519E-06
   4.14120007      -1.11224972E-05
   4.15320015      -1.50974147E-05
   4.16520023      -1.89845050E-05
   4.17719984      -2.26929005E-05
   4.18919992      -2.61361001E-05
   4.20120001      -2.92350232E-05
   4.21320009      -3.19206920E-05
   4.22520018      -3.41363448E-05
   4.23719978      -3.58389225E-05
   4.24919987      -3.69997942E-05
   4.26119995      -3.76047210E-05
   4.27320004      -3.76531279E-05
   4.28520012      -3.71567512E-05
   4.29720020      -3.61378297E-05
   4.30919981      -3.46269881E-05
   4.32119989      -3.26610534E-05
   4.33319998      -3.02809913E-05
   4.34520006      -2.75301190E-05
   4.35720015      -2.44528110E-05
   4.36920023      -2.10937596E-05
   4.38119984      -1.74978559E-05
   4.39319992      -1.37106854E-05
   4.40520000      -9.77956461E-06
   4.41720009      -5.75494505E-06
   4.42920017      -1.69202769E-06
   4.44119978       2.34767776E-06
   4.45319986       6.29508577E-06
   4.46519995       1.00728139E-05
   4.47720003       1.35952278E-05
   4.48920012       1.67694288E-05
   4.50120020       1.94972581E-05
   4.51319981       2.16783701E-05
   4.52519989       2.32142447E-05
   4.53719997       2.40130248E-05
   4.54920006       2.39948768E-05
   4.56120014       2.30975893E-05
   4.57320023       2.12819941E-05
   4.58519983       1.85368426E-05
   4.59719992       1.48827048E-05
   4.60920000       1.03745469E-05
   4.62120008       5.10265954E-06
   4.63320017      -8.08282323E-07
   4.64519978      -7.20210664E-06
   4.65719986      -1.38959795E-05
   4.66919994      -2.06870245E-05
   4.68120003      -2.73604091E-05
   4.69320011      -3.36985395E-05
   4.70520020      -3.94908129E-05
   4.71719980      -4.45434125E-05
   4.72919989      -4.86885692E-05
   4.74119997      -5.17926674E-05
   4.75320005      -5.37627930E-05
   4.76520014      -5.45511757E-05
   4.77720022      -5.41573427E-05
   4.78919983      -5.26277436E-05
   4.80119991      -5.00528840E-05
   4.81320000      -4.65621197E-05
   4.82520008      -4.23164456E-05
   4.83720016      -3.74996707E-05
   4.84919977      -3.23086570E-05
   4.86119986      -2.69430966E-05
   4.87319994      -2.15956024E-05
   4.88520002      -1.64426456E-05
   4.89720011      -1.16369292E-05
   4.90920019      -7.30163401E-06
   4.92119980      -3.52683674E-06
   4.93319988      -3.68271060E-07
   4.94519997       2.15160753E-06
   4.95720005       4.04040156E-06
   4.96920013       5.33072489E-06
   4.98120022       6.07379798E-06
   4.99319983       6.33219133E-06
   5.00519991       6.17235173E-06
   5.01719999       5.65746495E-06
   5.02920008       4.84126213E-06
   5.04120016       3.76319645E-06
   5.05319977       2.44539115E-06
   5.06519985       8.91521097E-07
   5.07719994      -9.12291341E-07
   5.08920002      -2.99470912E-06
   5.10120010      -5.39480016E-06
   5.11320019      -8.15642215E-06
   5.12519979      -1.13218857E-05
   5.13719988      -1.49254129E-05
   5.14919996      -1.89869625E-05
   5.16120005      -2.35069565E-05
   5.17320013      -2.84623366E-05
   5.18520021      -3.38043501E-05
   5.19719982      -3.94582603E-05
   5.20919991      -4.53250505E-05
   5.22119999      -5.12850493E-05
   5.23320007      -5.72032150E-05
   5.24520016      -6.29356800E-05
   5.25719976      -6.83371254E-05
   5.26919985      -7.32683766E-05
   5.28119993      -7.76037705E-05
   5.29320002      -8.12375729E-05
   5.30520010      -8.40892244E-05
   5.31720018      -8.61068329E-05
   5.32919979      -8.72688615E-05
   5.34119987      -8.75837795E-05
   5.35319996      -8.70879085E-05
   5.36520004      -8.58414860E-05
   5.37720013      -8.39234926E-05
   5.38920021      -8.14255982E-05
   5.40119982      -7.84456352E-05
   5.41319990      -7.50813851E-05
   5.42519999      -7.14249982E-05
   5.43720007      -6.75585543E-05
   5.44920015      -6.35510587E-05
   5.46120024      -5.94571538E-05
   5.47319984      -5.53174759E-05
   5.48519993      -5.11605613E-05
   5.49720001      -4.70060768E-05
   5.50920010      -4.28689855E-05
   5.52120018      -3.87641012E-05
   5.53319979      -3.47106361E-05
   5.54519987      -3.07361406E-05
   5.55719995      -2.68793992E-05
   5.56920004      -2.31919093E-05
   5.58120012      -1.97376339E-05
   5.59320021      -1.65909842E-05
   5.60519981      -1.38330151E-05
   5.61719990      -1.15461207E-05
   5.62919998      -9.80757432E-06
   5.64120007      -8.68247571E-06
   5.65320015      -8.21666345E-06
   5.66520023      -8.43030648E-06
   5.67719984      -9.31273098E-06
   5.68919992      -1.08190916E-05
   5.70120001      -1.28693109E-05
   5.71320009      -1.53495257E-05
   5.72520018      -1.81161777E-05
   5.73719978      -2.10025755E-05
   5.74919987      -2.38276334E-05
   5.76119995      -2.64062965E-05
   5.77320004      -2.85609931E-05
   5.78520012      -3.01333184E-05
   5.79720020      -3.09951756E-05
   5.80919981      -3.10585492E-05
   5.82119989      -3.02831177E-05
   5.83319998      -2.86811555E-05
   5.84520006      -2.63192087E-05
   5.85720015      -2.33163792E-05
   5.86920023      -1.98392008E-05
   5.88119984      -1.60933760E-05
   5.89319992      -1.23128448E-05
   5.90520000      -8.74687703E-06
   5.91720009      -5.64596348E-06
   5.92920017      -3.24742609E-06
   5.94119978      -1.76165543E-06
   5.95319986      -1.35984362E-06
   5.96519995      -2.16398189E-06
   5.97720003      -4.23974370E-06
   5.98920012      -7.59266777E-06
   6.00120020      -1.21678204E-05
   6.01319981      -1.78529190E-05
   6.02519989      -2.44846196E-05
   6.03719997      -3.18574712E-05
   6.04920006      -3.97349213E-05
   6.06120014      -4.78615912E-05
   6.07320023      -5.59759355E-05
   6.08519983      -6.38225756E-05
   6.09719992      -7.11634493E-05
   6.10920000      -7.77871683E-05
   6.12120008      -8.35161409E-05
   6.13320017      -8.82111271E-05
   6.14519978      -9.17731668E-05
   6.15719986      -9.41429462E-05
   6.16919994      -9.52980190E-05
   6.18120003      -9.52481569E-05
   6.19320011      -9.40295795E-05
   6.20520020      -9.16985664E-05
   6.21719980      -8.83250832E-05
   6.22919989      -8.39870263E-05
   6.24119997      -7.87655663E-05
   6.25320005      -7.27419610E-05
   6.26520014      -6.59959187E-05
   6.27720022      -5.86057431E-05
   6.28919983      -5.06498909E-05
   6.30119991      -4.22097655E-05
   6.31320000      -3.33732896E-05
   6.32520008      -2.42387650E-05
   6.33720016      -1.49184161E-05
   6.34919977      -5.54106418E-06
   6.36119986       3.74651017E-06
   6.37319994       1.27799585E-05
   6.38520002       2.13797193E-05
   6.39720011       2.93553858E-05
   6.40920019       3.65119995E-05
   6.42119980       4.26579318E-05
   6.43319988       4.76138921E-05
   6.44519997       5.12224906E-05
   6.45720005       5.33576604E-05
   6.46920013       5.39332505E-05
   6.48120022       5.29101271E-05
   6.49319983       5.03011615E-05
   6.50519991       4.61736527E-05
   6.51719999       4.06488180E-05
   6.52920008       3.38983191E-05
   6.54120016       2.61378063E-05
   6.55319977       1.76178637E-05
   6.56519985       8.61279113E-06
   6.57719994      -5.92072411E-07
   6.58920002      -9.71375903E-06
   6.60120010      -1.84849268E-05
   6.61320019      -2.66661755E-05
   6.62519979      -3.40566185E-05
   6.63719988      -4.05021019E-05
   6.64919996      -4.59005569E-05
   6.66120005      -5.02042312E-05
   6.67320013      -5.34187056E-05
   6.68520021      -5.55988627E-05
   6.69719982      -5.68420983E-05
   6.70919991      -5.72793688E-05
   6.72119999      -5.70646262E-05
   6.73320007      -5.63634894E-05
   6.74520016      -5.53418322E-05
   6.75719976      -5.41551635E-05
   6.76919985      -5.29394420E-05
   6.78119993      -5.18038833E-05
   6.79320002      -5.08262565E-05
   6.80520010      -5.00507813E-05
   6.81720018      -4.94887390E-05
   6.82919979      -4.91215178E-05
   6.84119987      -4.89058184E-05
   6.85319996      -4.87804209E-05
   6.86520004      -4.86740246E-05
   6.87720013      -4.85133896E-05
   6.88920021      -4.82312171E-05
   6.90119982      -4.77731191E-05
   6.91319990      -4.71031090E-05
   6.92519999      -4.62073040E-05
   6.93720007      -4.50954321E-05
   6.94920015      -4.38001989E-05
   6.96120024      -4.23744605E-05
   6.97319984      -4.08865344E-05
   6.98519993      -3.94140407E-05
   6.99720001      -3.80367783E-05
   7.00920010      -3.68292203E-05
   7.02120018      -3.58533689E-05
   7.03319979      -3.51524068E-05
   7.04519987      -3.47458299E-05
   7.05719995      -3.46263914E-05
   7.06920004      -3.47591740E-05
   7.08120012      -3.50828559E-05
   7.09320021      -3.55131451E-05
   7.10519981      -3.59481419E-05
   7.11719990      -3.62752871E-05
   7.12919998      -3.63793515E-05
   7.14120007      -3.61509483E-05
   7.15320015      -3.54949079E-05
   7.16520023      -3.43379143E-05
   7.17719984      -3.26348054E-05
   7.18919992      -3.03730685E-05
   7.20120001      -2.75751627E-05
   7.21320009      -2.42984715E-05
   7.22520018      -2.06329078E-05
   7.23719978      -1.66962800E-05
   7.24919987      -1.26278092E-05
   7.26119995      -8.58022213E-06
   7.27320004      -4.71101930E-06
   7.28520012      -1.17351635E-06
   7.29720020       1.89172101E-06
   7.30919981       4.36445953E-06
   7.32119989       6.15091631E-06
   7.33319998       7.18804313E-06
   7.34520006       7.44572890E-06
   7.35720015       6.92685899E-06
   7.36920023       5.66529980E-06
   7.38119984       3.72203453E-06
   7.39319992       1.17980562E-06
   7.40520000      -1.86327770E-06
   7.41720009      -5.30064835E-06
   7.42920017      -9.02417287E-06
   7.44119978      -1.29305008E-05
   7.45319986      -1.69264258E-05
   7.46519995      -2.09329028E-05
   7.47720003      -2.48874840E-05
   7.48920012      -2.87451239E-05
   7.50120020      -3.24773391E-05
   7.51319981      -3.60699814E-05
   7.52519989      -3.95198476E-05
   7.53719997      -4.28305357E-05
   7.54920006      -4.60079173E-05
   7.56120014      -4.90557031E-05
   7.57320023      -5.19714704E-05
   7.58519983      -5.47435302E-05
   7.59719992      -5.73488760E-05
   7.60920000      -5.97524813E-05
   7.62120008      -6.19079583E-05
   7.63320017      -6.37596022E-05
   7.64519978      -6.52456001E-05
   7.65719986      -6.63022583E-05
   7.66919994      -6.68689172E-05
   7.68120003      -6.68930661E-05
   7.69320011      -6.63353931E-05
   7.70520020      -6.51743030E-05
   7.71719980      -6.34095704E-05
   7.72919989      -6.10647839E-05
   7.74119997      -5.81884196E-05
   7.75320005      -5.48534372E-05
   7.76520014      -5.11552680E-05
   7.77720022      -4.72084066E-05
   7.78919983      -4.31417357E-05
   7.80119991      -3.90927889E-05
   7.81320000      -3.52014358E-05
   7.82520008      -3.16031910E-05
   7.83720016      -2.84226880E-05
   7.84919977      -2.57676238E-05
   7.86119986      -2.37235636E-05
   7.87319994      -2.23498919E-05
   7.88520002      -2.16771368E-05
   7.89720011      -2.17058005E-05
   7.90920019      -2.24066898E-05
   7.92119980      -2.37227741E-05
   7.93319988      -2.55723389E-05
   7.94519997      -2.78532825E-05
   7.95720005      -3.04482746E-05
   7.96920013      -3.32304444E-05
   7.98120022      -3.60693193E-05
   7.99319983      -3.88366643E-05
   8.00520039      -4.14118949E-05
   8.01720047      -4.36868613E-05
   8.02919960      -4.55697591E-05
   8.04119968      -4.69880106E-05
   8.05319977      -4.78901275E-05
   8.06519985      -4.82464493E-05
   8.07719994      -4.80489289E-05
   8.08920002      -4.73099753E-05
   8.10120010      -4.60606097E-05
   8.11320019      -4.43480130E-05
   8.12520027      -4.22326993E-05
   8.13720036      -3.97854856E-05
   8.14920044      -3.70843736E-05
   8.16119957      -3.42115891E-05
   8.17319965      -3.12507982E-05
   8.18519974      -2.82846649E-05
   8.19719982      -2.53927992E-05
   8.20919991      -2.26500924E-05
   8.22119999      -2.01254970E-05
   8.23320007      -1.78811770E-05
   8.24520016      -1.59719912E-05
   8.25720024      -1.44452679E-05
   8.26920033      -1.33407621E-05
   8.28120041      -1.26907471E-05
   8.29319954      -1.25201577E-05
   8.30519962      -1.28467082E-05
   8.31719971      -1.36809394E-05
   8.32919979      -1.50261385E-05
   8.34119987      -1.68780934E-05
   8.35319996      -1.92247080E-05
   8.36520004      -2.20454549E-05
   8.37720013      -2.53107683E-05
   8.38920021      -2.89813979E-05
   8.40120029      -3.30078838E-05
   8.41320038      -3.73302209E-05
   8.42520046      -4.18778291E-05
   8.43719959      -4.65699704E-05
   8.44919968      -5.13166306E-05
   8.46119976      -5.60199878E-05
   8.47319984      -6.05764071E-05
   8.48519993      -6.48790156E-05
   8.49720001      -6.88207510E-05
   8.50920010      -7.22977857E-05
   8.52120018      -7.52132255E-05
   8.53320026      -7.74807850E-05
   8.54520035      -7.90284030E-05
   8.55720043      -7.98014371E-05
   8.56919956      -7.97653411E-05
   8.58119965      -7.89074693E-05
   8.59319973      -7.72380954E-05
   8.60519981      -7.47903614E-05
   8.61719990      -7.16192226E-05
   8.62919998      -6.77994467E-05
   8.64120007      -6.34227763E-05
   8.65320015      -5.85943562E-05
   8.66520023      -5.34287065E-05
   8.67720032      -4.80454401E-05
   8.68920040      -4.25649196E-05
   8.70119953      -3.71041351E-05
   8.71319962      -3.17729900E-05
   8.72519970      -2.66711395E-05
   8.73719978      -2.18855967E-05
   8.74919987      -1.74891265E-05
   8.76119995      -1.35394848E-05
   8.77320004      -1.00794532E-05
   8.78520012      -7.13760664E-06
   8.79720020      -4.72964757E-06
   8.80920029      -2.86018076E-06
   8.82120037      -1.52472239E-06
   8.83320045      -7.11790449E-07
   8.84519958      -4.04912214E-07
   8.85719967      -5.84418217E-07
   8.86919975      -1.22891367E-06
   8.88119984      -2.31634976E-06
   8.89319992      -3.82464577E-06
   8.90520000      -5.73185389E-06
   8.91720009      -8.01587521E-06
   8.92920017      -1.06537827E-05
   8.94120026      -1.36208455E-05
   8.95320034      -1.68893530E-05
   8.96520042      -2.04273929E-05
   8.97719955      -2.41977159E-05
   8.98919964      -2.81568355E-05
   9.00119972      -3.22544802E-05
   9.01319981      -3.64335101E-05
   9.02519989      -4.06303261E-05
   9.03719997      -4.47758903E-05
   9.04920006      -4.87972138E-05
   9.06120014      -5.26194162E-05
   9.07320023      -5.61681627E-05
   9.08520031      -5.93724217E-05
   9.09720039      -6.21673971E-05
   9.10919952      -6.44974207E-05
   9.12119961      -6.63186220E-05
   9.13319969      -6.76012351E-05
   9.14519978      -6.83312537E-05
   9.15719986      -6.85113700E-05
   9.16919994      -6.81610545E-05
   9.18120003      -6.73157338E-05
   9.19320011      -6.60251171E-05
   9.20520020      -6.43506792E-05
   9.21720028      -6.23625601E-05
   9.22920036      -6.01359279E-05
   9.24120045      -5.77471546E-05
   9.25319958      -5.52699748E-05
   9.26519966      -5.27718403E-05
   9.27719975      -5.03107949E-05
   9.28919983      -4.79329683E-05
   9.30119991      -4.56709422E-05
   9.31320000      -4.35429793E-05
   9.32520008      -4.15533214E-05
   9.33720016      -3.96933247E-05
   9.34920025      -3.79435114E-05
   9.36120033      -3.62762839E-05
   9.37320042      -3.46591332E-05
   9.38519955      -3.30580988E-05
   9.39719963      -3.14412828E-05
   9.40919971      -2.97821152E-05
   9.42119980      -2.80622389E-05
   9.43319988      -2.62737685E-05
   9.44519997      -2.44208313E-05
