 -0.622799993       0.00000000    
 -0.610800028       0.00000000    
 -0.598800004       0.00000000    
 -0.586799979       0.00000000    
 -0.574800014       4.94615196E-25
 -0.562799990       2.89805211E-24
 -0.550800025       8.06533756E-24
 -0.538800001       1.29887155E-23
 -0.526799977       1.06390483E-23
 -0.514800012      -8.48449683E-25
 -0.502799988      -2.40798805E-24
 -0.490799993       5.16743020E-23
 -0.478799999       2.13438902E-22
 -0.466800004       5.09633023E-22
 -0.454800010       9.57555364E-22
 -0.442799985       1.68691702E-21
 -0.430799991       3.12344429E-21
 -0.418799996       6.00361388E-21
 -0.406800002       1.08720072E-20
 -0.394800007       1.68987474E-20
 -0.382800013       2.04781291E-20
 -0.370799989       1.49255161E-20
 -0.358799994      -6.96587777E-21
 -0.346799999      -4.65646042E-20
 -0.334800005      -9.08345836E-20
 -0.322800010      -1.06784842E-19
 -0.310799986      -4.67914488E-20
 -0.298799992       1.28673140E-19
 -0.286799997       4.11912862E-19
 -0.274800003       7.06699792E-19
 -0.262800008       8.12879590E-19
 -0.250800014       4.70470916E-19
 -0.238800004      -5.16063405E-19
 -0.226799995      -2.08913315E-18
 -0.214800000      -3.75464435E-18
 -0.202800006      -4.52417048E-18
 -0.190799996      -3.11694704E-18
 -0.178800002       1.50042674E-18
 -0.166800007       9.30111990E-18
 -0.154799998       1.83818557E-17
 -0.142800003       2.46067968E-17
 -0.130799994       2.22404002E-17
 -0.118799999       5.91385210E-18
 -0.106799997      -2.62263006E-17
  -9.48000029E-02  -6.90764964E-17
  -8.28000009E-02  -1.08466116E-16
  -7.07999989E-02  -1.22340542E-16
  -5.88000007E-02  -8.67134098E-17
  -4.67999987E-02   1.36849770E-17
  -3.48000005E-02   1.72572216E-16
  -2.28000004E-02   3.52177718E-16
  -1.08000003E-02   4.82773099E-16
   1.20000006E-03   4.77253726E-16
   1.31999999E-02   2.62063762E-16
   2.52000000E-02  -1.81467081E-16
   3.72000001E-02  -7.79422142E-16
   4.91999984E-02  -1.35075412E-15
   6.12000003E-02  -1.63428972E-15
   7.32000023E-02  -1.36525490E-15
   8.51999968E-02  -3.90163837E-16
   9.71999988E-02   1.21392262E-15
  0.109200001       3.06725961E-15
  0.121200003       4.51554450E-15
  0.133200005       4.78962996E-15
  0.145199999       3.28293538E-15
  0.157199994      -1.25071747E-16
  0.169200003      -4.82025402E-15
  0.181199998      -9.41651440E-15
  0.193200007      -1.20281677E-14
  0.205200002      -1.08550931E-14
  0.217199996      -4.95198670E-15
  0.229200006       5.07140225E-15
  0.241200000       1.67334459E-14
  0.253199995       2.60118922E-14
  0.265199989       2.84111537E-14
  0.277200013       2.05823280E-14
  0.289200008       2.02922497E-15
  0.301200002      -2.37493012E-14
  0.313199997      -4.93080037E-14
  0.325199991      -6.48432452E-14
  0.337199986      -6.11714049E-14
  0.349200010      -3.33690798E-14
  0.361200005       1.61097823E-14
  0.373199999       7.61495630E-14
  0.385199994       1.28491998E-13
  0.397199988       1.52242585E-13
  0.409200013       1.30504982E-13
  0.421200007       5.73143014E-14
  0.433200002      -5.74848871E-14
  0.445199996      -1.87566285E-13
  0.457199991      -2.94806009E-13
  0.469199985      -3.38882812E-13
  0.481200010      -2.89626396E-13
  0.493200004      -1.38655607E-13
  0.505200028       9.35010058E-14
  0.517199993       3.57768773E-13
  0.529200017       5.85442014E-13
  0.541199982       7.04257128E-13
  0.553200006       6.57942993E-13
  0.565199971       4.24181984E-13
  0.577199996       2.59101449E-14
  0.589200020      -4.67677546E-13
  0.601199985      -9.51571179E-13
  0.613200009      -1.30517363E-12
  0.625199974      -1.41827695E-12
  0.637199998      -1.21742167E-12
  0.649200022      -6.87203224E-13
  0.661199987       1.17905089E-13
  0.673200011       1.07398725E-12
  0.685199976       2.00133334E-12
  0.697200000       2.69054007E-12
  0.709200025       2.93869334E-12
  0.721199989       2.59157908E-12
  0.733200014       1.58598005E-12
  0.745199978      -1.58229922E-14
  0.757200003      -2.00854155E-12
  0.769200027      -4.05228108E-12
  0.781199992      -5.71291061E-12
  0.793200016      -6.53457496E-12
  0.805199981      -6.13622564E-12
  0.817200005      -4.31514633E-12
  0.829200029      -1.13366857E-12
  0.841199994       3.03649141E-12
  0.853200018       7.53262903E-12
  0.865199983       1.14901743E-11
  0.877200007       1.39932935E-11
  0.889199972       1.42598901E-11
  0.901199996       1.18207883E-11
  0.913200021       6.64916950E-12
  0.925199986      -7.95531935E-13
  0.937200010      -9.62611674E-12
  0.949199975      -1.86798424E-11
  0.961199999      -2.67306351E-11
  0.973200023      -3.27101991E-11
  0.985199988      -3.58827898E-11
  0.997200012      -3.59295406E-11
   1.00919998      -3.29217591E-11
   1.02119994      -2.71934281E-11
   1.03320003      -1.91516733E-11
   1.04519999      -9.08399050E-12
   1.05719995       2.97400841E-12
   1.06920004       1.72550620E-11
   1.08120000       3.41274717E-11
   1.09319997       5.38062407E-11
   1.10520005       7.59261473E-11
   1.11720002       9.90141927E-11
   1.12919998       1.19907653E-10
   1.14119995       1.33160871E-10
   1.15320003       1.30475714E-10
   1.16520000       1.00176041E-10
   1.17719996       2.67267007E-11
   1.18920004      -1.09716215E-10
   1.20120001      -3.33761463E-10
   1.21319997      -6.75302148E-10
   1.22520006      -1.17019872E-09
   1.23720002      -1.86124682E-09
   1.24919999      -2.79963941E-09
   1.26119995      -4.04719902E-09
   1.27320004      -5.67977931E-09
   1.28520000      -7.79238629E-09
   1.29719996      -1.05067652E-08
   1.30920005      -1.39824898E-08
   1.32120001      -1.84327771E-08
   1.33319998      -2.41467770E-08
   1.34519994      -3.15199955E-08
   1.35720003      -4.10952197E-08
   1.36919999      -5.36159526E-08
   1.38119996      -7.00946075E-08
   1.39320004      -9.18970144E-08
   1.40520000      -1.20844277E-07
   1.41719997      -1.59332103E-07
   1.42920005      -2.10466268E-07
   1.44120002      -2.78211218E-07
   1.45319998      -3.67546619E-07
   1.46519995      -4.84625502E-07
   1.47720003      -6.36924824E-07
   1.48920000      -8.33377840E-07
   1.50119996      -1.08447489E-06
   1.51320004      -1.40231964E-06
   1.52520001      -1.80062716E-06
   1.53719997      -2.29464558E-06
   1.54920006      -2.90099319E-06
   1.56120002      -3.63739628E-06
   1.57319999      -4.52231961E-06
   1.58519995      -5.57448311E-06
   1.59720004      -6.81227493E-06
   1.60920000      -8.25305324E-06
   1.62119997      -9.91236811E-06
   1.63320005      -1.18031012E-05
   1.64520001      -1.39345902E-05
   1.65719998      -1.63117184E-05
   1.66919994      -1.89340662E-05
   1.68120003      -2.17951274E-05
   1.69319999      -2.48816632E-05
   1.70519996      -2.81732137E-05
   1.71720004      -3.16418518E-05
   1.72920001      -3.52521711E-05
   1.74119997      -3.89615743E-05
   1.75320005      -4.27208834E-05
   1.76520002      -4.64752229E-05
   1.77719998      -5.01652758E-05
   1.78919995      -5.37287779E-05
   1.80120003      -5.71022938E-05
   1.81320000      -6.02231739E-05
   1.82519996      -6.30316426E-05
   1.83720005      -6.54729010E-05
   1.84920001      -6.74992552E-05
   1.86119998      -6.90720044E-05
   1.87320006      -7.01631216E-05
   1.88520002      -7.07566578E-05
   1.89719999      -7.08496227E-05
   1.90919995      -7.04524355E-05
   1.92120004      -6.95888230E-05
   1.93320000      -6.82952377E-05
   1.94519997      -6.66196138E-05
   1.95720005      -6.46197223E-05
   1.96920002      -6.23610686E-05
   1.98119998      -5.99144005E-05
   1.99319994      -5.73530560E-05
   2.00519991      -5.47501513E-05
   2.01719999      -5.21758593E-05
   2.02920008      -4.96948196E-05
   2.04119992      -4.73638793E-05
   2.05320001      -4.52302593E-05
   2.06520009      -4.33301975E-05
   2.07719994      -4.16882285E-05
   2.08920002      -4.03169943E-05
   2.10120010      -3.92176917E-05
   2.11319995      -3.83811093E-05
   2.12520003      -3.77890865E-05
   2.13720012      -3.74164338E-05
   2.14919996      -3.72330796E-05
   2.16120005      -3.72063987E-05
   2.17319989      -3.73035291E-05
   2.18519998      -3.74935807E-05
   2.19720006      -3.77495635E-05
   2.20919991      -3.80500096E-05
   2.22119999      -3.83800980E-05
   2.23320007      -3.87323053E-05
   2.24519992      -3.91065078E-05
   2.25720000      -3.95095740E-05
   2.26920009      -3.99544406E-05
   2.28119993      -4.04587590E-05
   2.29320002      -4.10431749E-05
   2.30520010      -4.17293668E-05
   2.31719995      -4.25379585E-05
   2.32920003      -4.34863941E-05
   2.34120011      -4.45869446E-05
   2.35319996      -4.58449831E-05
   2.36520004      -4.72575739E-05
   2.37719989      -4.88125697E-05
   2.38919997      -5.04882046E-05
   2.40120006      -5.22533228E-05
   2.41319990      -5.40681976E-05
   2.42519999      -5.58859647E-05
   2.43720007      -5.76546554E-05
   2.44919991      -5.93196892E-05
   2.46120000      -6.08267765E-05
   2.47320008      -6.21250729E-05
   2.48519993      -6.31704315E-05
   2.49720001      -6.39285645E-05
   2.50920010      -6.43780004E-05
   2.52119994      -6.45125401E-05
   2.53320003      -6.43431922E-05
   2.54520011      -6.38993370E-05
   2.55719995      -6.32290539E-05
   2.56920004      -6.23985252E-05
   2.58119988      -6.14905512E-05
   2.59319997      -6.06020985E-05
   2.60520005      -5.98410588E-05
   2.61719990      -5.93222321E-05
   2.62919998      -5.91628377E-05
   2.64120007      -5.94775665E-05
   2.65319991      -6.03735643E-05
   2.66520000      -6.19454440E-05
   2.67720008      -6.42706291E-05
   2.68919992      -6.74052135E-05
   2.70120001      -7.13805421E-05
   2.71320009      -7.62006166E-05
   2.72519994      -8.18405606E-05
   2.73720002      -8.82460736E-05
   2.74920011      -9.53340204E-05
   2.76119995      -1.02993981E-04
   2.77320004      -1.11090849E-04
   2.78520012      -1.19468219E-04
   2.79719996      -1.27952429E-04
   2.80920005      -1.36357179E-04
   2.82119989      -1.44488295E-04
   2.83319998      -1.52148787E-04
   2.84520006      -1.59143587E-04
   2.85719991      -1.65284247E-04
   2.86919999      -1.70392959E-04
   2.88120008      -1.74306348E-04
   2.89319992      -1.76878370E-04
   2.90520000      -1.77982874E-04
   2.91720009      -1.77515263E-04
   2.92919993      -1.75393769E-04
   2.94120002      -1.71560241E-04
   2.95320010      -1.65980266E-04
   2.96519995      -1.58643379E-04
   2.97720003      -1.49562635E-04
   2.98920012      -1.38774529E-04
   3.00119996      -1.26338433E-04
   3.01320004      -1.12336449E-04
   3.02519989      -9.68729946E-05
   3.03719997      -8.00746129E-05
   3.04920006      -6.20895880E-05
   3.06119990      -4.30874970E-05
   3.07319999      -2.32585771E-05
   3.08520007      -2.81268240E-06
   3.09719992       1.80221850E-05
   3.10920000       3.90019050E-05
   3.12120008       5.98689257E-05
   3.13319993       8.03556541E-05
   3.14520001       1.00188532E-04
   3.15720010       1.19092860E-04
   3.16919994       1.36798131E-04
   3.18120003       1.53043933E-04
   3.19320011       1.67585982E-04
   3.20519996       1.80202434E-04
   3.21720004       1.90699910E-04
   3.22919989       1.98919108E-04
   3.24119997       2.04739816E-04
   3.25320005       2.08084952E-04
   3.26519990       2.08923637E-04
   3.27719998       2.07272926E-04
   3.28920007       2.03198171E-04
   3.30119991       1.96812107E-04
   3.31320000       1.88272490E-04
   3.32520008       1.77778347E-04
   3.33719993       1.65565114E-04
   3.34920001       1.51898756E-04
   3.36120009       1.37068972E-04
   3.37319994       1.21381854E-04
   3.38520002       1.05152161E-04
   3.39720011       8.86954585E-05
   3.40919995       7.23203775E-05
   3.42120004       5.63212161E-05
   3.43319988       4.09711283E-05
   3.44519997       2.65159852E-05
   3.45720005       1.31691222E-05
   3.46919990       1.10712028E-06
   3.48119998      -9.53339986E-06
   3.49320006      -1.86577981E-05
   3.50519991      -2.62142985E-05
   3.51719999      -3.21937114E-05
   3.52920008      -3.66280001E-05
   3.54119992      -3.95877978E-05
   3.55320001      -4.11788969E-05
   3.56520009      -4.15378636E-05
   3.57719994      -4.08268352E-05
   3.58920002      -3.92277143E-05
   3.60120010      -3.69358968E-05
   3.61319995      -3.41536943E-05
   3.62520003      -3.10837022E-05
   3.63720012      -2.79222259E-05
   3.64919996      -2.48531142E-05
   3.66120005      -2.20420625E-05
   3.67319989      -1.96316869E-05
   3.68519998      -1.77374914E-05
   3.69720006      -1.64448757E-05
   3.70919991      -1.58073035E-05
   3.72119999      -1.58456842E-05
   3.73320007      -1.65489600E-05
   3.74519992      -1.78758855E-05
   3.75720000      -1.97579102E-05
   3.76920009      -2.21030241E-05
   3.78119993      -2.48004071E-05
   3.79320002      -2.77256804E-05
   3.80520010      -3.07465598E-05
   3.81719995      -3.37286510E-05
   3.82920003      -3.65411433E-05
   3.84120011      -3.90622154E-05
   3.85319996      -4.11839064E-05
   3.86520004      -4.28162675E-05
   3.87719989      -4.38906864E-05
   3.88919997      -4.43622339E-05
   3.90120006      -4.42110104E-05
   3.91319990      -4.34424510E-05
   3.92519999      -4.20866781E-05
   3.93720007      -4.01968646E-05
   3.94919991      -3.78468212E-05
   3.96120000      -3.51278359E-05
   3.97320008      -3.21449588E-05
   3.98519993      -2.90128810E-05
   3.99720001      -2.58514865E-05
   4.00920010      -2.27813598E-05
   4.02120018      -1.99192818E-05
   4.03319979      -1.73739172E-05
   4.04519987      -1.52418288E-05
   4.05719995      -1.36038925E-05
   4.06920004      -1.25222768E-05
   4.08120012      -1.20380073E-05
   4.09320021      -1.21692465E-05
   4.10519981      -1.29102846E-05
   4.11719990      -1.42313302E-05
   4.12919998      -1.60790842E-05
   4.14120007      -1.83781267E-05
   4.15320015      -2.10331000E-05
   4.16520023      -2.39316396E-05
   4.17719984      -2.69480188E-05
   4.18919992      -2.99474086E-05
   4.20120001      -3.27906273E-05
   4.21320009      -3.53392861E-05
   4.22520018      -3.74610754E-05
   4.23719978      -3.90350870E-05
   4.24919987      -3.99569217E-05
   4.26119995      -4.01433535E-05
   4.27320004      -3.95363422E-05
   4.28520012      -3.81062273E-05
   4.29720020      -3.58538600E-05
   4.30919981      -3.28115675E-05
   4.32119989      -2.90428416E-05
   4.33319998      -2.46406962E-05
   4.34520006      -1.97247227E-05
   4.35720015      -1.44369051E-05
   4.36920023      -8.93637480E-06
   4.38119984      -3.39329358E-06
   4.39319992       2.01785201E-06
   4.40520000       7.12523979E-06
   4.41720009       1.17666468E-05
   4.42920017       1.57959785E-05
   4.44119978       1.90890769E-05
   4.45319986       2.15485106E-05
   4.46519995       2.31070826E-05
   4.47720003       2.37299264E-05
   4.48920012       2.34150539E-05
   4.50120020       2.21923965E-05
   4.51319981       2.01213752E-05
   4.52519989       1.72872187E-05
   4.53719997       1.37962188E-05
   4.54920006       9.77025866E-06
   4.56120014       5.34091350E-06
   4.57320023       6.43473982E-07
   4.58519983      -4.18877516E-06
   4.59719992      -9.02972170E-06
   4.60920000      -1.37647985E-05
   4.62120008      -1.82943677E-05
   4.63320017      -2.25360182E-05
   4.64519978      -2.64257360E-05
   4.65719986      -2.99179865E-05
   4.66919994      -3.29848481E-05
   4.68120003      -3.56143173E-05
   4.69320011      -3.78080258E-05
   4.70520020      -3.95785937E-05
   4.71719980      -4.09468412E-05
   4.72919989      -4.19390926E-05
   4.74119997      -4.25847466E-05
   4.75320005      -4.29142856E-05
   4.76520014      -4.29577667E-05
   4.77720022      -4.27439227E-05
   4.78919983      -4.22997582E-05
   4.80119991      -4.16506919E-05
   4.81320000      -4.08210472E-05
   4.82520008      -3.98348566E-05
   4.83720016      -3.87167784E-05
   4.84919977      -3.74930351E-05
   4.86119986      -3.61922066E-05
   4.87319994      -3.48458161E-05
   4.88520002      -3.34885844E-05
   4.89720011      -3.21583248E-05
   4.90920019      -3.08954150E-05
   4.92119980      -2.97419665E-05
   4.93319988      -2.87405819E-05
   4.94519997      -2.79329070E-05
   4.95720005      -2.73579844E-05
   4.96920013      -2.70505407E-05
   4.98120022      -2.70393157E-05
   4.99319983      -2.73455280E-05
   5.00519991      -2.79816031E-05
   5.01719999      -2.89501968E-05
   5.02920008      -3.02436256E-05
   5.04120016      -3.18437378E-05
   5.05319977      -3.37222264E-05
   5.06519985      -3.58413927E-05
   5.07719994      -3.81553509E-05
   5.08920002      -4.06116014E-05
   5.10120010      -4.31529115E-05
   5.11320019      -4.57194474E-05
   5.12519979      -4.82510331E-05
   5.13719988      -5.06894503E-05
   5.14919996      -5.29807003E-05
   5.16120005      -5.50770783E-05
   5.17320013      -5.69390031E-05
   5.18520021      -5.85365160E-05
   5.19719982      -5.98503575E-05
   5.20919991      -6.08726041E-05
   5.22119999      -6.16067409E-05
   5.23320007      -6.20672872E-05
   5.24520016      -6.22788357E-05
   5.25719976      -6.22746156E-05
   5.26919985      -6.20946885E-05
   5.28119993      -6.17836704E-05
   5.29320002      -6.13882585E-05
   5.30520010      -6.09546260E-05
   5.31720018      -6.05257628E-05
   5.32919979      -6.01389147E-05
   5.34119987      -5.98232873E-05
   5.35319996      -5.95981073E-05
   5.36520004      -5.94711710E-05
   5.37720013      -5.94379453E-05
   5.38920021      -5.94813500E-05
   5.40119982      -5.95722304E-05
   5.41319990      -5.96705468E-05
   5.42519999      -5.97272738E-05
   5.43720007      -5.96869140E-05
   5.44920015      -5.94905869E-05
   5.46120024      -5.90794589E-05
   5.47319984      -5.83984620E-05
   5.48519993      -5.73999641E-05
   5.49720001      -5.60473054E-05
   5.50920010      -5.43179049E-05
   5.52120018      -5.22057635E-05
   5.53319979      -4.97232068E-05
   5.54519987      -4.69016959E-05
   5.55719995      -4.37916460E-05
   5.56920004      -4.04611783E-05
   5.58120012      -3.69938571E-05
   5.59320021      -3.34854813E-05
   5.60519981      -3.00400516E-05
   5.61719990      -2.67651576E-05
   5.62919998      -2.37669501E-05
   5.64120007      -2.11450315E-05
   5.65320015      -1.89875118E-05
   5.66520023      -1.73665194E-05
   5.67719984      -1.63344102E-05
   5.68919992      -1.59209085E-05
   5.70120001      -1.61313183E-05
   5.71320009      -1.69459217E-05
   5.72520018      -1.83205866E-05
   5.73719978      -2.01885632E-05
   5.74919987      -2.24633441E-05
   5.76119995      -2.50424546E-05
   5.77320004      -2.78119496E-05
   5.78520012      -3.06513793E-05
   5.79720020      -3.34389697E-05
   5.80919981      -3.60567319E-05
   5.82119989      -3.83952756E-05
   5.83319998      -4.03580852E-05
   5.84520006      -4.18650488E-05
   5.85720015      -4.28551830E-05
   5.86920023      -4.32884226E-05
   5.88119984      -4.31464468E-05
   5.89319992      -4.24326281E-05
   5.90520000      -4.11711153E-05
   5.91720009      -3.94052004E-05
   5.92920017      -3.71950882E-05
   5.94119978      -3.46151646E-05
   5.95319986      -3.17509512E-05
   5.96519995      -2.86958948E-05
   5.97720003      -2.55480463E-05
   5.98920012      -2.24068226E-05
   6.00120020      -1.93698852E-05
   6.01319981      -1.65302354E-05
   6.02519989      -1.39735839E-05
   6.03719997      -1.17760028E-05
   6.04920006      -1.00019079E-05
   6.06120014      -8.70238455E-06
   6.07320023      -7.91385719E-06
   6.08519983      -7.65714867E-06
   6.09719992      -7.93693289E-06
   6.10920000      -8.74161833E-06
   6.12120008      -1.00436946E-05
   6.13320017      -1.18005437E-05
   6.14519978      -1.39557451E-05
   6.15719986      -1.64408357E-05
   6.16919994      -1.91774998E-05
   6.18120003      -2.20801212E-05
   6.19320011      -2.50586218E-05
   6.20520020      -2.80214517E-05
   6.21719980      -3.08786621E-05
   6.22919989      -3.35448894E-05
   6.24119997      -3.59421574E-05
   6.25320005      -3.80023521E-05
   6.26520014      -3.96692885E-05
   6.27720022      -4.09002496E-05
   6.28919983      -4.16669536E-05
   6.30119991      -4.19559401E-05
   6.31320000      -4.17683077E-05
   6.32520008      -4.11189540E-05
   6.33720016      -4.00353019E-05
   6.34919977      -3.85556268E-05
   6.36119986      -3.67271641E-05
   6.37319994      -3.46040069E-05
   6.38520002      -3.22450287E-05
   6.39720011      -2.97118258E-05
   6.40920019      -2.70667861E-05
   6.42119980      -2.43714039E-05
   6.43319988      -2.16847711E-05
   6.44519997      -1.90623232E-05
   6.45720005      -1.65548227E-05
   6.46920013      -1.42075487E-05
   6.48120022      -1.20596942E-05
   6.49319983      -1.01439364E-05
   6.50519991      -8.48616219E-06
   6.51719999      -7.10533141E-06
   6.52920008      -6.01346346E-06
   6.54120016      -5.21576249E-06
   6.55319977      -4.71086469E-06
   6.56519985      -4.49123945E-06
   6.57719994      -4.54374594E-06
   6.58920002      -4.85036298E-06
   6.60120010      -5.38908671E-06
   6.61320019      -6.13498878E-06
   6.62519979      -7.06140509E-06
   6.63719988      -8.14119539E-06
   6.64919996      -9.34801847E-06
   6.66120005      -1.06575453E-05
   6.67320013      -1.20485111E-05
   6.68520021      -1.35035443E-05
   6.69719982      -1.50096876E-05
   6.70919991      -1.65585607E-05
   6.72119999      -1.81461328E-05
   6.73320007      -1.97721110E-05
   6.74520016      -2.14389638E-05
   6.75719976      -2.31506401E-05
   6.76919985      -2.49110799E-05
   6.78119993      -2.67226187E-05
   6.79320002      -2.85844108E-05
   6.80520010      -3.04910009E-05
   6.81720018      -3.24311841E-05
   6.82919979      -3.43872416E-05
   6.84119987      -3.63346444E-05
   6.85319996      -3.82423095E-05
   6.86520004      -4.00733406E-05
   6.87720013      -4.17863375E-05
   6.88920021      -4.33370733E-05
   6.90119982      -4.46805607E-05
   6.91319990      -4.57732858E-05
   6.92519999      -4.65755074E-05
   6.93720007      -4.70534760E-05
   6.94920015      -4.71813619E-05
   6.96120024      -4.69428487E-05
   6.97319984      -4.63322249E-05
   6.98519993      -4.53549437E-05
   6.99720001      -4.40275653E-05
   7.00920010      -4.23771962E-05
   7.02120018      -4.04404091E-05
   7.03319979      -3.82617218E-05
   7.04519987      -3.58917969E-05
   7.05719995      -3.33854914E-05
   7.06920004      -3.07998162E-05
   7.08120012      -2.81920129E-05
   7.09320021      -2.56177827E-05
   7.10519981      -2.31297799E-05
   7.11719990      -2.07764042E-05
   7.12919998      -1.86009256E-05
   7.14120007      -1.66409045E-05
   7.15320015      -1.49278994E-05
   7.16520023      -1.34874163E-05
   7.17719984      -1.23389937E-05
   7.18919992      -1.14964005E-05
   7.20120001      -1.09678522E-05
   7.21320009      -1.07562009E-05
   7.22520018      -1.08590684E-05
   7.23719978      -1.12688849E-05
   7.24919987      -1.19728647E-05
   7.26119995      -1.29529390E-05
   7.27320004      -1.41856926E-05
   7.28520012      -1.56423630E-05
   7.29720020      -1.72889540E-05
   7.30919981      -1.90865576E-05
   7.32119989      -2.09918690E-05
   7.33319998      -2.29579928E-05
   7.34520006      -2.49354835E-05
   7.35720015      -2.68736658E-05
   7.36920023      -2.87221610E-05
   7.38119984      -3.04325840E-05
   7.39319992      -3.19603314E-05
   7.40520000      -3.32663840E-05
   7.41720009      -3.43190040E-05
   7.42920017      -3.50952687E-05
   7.44119978      -3.55823067E-05
   7.45319986      -3.57781428E-05
   7.46519995      -3.56920973E-05
   7.47720003      -3.53446922E-05
   7.48920012      -3.47670175E-05
   7.50120020      -3.39995313E-05
   7.51319981      -3.30904368E-05
   7.52519989      -3.20935687E-05
   7.53719997      -3.10660034E-05
   7.54920006      -3.00654319E-05
   7.56120014      -2.91474844E-05
   7.57320023      -2.83631052E-05
   7.58519983      -2.77561812E-05
   7.59719992      -2.73614805E-05
   7.60920000      -2.72031139E-05
   7.62120008      -2.72935104E-05
   7.63320017      -2.76330538E-05
   7.64519978      -2.82103174E-05
   7.65719986      -2.90029475E-05
   7.66919994      -2.99790863E-05
   7.68120003      -3.10992837E-05
   7.69320011      -3.23187269E-05
   7.70520020      -3.35897166E-05
   7.71719980      -3.48641552E-05
   7.72919989      -3.60959821E-05
   7.74119997      -3.72433460E-05
   7.75320005      -3.82704457E-05
   7.76520014      -3.91489084E-05
   7.77720022      -3.98586963E-05
   7.78919983      -4.03884515E-05
   7.80119991      -4.07353509E-05
   7.81320000      -4.09045060E-05
   7.82520008      -4.09079730E-05
   7.83720016      -4.07634834E-05
   7.84919977      -4.04929960E-05
   7.86119986      -4.01211873E-05
   7.87319994      -3.96739742E-05
   7.88520002      -3.91771646E-05
   7.89720011      -3.86552783E-05
   7.90920019      -3.81306236E-05
   7.92119980      -3.76225798E-05
   7.93319988      -3.71471724E-05
   7.94519997      -3.67168068E-05
   7.95720005      -3.63402432E-05
   7.96920013      -3.60227059E-05
   7.98120022      -3.57661047E-05
   7.99319983      -3.55693046E-05
   8.00520039      -3.54284639E-05
   8.01720047      -3.53373725E-05
   8.02919960      -3.52877760E-05
   8.04119968      -3.52697061E-05
   8.05319977      -3.52718052E-05
   8.06519985      -3.52816969E-05
   8.07719994      -3.52863426E-05
   8.08920002      -3.52724965E-05
   8.10120010      -3.52272109E-05
   8.11320019      -3.51384260E-05
   8.12520027      -3.49955990E-05
   8.13720036      -3.47903733E-05
   8.14920044      -3.45172339E-05
   8.16119957      -3.41741143E-05
   8.17319965      -3.37628917E-05
   8.18519974      -3.32896743E-05
   8.19719982      -3.27649577E-05
   8.20919991      -3.22034175E-05
   8.22119999      -3.16235091E-05
   8.23320007      -3.10467440E-05
   8.24520016      -3.04967052E-05
   8.25720024      -2.99978292E-05
   8.26920033      -2.95740283E-05
   8.28120041      -2.92472087E-05
   8.29319954      -2.90357821E-05
   8.30519962      -2.89532818E-05
   8.31719971      -2.90071748E-05
   8.32919979      -2.91979468E-05
   8.34119987      -2.95185455E-05
   8.35319996      -2.99542680E-05
   8.36520004      -3.04830573E-05
   8.37720013      -3.10762953E-05
   8.38920021      -3.16999831E-05
   8.40120029      -3.23163222E-05
   8.41320038      -3.28855931E-05
   8.42520046      -3.33682474E-05
   8.43719959      -3.37270540E-05
   8.44919968      -3.39292528E-05
   8.46119976      -3.39485450E-05
   8.47319984      -3.37667843E-05
   8.48519993      -3.33753305E-05
   8.49720001      -3.27759117E-05
   8.50920010      -3.19809806E-05
   8.52120018      -3.10135038E-05
   8.53320026      -2.99062394E-05
   8.54520035      -2.87004495E-05
   8.55720043      -2.74441772E-05
   8.56919956      -2.61901550E-05
   8.58119965      -2.49934128E-05
   8.59319973      -2.39087385E-05
   8.60519981      -2.29880916E-05
   8.61719990      -2.22781237E-05
   8.62919998      -2.18178939E-05
   8.64120007      -2.16369517E-05
   8.65320015      -2.17538309E-05
   8.66520023      -2.21750834E-05
   8.67720032      -2.28948920E-05
   8.68920040      -2.38952489E-05
   8.70119953      -2.51467354E-05
   8.71319962      -2.66098305E-05
   8.72519970      -2.82366636E-05
   8.73719978      -2.99731364E-05
   8.74919987      -3.17612867E-05
   8.76119995      -3.35417717E-05
   8.77320004      -3.52563402E-05
   8.78520012      -3.68502115E-05
   8.79720020      -3.82741855E-05
   8.80920029      -3.94864655E-05
   8.82120037      -4.04540478E-05
   8.83320045      -4.11536894E-05
   8.84519958      -4.15723553E-05
   8.85719967      -4.17072297E-05
   8.86919975      -4.15652430E-05
   8.88119984      -4.11622168E-05
   8.89319992      -4.05216633E-05
   8.90520000      -3.96733485E-05
   8.91720009      -3.86517022E-05
   8.92920017      -3.74941701E-05
   8.94120026      -3.62395876E-05
   8.95320034      -3.49266338E-05
   8.96520042      -3.35924851E-05
   8.97719955      -3.22716478E-05
   8.98919964      -3.09950483E-05
   9.00119972      -2.97893384E-05
   9.01319981      -2.86765135E-05
   9.02519989      -2.76737210E-05
   9.03719997      -2.67933265E-05
   9.04920006      -2.60431316E-05
   9.06120014      -2.54267634E-05
   9.07320023      -2.49441673E-05
   9.08520031      -2.45921365E-05
   9.09720039      -2.43648938E-05
   9.10919952      -2.42546321E-05
   9.12119961      -2.42520327E-05
   9.13319969      -2.43466911E-05
   9.14519978      -2.45275060E-05
   9.15719986      -2.47829503E-05
   9.16919994      -2.51012716E-05
   9.18120003      -2.54706465E-05
   9.19320011      -2.58792479E-05
   9.20520020      -2.63153161E-05
   9.21720028      -2.67672076E-05
   9.22920036      -2.72234684E-05
   9.24120045      -2.76729370E-05
   9.25319958      -2.81049161E-05
   9.26519966      -2.85093811E-05
   9.27719975      -2.88772462E-05
   9.28919983      -2.92006716E-05
   9.30119991      -2.94733782E-05
   9.31320000      -2.96909620E-05
   9.32520008      -2.98511532E-05
   9.33720016      -2.99540261E-05
   9.34920025      -3.00021020E-05
   9.36120033      -3.00003485E-05
   9.37320042      -2.99560616E-05
   9.38519955      -2.98785817E-05
   9.39719963      -2.97789047E-05
   9.40919971      -2.96691760E-05
   9.42119980      -2.95620830E-05
   9.43319988      -2.94702022E-05
   9.44519997      -2.94053443E-05
