 -0.622799993       0.00000000    
 -0.610800028       0.00000000    
 -0.598800004       0.00000000    
 -0.586799979       0.00000000    
 -0.574800014       0.00000000    
 -0.562799990       0.00000000    
 -0.550800025       0.00000000    
 -0.538800001      -6.02232745E-31
 -0.526799977      -5.04337106E-30
 -0.514800012      -1.57425995E-29
 -0.502799988       6.53038307E-30
 -0.490799993       2.79228714E-28
 -0.478799999       1.45332195E-27
 -0.466800004       4.85331380E-27
 -0.454800010       1.23862664E-26
 -0.442799985       2.59569627E-26
 -0.430799991       4.70714257E-26
 -0.418799996       7.84096740E-26
 -0.406800002       1.28497208E-25
 -0.394800007       2.15336101E-25
 -0.382800013       3.54740050E-25
 -0.370799989       5.11876113E-25
 -0.358799994       5.07816586E-25
 -0.346799999      -7.47580492E-26
 -0.334800005      -1.85587397E-24
 -0.322800010      -5.29721794E-24
 -0.310799986      -9.89121766E-24
 -0.298799992      -1.30974481E-23
 -0.286799997      -9.78900889E-24
 -0.274800003       6.49329437E-24
 -0.262800008       3.92545107E-23
 -0.250800014       8.18461680E-23
 -0.238800004       1.10299617E-22
 -0.226799995       8.25398607E-23
 -0.214800000      -4.80529319E-23
 -0.202800006      -3.00143752E-22
 -0.190799996      -6.18985099E-22
 -0.178800002      -8.40221884E-22
 -0.166800007      -6.99751329E-22
 -0.154799998       7.31999748E-23
 -0.142800003       1.56912537E-21
 -0.130799994       3.46381760E-21
 -0.118799999       4.85565117E-21
 -0.106799997       4.34501497E-21
  -9.48000029E-02   5.05486720E-22
  -8.28000009E-02  -7.23696602E-21
  -7.07999989E-02  -1.75431275E-20
  -5.88000007E-02  -2.64232652E-20
  -4.67999987E-02  -2.75004919E-20
  -3.48000005E-02  -1.38450131E-20
  -2.28000004E-02   1.85513589E-20
  -1.08000003E-02   6.64504301E-20
   1.20000006E-03   1.15946617E-19
   1.31999999E-02   1.42323636E-19
   2.52000000E-02   1.15330898E-19
   3.72000001E-02   1.05915776E-20
   4.91999984E-02  -1.74699473E-19
   6.12000003E-02  -4.06682288E-19
   7.32000023E-02  -6.07642742E-19
   8.51999968E-02  -6.64434843E-19
   9.71999988E-02  -4.57532208E-19
  0.109200001       9.03540886E-20
  0.121200003       9.55767907E-19
  0.133200005       1.96478308E-18
  0.145199999       2.77703288E-18
  0.157199994       2.92849006E-18
  0.169200003       1.94879740E-18
  0.181199998      -4.51032688E-19
  0.193200007      -4.15421684E-18
  0.205200002      -8.44437254E-18
  0.217199996      -1.19373065E-17
  0.229200006      -1.27406651E-17
  0.241200000      -8.91420782E-18
  0.253199995       7.74526534E-19
  0.265199989       1.59299054E-17
  0.277200013       3.37235415E-17
  0.289200008       4.86089478E-17
  0.301200002       5.29846637E-17
  0.313199997       3.90890650E-17
  0.325199991       2.05236662E-18
  0.337199986      -5.65053297E-17
  0.349200010      -1.25522329E-16
  0.361200005      -1.83775550E-16
  0.373199999      -2.02903262E-16
  0.385199994      -1.54916939E-16
  0.397199988      -2.34632031E-17
  0.409200013       1.83836577E-16
  0.421200007       4.26422114E-16
  0.433200002       6.30449852E-16
  0.445199996       7.01309611E-16
  0.457199991       5.50041808E-16
  0.469199985       1.29616714E-16
  0.481200010      -5.28641044E-16
  0.493200004      -1.29245433E-15
  0.505200028      -1.93427914E-15
  0.517199993      -2.17478420E-15
  0.529200017      -1.76302009E-15
  0.541199982      -5.77880605E-16
  0.553200006       1.27830613E-15
  0.565199971       3.43109669E-15
  0.577199996       5.26399594E-15
  0.589200020       6.04432589E-15
  0.601199985       5.13329579E-15
  0.613200009       2.23483756E-15
  0.625199974      -2.39049681E-15
  0.637199998      -7.83108641E-15
  0.649200022      -1.26180406E-14
  0.661199987      -1.50318922E-14
  0.673200011      -1.35817320E-14
  0.685199976      -7.54732360E-15
  0.697200000       2.57539732E-15
  0.709200025       1.48947220E-14
  0.721199989       2.63347913E-14
  0.733200014       3.32683473E-14
  0.745199978       3.24738676E-14
  0.757200003       2.21964255E-14
  0.769200027       3.01182830E-15
  0.781199992      -2.18089690E-14
  0.793200016      -4.66471581E-14
  0.805199981      -6.46348277E-14
  0.817200005      -6.93297755E-14
  0.829200029      -5.65916976E-14
  0.841199994      -2.61640786E-14
  0.853200018       1.75307783E-14
  0.865199983       6.57308477E-14
  0.877200007       1.06892854E-13
  0.889199972       1.29234893E-13
  0.901199996       1.23732486E-13
  0.913200021       8.68500083E-14
  0.925199986       2.22694398E-14
  0.937200010      -5.89500576E-14
  0.949199975      -1.40018138E-13
  0.961199999      -2.01677826E-13
  0.973200023      -2.26486134E-13
  0.985199988      -2.03198759E-13
  0.997200012      -1.30227602E-13
   1.00919998      -1.72480845E-14
   1.02119994       1.15630392E-13
   1.03320003       2.41217338E-13
   1.04519999       3.30628699E-13
   1.05719995       3.59692771E-13
   1.06920004       3.15005671E-13
   1.08120000       1.98179011E-13
   1.09319997       2.70737463E-14
   1.10520005      -1.66624283E-13
   1.11720002      -3.43329233E-13
   1.12919998      -4.63947077E-13
   1.14119995      -4.98957375E-13
   1.15320003      -4.36011849E-13
   1.16520000      -2.83989520E-13
   1.17719996      -7.21245573E-14
   1.18920004       1.56031980E-13
   1.20120001       3.52692701E-13
   1.21319997       4.77603959E-13
   1.22520006       5.08433952E-13
   1.23720002       4.46781989E-13
   1.24919999       3.17765806E-13
   1.26119995       1.62803527E-13
   1.27320004       2.71708993E-14
   1.28520000      -5.43825035E-14
   1.29719996      -6.97668309E-14
   1.30920005      -3.54969316E-14
   1.32120001       6.03828443E-15
   1.33319998      -1.85714832E-15
   1.34519994      -1.12205750E-13
   1.35720003      -3.54485755E-13
   1.36919999      -7.18366827E-13
   1.38119996      -1.14606100E-12
   1.39320004      -1.53642799E-12
   1.40520000      -1.76120576E-12
   1.41719997      -1.69080093E-12
   1.42920005      -1.22474275E-12
   1.44120002      -3.20696106E-13
   1.45319998       9.83934180E-13
   1.46519995       2.56250880E-12
   1.47720003       4.20450090E-12
   1.48920000       5.63624581E-12
   1.50119996       6.55562193E-12
   1.51320004       6.67741210E-12
   1.52520001       5.78443326E-12
   1.53719997       3.77788989E-12
   1.54920006       7.18792972E-13
   1.56120002      -3.14883146E-12
   1.57319999      -7.40211451E-12
   1.58519995      -1.14778456E-11
   1.59720004      -1.47472694E-11
   1.60920000      -1.66215462E-11
   1.62119997      -1.66730813E-11
   1.63320005      -1.47493563E-11
   1.64520001      -1.10506014E-11
   1.65719998      -6.14335319E-12
   1.66919994      -8.90126894E-13
   1.68120003       3.70879889E-12
   1.69319999       6.74449125E-12
   1.70519996       7.66009565E-12
   1.71720004       6.48565490E-12
   1.72920001       3.98007235E-12
   1.74119997       1.61691721E-12
   1.75320005       1.36791088E-12
   1.76520002       5.26851956E-12
   1.77719998       1.47883511E-11
   1.78919995       3.00711227E-11
   1.80120003       4.91484388E-11
   1.81320000       6.72602737E-11
   1.82519996       7.64355176E-11
   1.83720005       6.54889615E-11
   1.84920001       2.05801765E-11
   1.86119998      -7.35458083E-11
   1.87320006      -2.31556593E-10
   1.88520002      -4.64750960E-10
   1.89719999      -7.77553910E-10
   1.90919995      -1.16343479E-09
   1.92120004      -1.60051294E-09
   1.93320000      -2.04722639E-09
   1.94519997      -2.43854403E-09
   1.95720005      -2.68330735E-09
   1.96920002      -2.66329070E-09
   1.98119998      -2.23449326E-09
   1.99319994      -1.23098676E-09
   2.00519991       5.28740551E-10
   2.01719999       3.23358362E-09
   2.02920008       7.07115833E-09
   2.04119992       1.22210499E-08
   2.05320001       1.88533136E-08
   2.06520009       2.71369078E-08
   2.07719994       3.72635114E-08
   2.08920002       4.94932735E-08
   2.10120010       6.42293827E-08
   2.11319995       8.21284161E-08
   2.12520003       1.04253012E-07
   2.13720012       1.32271651E-07
   2.14919996       1.68708766E-07
   2.16120005       2.17245528E-07
   2.17319989       2.83067180E-07
   2.18519998       3.73250771E-07
   2.19720006       4.97179371E-07
   2.20919991       6.66967139E-07
   2.22119999       8.97873747E-07
   2.23320007       1.20867946E-06
   2.24519992       1.62199478E-06
   2.25720000       2.16446915E-06
   2.26920009       2.86686873E-06
   2.28119993       3.76398179E-06
   2.29320002       4.89433751E-06
   2.30520010       6.29969782E-06
   2.31719995       8.02430804E-06
   2.32920003       1.01139085E-05
   2.34120011       1.26144987E-05
   2.35319996       1.55708749E-05
   2.36520004       1.90249721E-05
   2.37719989       2.30140504E-05
   2.38919997       2.75687999E-05
   2.40120006       3.27113958E-05
   2.41319990       3.84536361E-05
   2.42519999       4.47951934E-05
   2.43720007       5.17221197E-05
   2.44919991       5.92056494E-05
   2.46120000       6.72013848E-05
   2.47320008       7.56490117E-05
   2.48519993       8.44724709E-05
   2.49720001       9.35807548E-05
   2.50920010       1.02869271E-04
   2.52119994       1.12221736E-04
   2.53320003       1.21512683E-04
   2.54520011       1.30610424E-04
   2.55719995       1.39380427E-04
   2.56920004       1.47688886E-04
   2.58119988       1.55406640E-04
   2.59319997       1.62412965E-04
   2.60520005       1.68599348E-04
   2.61719990       1.73872919E-04
   2.62919998       1.78159433E-04
   2.64120007       1.81405907E-04
   2.65319991       1.83582335E-04
   2.66520000       1.84682853E-04
   2.67720008       1.84726028E-04
   2.68919992       1.83754295E-04
   2.70120001       1.81832613E-04
   2.71320009       1.79046328E-04
   2.72519994       1.75498339E-04
   2.73720002       1.71305670E-04
   2.74920011       1.66595710E-04
   2.76119995       1.61501885E-04
   2.77320004       1.56159556E-04
   2.78520012       1.50701657E-04
   2.79719996       1.45254788E-04
   2.80920005       1.39935553E-04
   2.82119989       1.34847476E-04
   2.83319998       1.30078595E-04
   2.84520006       1.25699633E-04
   2.85719991       1.21763187E-04
   2.86919999       1.18303396E-04
   2.88120008       1.15336574E-04
   2.89319992       1.12862472E-04
   2.90520000       1.10866138E-04
   2.91720009       1.09320179E-04
   2.92919993       1.08187494E-04
   2.94120002       1.07424123E-04
   2.95320010       1.06982123E-04
   2.96519995       1.06812397E-04
   2.97720003       1.06867221E-04
   2.98920012       1.07102474E-04
   3.00119996       1.07479398E-04
   3.01320004       1.07965818E-04
   3.02519989       1.08536966E-04
   3.03719997       1.09175598E-04
   3.04920006       1.09871777E-04
   3.06119990       1.10622095E-04
   3.07319999       1.11428642E-04
   3.08520007       1.12297566E-04
   3.09719992       1.13237598E-04
   3.10920000       1.14258401E-04
   3.12120008       1.15369025E-04
   3.13319993       1.16576477E-04
   3.14520001       1.17884469E-04
   3.15720010       1.19292497E-04
   3.16919994       1.20795230E-04
   3.18120003       1.22382233E-04
   3.19320011       1.24038110E-04
   3.20519996       1.25742954E-04
   3.21720004       1.27473104E-04
   3.22919989       1.29202192E-04
   3.24119997       1.30902452E-04
   3.25320005       1.32545989E-04
   3.26519990       1.34106318E-04
   3.27719998       1.35559705E-04
   3.28920007       1.36886534E-04
   3.30119991       1.38072486E-04
   3.31320000       1.39109441E-04
   3.32520008       1.39996220E-04
   3.33719993       1.40738921E-04
   3.34920001       1.41351105E-04
   3.36120009       1.41853467E-04
   3.37319994       1.42273420E-04
   3.38520002       1.42644320E-04
   3.39720011       1.43004450E-04
   3.40919995       1.43395897E-04
   3.42120004       1.43863246E-04
   3.43319988       1.44452322E-04
   3.44519997       1.45208774E-04
   3.45720005       1.46176870E-04
   3.46919990       1.47398168E-04
   3.48119998       1.48910534E-04
   3.49320006       1.50747132E-04
   3.50519991       1.52935609E-04
   3.51719999       1.55497459E-04
   3.52920008       1.58447583E-04
   3.54119992       1.61793912E-04
   3.55320001       1.65537276E-04
   3.56520009       1.69671388E-04
   3.57719994       1.74182860E-04
   3.58920002       1.79051523E-04
   3.60120010       1.84250734E-04
   3.61319995       1.89747734E-04
   3.62520003       1.95504268E-04
   3.63720012       2.01477131E-04
   3.64919996       2.07618970E-04
   3.66120005       2.13878884E-04
   3.67319989       2.20203408E-04
   3.68519998       2.26537260E-04
   3.69720006       2.32824212E-04
   3.70919991       2.39008004E-04
   3.72119999       2.45033007E-04
   3.73320007       2.50845100E-04
   3.74519992       2.56392232E-04
   3.75720000       2.61624955E-04
   3.76920009       2.66497053E-04
   3.78119993       2.70965771E-04
   3.79320002       2.74992286E-04
   3.80520010       2.78541789E-04
   3.81719995       2.81583954E-04
   3.82920003       2.84093316E-04
   3.84120011       2.86049326E-04
   3.85319996       2.87437026E-04
   3.86520004       2.88247393E-04
   3.87719989       2.88477895E-04
   3.88919997       2.88133044E-04
   3.90120006       2.87224975E-04
   3.91319990       2.85774062E-04
   3.92519999       2.83809204E-04
   3.93720007       2.81368004E-04
   3.94919991       2.78496882E-04
   3.96120000       2.75250728E-04
   3.97320008       2.71692290E-04
   3.98519993       2.67891039E-04
   3.99720001       2.63921887E-04
   4.00920010       2.59863562E-04
   4.02120018       2.55796389E-04
   4.03319979       2.51800288E-04
   4.04519987       2.47952266E-04
   4.05719995       2.44324212E-04
   4.06920004       2.40980444E-04
   4.08120012       2.37975750E-04
   4.09320021       2.35353436E-04
   4.10519981       2.33143845E-04
   4.11719990       2.31363258E-04
   4.12919998       2.30013247E-04
   4.14120007       2.29080324E-04
   4.15320015       2.28536344E-04
   4.16520023       2.28338962E-04
   4.17719984       2.28432677E-04
   4.18919992       2.28750185E-04
   4.20120001       2.29213940E-04
   4.21320009       2.29737983E-04
   4.22520018       2.30229940E-04
   4.23719978       2.30593214E-04
   4.24919987       2.30729172E-04
   4.26119995       2.30539576E-04
   4.27320004       2.29928904E-04
   4.28520012       2.28806734E-04
   4.29720020       2.27090160E-04
   4.30919981       2.24706149E-04
   4.32119989       2.21593567E-04
   4.33319998       2.17705354E-04
   4.34520006       2.13010106E-04
   4.35720015       2.07493547E-04
   4.36920023       2.01159506E-04
   4.38119984       1.94030436E-04
   4.39319992       1.86147503E-04
   4.40520000       1.77570037E-04
   4.41720009       1.68374492E-04
   4.42920017       1.58652867E-04
   4.44119978       1.48510633E-04
   4.45319986       1.38064250E-04
   4.46519995       1.27438325E-04
   4.47720003       1.16762501E-04
   4.48920012       1.06168212E-04
   4.50120020       9.57854209E-05
   4.51319981       8.57395062E-05
   4.52519989       7.61481642E-05
   4.53719997       6.71187154E-05
   4.54920006       5.87456489E-05
   4.56120014       5.11086000E-05
   4.57320023       4.42707205E-05
   4.58519983       3.82774924E-05
   4.59719992       3.31560368E-05
   4.60920000       2.89148593E-05
   4.62120008       2.55441082E-05
   4.63320017       2.30162368E-05
   4.64519978       2.12871673E-05
   4.65719986       2.02978390E-05
   4.66919994       1.99761744E-05
   4.68120003       2.02393931E-05
   4.69320011       2.09966183E-05
   4.70520020       2.21517257E-05
   4.71719980       2.36063497E-05
   4.72919989       2.52629416E-05
   4.74119997       2.70277742E-05
   4.75320005       2.88137890E-05
   4.76520014       3.05431495E-05
   4.77720022       3.21493972E-05
   4.78919983       3.35791010E-05
   4.80119991       3.47929417E-05
   4.81320000       3.57661447E-05
   4.82520008       3.64882981E-05
   4.83720016       3.69624831E-05
   4.84919977       3.72039249E-05
   4.86119986       3.72380491E-05
   4.87319994       3.70982671E-05
   4.88520002       3.68234323E-05
   4.89720011       3.64552834E-05
   4.90920019       3.60358899E-05
   4.92119980       3.56053133E-05
   4.93319988       3.51995805E-05
   4.94519997       3.48490539E-05
   4.95720005       3.45772460E-05
   4.96920013       3.44001528E-05
   4.98120022       3.43260253E-05
   4.99319983       3.43556312E-05
   5.00519991       3.44828113E-05
   5.01719999       3.46954257E-05
   5.02920008       3.49764050E-05
   5.04120016       3.53050091E-05
   5.05319977       3.56580640E-05
   5.06519985       3.60112062E-05
   5.07719994       3.63400031E-05
   5.08920002       3.66210006E-05
   5.10120010       3.68326182E-05
   5.11320019       3.69558766E-05
   5.12519979       3.69750596E-05
   5.13719988       3.68782094E-05
   5.14919996       3.66575587E-05
   5.16120005       3.63098807E-05
   5.17320013       3.58367724E-05
   5.18520021       3.52448478E-05
   5.19719982       3.45458648E-05
   5.20919991       3.37567435E-05
   5.22119999       3.28994029E-05
   5.23320007       3.20004656E-05
   5.24520016       3.10907380E-05
   5.25719976       3.02044573E-05
   5.26919985       2.93783178E-05
   5.28119993       2.86502582E-05
   5.29320002       2.80580389E-05
   5.30520010       2.76376759E-05
   5.31720018       2.74217546E-05
   5.32919979       2.74377326E-05
   5.34119987       2.77063136E-05
   5.35319996       2.82399651E-05
   5.36520004       2.90417065E-05
   5.37720013       3.01042255E-05
   5.38920021       3.14094359E-05
   5.40119982       3.29284776E-05
   5.41319990       3.46222478E-05
   5.42519999       3.64424195E-05
   5.43720007       3.83329389E-05
   5.44920015       4.02319711E-05
   5.46120024       4.20741453E-05
   5.47319984       4.37930867E-05
   5.48519993       4.53240827E-05
   5.49720001       4.66067431E-05
   5.50920010       4.75875931E-05
   5.52120018       4.82224204E-05
   5.53319979       4.84783341E-05
   5.54519987       4.83353542E-05
   5.55719995       4.77875583E-05
   5.56920004       4.68436629E-05
   5.58120012       4.55270128E-05
   5.59320021       4.38750285E-05
   5.60519981       4.19380340E-05
   5.61719990       3.97776130E-05
   5.62919998       3.74645097E-05
   5.64120007       3.50761075E-05
   5.65320015       3.26936715E-05
   5.66520023       3.03994111E-05
   5.67719984       2.82734454E-05
   5.68919992       2.63908842E-05
   5.70120001       2.48190117E-05
   5.71320009       2.36147935E-05
   5.72520018       2.28227509E-05
   5.73719978       2.24732976E-05
   5.74919987       2.25816293E-05
   5.76119995       2.31472040E-05
   5.77320004       2.41538364E-05
   5.78520012       2.55704126E-05
   5.79720020       2.73522000E-05
   5.80919981       2.94426791E-05
   5.82119989       3.17758568E-05
   5.83319998       3.42788917E-05
   5.84520006       3.68749825E-05
   5.85720015       3.94863273E-05
   5.86920023       4.20370889E-05
   5.88119984       4.44561301E-05
   5.89319992       4.66795136E-05
   5.90520000       4.86525823E-05
   5.91720009       5.03315932E-05
   5.92920017       5.16848304E-05
   5.94119978       5.26931835E-05
   5.95319986       5.33502061E-05
   5.96519995       5.36616899E-05
   5.97720003       5.36448351E-05
   5.98920012       5.33270613E-05
   6.00120020       5.27445700E-05
   6.01319981       5.19407586E-05
   6.02519989       5.09645106E-05
   6.03719997       4.98685513E-05
   6.04920006       4.87078032E-05
   6.06120014       4.75378802E-05
   6.07320023       4.64136647E-05
   6.08519983       4.53880566E-05
   6.09719992       4.45107835E-05
   6.10920000       4.38273673E-05
   6.12120008       4.33781206E-05
   6.13320017       4.31972294E-05
   6.14519978       4.33119094E-05
   6.15719986       4.37415692E-05
   6.16919994       4.44970974E-05
   6.18120003       4.55802365E-05
   6.19320011       4.69831139E-05
   6.20520020       4.86879289E-05
   6.21719980       5.06669530E-05
   6.22919989       5.28827513E-05
   6.24119997       5.52887941E-05
   6.25320005       5.78304025E-05
   6.26520014       6.04460911E-05
   6.27720022       6.30692375E-05
   6.28919983       6.56301054E-05
   6.30119991       6.80580852E-05
   6.31320000       7.02841207E-05
   6.32520008       7.22431651E-05
   6.33720016       7.38766394E-05
   6.34919977       7.51346524E-05
   6.36119986       7.59779869E-05
   6.37319994       7.63796706E-05
   6.38520002       7.63261705E-05
   6.39720011       7.58180104E-05
   6.40920019       7.48698949E-05
   6.42119980       7.35103313E-05
   6.43319988       7.17807197E-05
   6.44519997       6.97339565E-05
   6.45720005       6.74327530E-05
   6.46920013       6.49474896E-05
   6.48120022       6.23539454E-05
   6.49319983       5.97309081E-05
   6.50519991       5.71576165E-05
   6.51719999       5.47113741E-05
   6.52920008       5.24652060E-05
   6.54120016       5.04857126E-05
   6.55319977       4.88311453E-05
   6.56519985       4.75497945E-05
   6.57719994       4.66786551E-05
   6.58920002       4.62424650E-05
   6.60120010       4.62531170E-05
   6.61320019       4.67094360E-05
   6.62519979       4.75973502E-05
   6.63719988       4.88904734E-05
   6.64919996       5.05510252E-05
   6.66120005       5.25311116E-05
   6.67320013       5.47743548E-05
   6.68520021       5.72177050E-05
   6.69719982       5.97935395E-05
   6.70919991       6.24318636E-05
   6.72119999       6.50625734E-05
   6.73320007       6.76177515E-05
   6.74520016       7.00338351E-05
   6.75719976       7.22536424E-05
   6.76919985       7.42281627E-05
   6.78119993       7.59180184E-05
   6.79320002       7.72945423E-05
   6.80520010       7.83405267E-05
   6.81720018       7.90504273E-05
   6.82919979       7.94302105E-05
   6.84119987       7.94967127E-05
   6.85319996       7.92766732E-05
   6.86520004       7.88052930E-05
   6.87720013       7.81246636E-05
   6.88920021       7.72818239E-05
   6.90119982       7.63267817E-05
   6.91319990       7.53104250E-05
   6.92519999       7.42824923E-05
   6.93720007       7.32896806E-05
   6.94920015       7.23739649E-05
   6.96120024       7.15710921E-05
   6.97319984       7.09095621E-05
   6.98519993       7.04098347E-05
   6.99720001       7.00840028E-05
   7.00920010       6.99357843E-05
   7.02120018       6.99609809E-05
   7.03319979       7.01481622E-05
   7.04519987       7.04796912E-05
   7.05719995       7.09330125E-05
   7.06920004       7.14819835E-05
   7.08120012       7.20984099E-05
   7.09320021       7.27534934E-05
   7.10519981       7.34192290E-05
   7.11719990       7.40697360E-05
   7.12919998       7.46822843E-05
   7.14120007       7.52381529E-05
   7.15320015       7.57232337E-05
   7.16520023       7.61283591E-05
   7.17719984       7.64493234E-05
   7.18919992       7.66867379E-05
   7.20120001       7.68455648E-05
   7.21320009       7.69345570E-05
   7.22520018       7.69654798E-05
   7.23719978       7.69522376E-05
   7.24919987       7.69099643E-05
   7.26119995       7.68540558E-05
   7.27320004       7.67992751E-05
   7.28520012       7.67589081E-05
   7.29720020       7.67439924E-05
   7.30919981       7.67627280E-05
   7.32119989       7.68199970E-05
   7.33319998       7.69170656E-05
   7.34520006       7.70514598E-05
   7.35720015       7.72170388E-05
   7.36920023       7.74042201E-05
   7.38119984       7.76004090E-05
   7.39319992       7.77905661E-05
   7.40520000       7.79578986E-05
   7.41720009       7.80847258E-05
   7.42920017       7.81533527E-05
   7.44119978       7.81469935E-05
   7.45319986       7.80507689E-05
   7.46519995       7.78525646E-05
   7.47720003       7.75438675E-05
   7.48920012       7.71204141E-05
   7.50120020       7.65828299E-05
   7.51319981       7.59368995E-05
   7.52519989       7.51937550E-05
   7.53719997       7.43697965E-05
   7.54920006       7.34864007E-05
   7.56120014       7.25693608E-05
   7.57320023       7.16481081E-05
   7.58519983       7.07547588E-05
   7.59719992       6.99229568E-05
   7.60920000       6.91865353E-05
   7.62120008       6.85782070E-05
   7.63320017       6.81281017E-05
   7.64519978       6.78624201E-05
   7.65719986       6.78021315E-05
   7.66919994       6.79618825E-05
   7.68120003       6.83490507E-05
   7.69320011       6.89631415E-05
   7.70520020       6.97954092E-05
   7.71719980       7.08289517E-05
   7.72919989       7.20389944E-05
   7.74119997       7.33936758E-05
   7.75320005       7.48550810E-05
   7.76520014       7.63805365E-05
   7.77720022       7.79242182E-05
   7.78919983       7.94388325E-05
   7.80119991       8.08773839E-05
   7.81320000       8.21949434E-05
   7.82520008       8.33503291E-05
   7.83720016       8.43075468E-05
   7.84919977       8.50370488E-05
   7.86119986       8.55166436E-05
   7.87319994       8.57321356E-05
   7.88520002       8.56774932E-05
   7.89720011       8.53547826E-05
   7.90920019       8.47737319E-05
   7.92119980       8.39509594E-05
   7.93319988       8.29090350E-05
   7.94519997       8.16753745E-05
   7.95720005       8.02810173E-05
   7.96920013       7.87593963E-05
   7.98120022       7.71452178E-05
   7.99319983       7.54733992E-05
   8.00520039       7.37782029E-05
   8.01720047       7.20925163E-05
   8.02919960       7.04473787E-05
   8.04119968       6.88716464E-05
   8.05319977       6.73919203E-05
   8.06519985       6.60324877E-05
   8.07719994       6.48154310E-05
   8.08920002       6.37607591E-05
   8.10120010       6.28865309E-05
   8.11320019       6.22088846E-05
   8.12520027       6.17419864E-05
   8.13720036       6.14978344E-05
   8.14920044       6.14859528E-05
   8.16119957       6.17129117E-05
   8.17319965       6.21818108E-05
   8.18519974       6.28916168E-05
   8.19719982       6.38366182E-05
   8.20919991       6.50058500E-05
   8.22119999       6.63827304E-05
   8.23320007       6.79448349E-05
   8.24520016       6.96639836E-05
   8.25720024       7.15065835E-05
   8.26920033       7.34342830E-05
   8.28120041       7.54049543E-05
   8.29319954       7.73738939E-05
   8.30519962       7.92953579E-05
   8.31719971       8.11241262E-05
   8.32919979       8.28171687E-05
   8.34119987       8.43353628E-05
   8.35319996       8.56449333E-05
   8.36520004       8.67188210E-05
   8.37720013       8.75376354E-05
   8.38920021       8.80903390E-05
   8.40120029       8.83744942E-05
   8.41320038       8.83961402E-05
   8.42520046       8.81693049E-05
   8.43719959       8.77151106E-05
   8.44919968       8.70607328E-05
   8.46119976       8.62380257E-05
   8.47319984       8.52821686E-05
   8.48519993       8.42301597E-05
   8.49720001       8.31194411E-05
   8.50920010       8.19865891E-05
   8.52120018       8.08662153E-05
   8.53320026       7.97899847E-05
   8.54520035       7.87859099E-05
   8.55720043       7.78778121E-05
   8.56919956       7.70850165E-05
   8.58119965       7.64221550E-05
   8.59319973       7.58992173E-05
   8.60519981       7.55215951E-05
   8.61719990       7.52903798E-05
   8.62919998       7.52025808E-05
   8.64120007       7.52515189E-05
   8.65320015       7.54271605E-05
   8.66520023       7.57165617E-05
   8.67720032       7.61043266E-05
   8.68920040       7.65730874E-05
   8.70119953       7.71040504E-05
   8.71319962       7.76776214E-05
   8.72519970       7.82739517E-05
   8.73719978       7.88736870E-05
   8.74919987       7.94585503E-05
   8.76119995       8.00119960E-05
   8.77320004       8.05197560E-05
   8.78520012       8.09702688E-05
   8.79720020       8.13549341E-05
   8.80920029       8.16682514E-05
   8.82120037       8.19076886E-05
   8.83320045       8.20734058E-05
   8.84519958       8.21677240E-05
   8.85719967       8.21945068E-05
   8.86919975       8.21583089E-05
   8.88119984       8.20636124E-05
   8.89319992       8.19139241E-05
   8.90520000       8.17109831E-05
   8.91720009       8.14542145E-05
   8.92920017       8.11402570E-05
   8.94120026       8.07629112E-05
   8.95320034       8.03132643E-05
   8.96520042       7.97802932E-05
   8.97719955       7.91516140E-05
   8.98919964       7.84146469E-05
   9.00119972       7.75578592E-05
   9.01319981       7.65721561E-05
   9.02519989       7.54522480E-05
   9.03719997       7.41978729E-05
   9.04920006       7.28148807E-05
   9.06120014       7.13159097E-05
   9.07320023       6.97207070E-05
   9.08520031       6.80560770E-05
   9.09720039       6.63552637E-05
   9.10919952       6.46569970E-05
   9.12119961       6.30041104E-05
   9.13319969       6.14418313E-05
   9.14519978       6.00158710E-05
   9.15719986       5.87704126E-05
   9.16919994       5.77461615E-05
   9.18120003       5.69784970E-05
   9.19320011       5.64959482E-05
   9.20520020       5.63189751E-05
   9.21720028       5.64591792E-05
   9.22920036       5.69189397E-05
   9.24120045       5.76915154E-05
   9.25319958       5.87614813E-05
   9.26519966       6.01055908E-05
   9.27719975       6.16938705E-05
   9.28919983       6.34908865E-05
   9.30119991       6.54571486E-05
   9.31320000       6.75505144E-05
   9.32520008       6.97275100E-05
   9.33720016       7.19445597E-05
   9.34920025       7.41590120E-05
   9.36120033       7.63300195E-05
   9.37320042       7.84191725E-05
   9.38519955       8.03910589E-05
   9.39719963       8.22136135E-05
   9.40919971       8.38583801E-05
   9.42119980       8.53007514E-05
   9.43319988       8.65201218E-05
   9.44519997       8.75000405E-05
