 -0.622799993       0.00000000    
 -0.610800028       0.00000000    
 -0.598800004       0.00000000    
 -0.586799979       0.00000000    
 -0.574800014       0.00000000    
 -0.562799990      -1.30907769E-25
 -0.550800025       1.00717461E-24
 -0.538800001       1.82985138E-23
 -0.526799977       1.18779708E-22
 -0.514800012       5.04205812E-22
 -0.502799988       1.64385637E-21
 -0.490799993       4.44893155E-21
 -0.478799999       1.04706873E-20
 -0.466800004       2.20898340E-20
 -0.454800010       4.26064901E-20
 -0.442799985       7.60202635E-20
 -0.430799991       1.26196587E-19
 -0.418799996       1.95274427E-19
 -0.406800002       2.81814696E-19
 -0.394800007       3.80247199E-19
 -0.382800013       4.83992941E-19
 -0.370799989       5.94073413E-19
 -0.358799994       7.32161290E-19
 -0.346799999       9.52346067E-19
 -0.334800005       1.34200190E-18
 -0.322800010       2.00315682E-18
 -0.310799986       3.01475921E-18
 -0.298799992       4.39173596E-18
 -0.286799997       6.07069920E-18
 -0.274800003       7.95202637E-18
 -0.262800008       1.00041465E-17
 -0.250800014       1.23911705E-17
 -0.238800004       1.55410346E-17
 -0.226799995       2.00631218E-17
 -0.214800000       2.64814131E-17
 -0.202800006       3.48698682E-17
 -0.190799996       4.46092747E-17
 -0.178800002       5.45369310E-17
 -0.166800007       6.36423499E-17
 -0.154799998       7.21535818E-17
 -0.142800003       8.24651690E-17
 -0.130799994       9.91082216E-17
 -0.118799999       1.27119515E-16
 -0.106799997       1.68865124E-16
  -9.48000029E-02   2.20464041E-16
  -8.28000009E-02   2.69940348E-16
  -7.07999989E-02   2.99405474E-16
  -5.88000007E-02   2.92372030E-16
  -4.67999987E-02   2.44733282E-16
  -3.48000005E-02   1.74868152E-16
  -2.28000004E-02   1.26362426E-16
  -1.08000003E-02   1.57723001E-16
   1.20000006E-03   3.18108147E-16
   1.31999999E-02   6.15619999E-16
   2.52000000E-02   9.92134350E-16
   3.72000001E-02   1.32167612E-15
   4.91999984E-02   1.44423744E-15
   6.12000003E-02   1.23286482E-15
   7.32000023E-02   6.72654169E-16
   8.51999968E-02  -8.56278047E-17
   9.71999988E-02  -7.37042278E-16
  0.109200001      -9.20717402E-16
  0.121200003      -3.88767212E-16
  0.133200005       8.15321198E-16
  0.145199999       2.26151635E-15
  0.157199994       3.20920497E-15
  0.169200003       2.88845964E-15
  0.181199998       9.25859104E-16
  0.193200007      -2.24958462E-15
  0.205200002      -5.24721834E-15
  0.217199996      -6.00108571E-15
  0.229200006      -2.55907288E-15
  0.241200000       5.79847119E-15
  0.253199995       1.75257097E-14
  0.265199989       2.84181925E-14
  0.277200013       3.23428723E-14
  0.289200008       2.32447237E-14
  0.301200002      -1.95076537E-15
  0.313199997      -4.04892116E-14
  0.325199991      -8.23017530E-14
  0.337199986      -1.11101632E-13
  0.349200010      -1.08623824E-13
  0.361200005      -6.14291671E-14
  0.373199999       3.16018607E-14
  0.385199994       1.53916959E-13
  0.397199988       2.71018966E-13
  0.409200013       3.37153076E-13
  0.421200007       3.08684691E-13
  0.433200002       1.61190045E-13
  0.445199996      -9.50753690E-14
  0.457199991      -4.07647657E-13
  0.469199985      -6.87426190E-13
  0.481200010      -8.29089401E-13
  0.493200004      -7.43114500E-13
  0.505200028      -3.91090345E-13
  0.517199993       1.87292971E-13
  0.529200017       8.67104457E-13
  0.541199982       1.45817798E-12
  0.553200006       1.75179619E-12
  0.565199971       1.58429173E-12
  0.577199996       8.99948302E-13
  0.589200020      -2.07808759E-13
  0.601199985      -1.49484440E-12
  0.613200009      -2.61255340E-12
  0.625199974      -3.19588496E-12
  0.637199998      -2.97245930E-12
  0.649200022      -1.86179869E-12
  0.661199987      -3.18922609E-14
  0.673200011       2.11116606E-12
  0.685199976       4.00717480E-12
  0.697200000       5.08408810E-12
  0.709200025       4.92309448E-12
  0.721199989       3.39963864E-12
  0.733200014       7.55391897E-13
  0.745199978      -2.42780492E-12
  0.757200003      -5.35445039E-12
  0.769200027      -7.21496213E-12
  0.781199992      -7.40687112E-12
  0.793200016      -5.71571740E-12
  0.805199981      -2.40118515E-12
  0.817200005       1.84172491E-12
  0.829200029       6.04196857E-12
  0.841199994       9.19244455E-12
  0.853200018       1.05060327E-11
  0.865199983       9.61635025E-12
  0.877200007       6.66636754E-12
  0.889199972       2.25985680E-12
  0.901199996      -2.70913413E-12
  0.913200021      -7.29725568E-12
  0.925199986      -1.07503798E-11
  0.937200010      -1.26673862E-11
  0.949199975      -1.30397993E-11
  0.961199999      -1.21563801E-11
  0.973200023      -1.04042608E-11
  0.985199988      -8.03178444E-12
  0.997200012      -4.95202620E-12
   1.00919998      -6.55954024E-13
   1.02119994       5.72685606E-12
   1.03320003       1.52243947E-11
   1.04519999       2.87193672E-11
   1.05719995       4.66159021E-11
   1.06920004       6.85438234E-11
   1.08120000       9.31430766E-11
   1.09319997       1.17925988E-10
   1.10520005       1.39162293E-10
   1.11720002       1.51685858E-10
   1.12919998       1.48493121E-10
   1.14119995       1.19992641E-10
   1.15320003       5.27716308E-11
   1.16520000      -7.22492066E-11
   1.17719996      -2.82413565E-10
   1.18920004      -6.16869333E-10
   1.20120001      -1.13134246E-09
   1.21319997      -1.90459293E-09
   1.22520006      -3.04721404E-09
   1.23720002      -4.71373163E-09
   1.24919999      -7.11925408E-09
   1.26119995      -1.05622737E-08
   1.27320004      -1.54556172E-08
   1.28520000      -2.23678960E-08
   1.29719996      -3.20782121E-08
   1.30920005      -4.56471057E-08
   1.32120001      -6.45069775E-08
   1.33319998      -9.05752771E-08
   1.34519994      -1.26393260E-07
   1.35720003      -1.75292811E-07
   1.36919999      -2.41592204E-07
   1.38119996      -3.30820313E-07
   1.39320004      -4.49967047E-07
   1.40520000      -6.07753805E-07
   1.41719997      -8.14915495E-07
   1.42920005      -1.08448239E-06
   1.44120002      -1.43204602E-06
   1.45319998      -1.87598960E-06
   1.46519995      -2.43765976E-06
   1.47720003      -3.14145836E-06
   1.48920000      -4.01482066E-06
   1.50119996      -5.08806170E-06
   1.51320004      -6.39405880E-06
   1.52520001      -7.96775021E-06
   1.53719997      -9.84543294E-06
   1.54920006      -1.20638579E-05
   1.56120002      -1.46591019E-05
   1.57319999      -1.76652684E-05
   1.58519995      -2.11129991E-05
   1.59720004      -2.50278699E-05
   1.60920000      -2.94287220E-05
   1.62119997      -3.43259744E-05
   1.63320005      -3.97200311E-05
   1.64520001      -4.55998197E-05
   1.65719998      -5.19416099E-05
   1.66919994      -5.87081740E-05
   1.68120003      -6.58483186E-05
   1.69319999      -7.32969711E-05
   1.70519996      -8.09757330E-05
   1.71720004      -8.87940914E-05
   1.72920001      -9.66510852E-05
   1.74119997      -1.04437662E-04
   1.75320005      -1.12039386E-04
   1.76520002      -1.19339624E-04
   1.77719998      -1.26223051E-04
   1.78919995      -1.32579269E-04
   1.80120003      -1.38306437E-04
   1.81320000      -1.43314799E-04
   1.82519996      -1.47529878E-04
   1.83720005      -1.50895139E-04
   1.84920001      -1.53374174E-04
   1.86119998      -1.54952053E-04
   1.87320006      -1.55635906E-04
   1.88520002      -1.55454734E-04
   1.89719999      -1.54458292E-04
   1.90919995      -1.52715234E-04
   1.92120004      -1.50310487E-04
   1.93320000      -1.47342056E-04
   1.94519997      -1.43917379E-04
   1.95720005      -1.40149481E-04
   1.96920002      -1.36152928E-04
   1.98119998      -1.32039931E-04
   1.99319994      -1.27916777E-04
   2.00519991      -1.23880629E-04
   2.01719999      -1.20017066E-04
   2.02920008      -1.16398085E-04
   2.04119992      -1.13081012E-04
   2.05320001      -1.10108063E-04
   2.06520009      -1.07506603E-04
   2.07719994      -1.05290106E-04
   2.08920002      -1.03459621E-04
   2.10120010      -1.02005593E-04
   2.11319995      -1.00909980E-04
   2.12520003      -1.00148492E-04
   2.13720012      -9.96927629E-05
   2.14919996      -9.95123773E-05
   2.16120005      -9.95766022E-05
   2.17319989      -9.98557880E-05
   2.18519998      -1.00322432E-04
   2.19720006      -1.00951773E-04
   2.20919991      -1.01722071E-04
   2.22119999      -1.02614555E-04
   2.23320007      -1.03613122E-04
   2.24519992      -1.04703853E-04
   2.25720000      -1.05874504E-04
   2.26920009      -1.07113941E-04
   2.28119993      -1.08411652E-04
   2.29320002      -1.09757391E-04
   2.30520010      -1.11141002E-04
   2.31719995      -1.12552327E-04
   2.32920003      -1.13981354E-04
   2.34120011      -1.15418421E-04
   2.35319996      -1.16854579E-04
   2.36520004      -1.18281976E-04
   2.37719989      -1.19694210E-04
   2.38919997      -1.21086792E-04
   2.40120006      -1.22457321E-04
   2.41319990      -1.23805832E-04
   2.42519999      -1.25134786E-04
   2.43720007      -1.26449115E-04
   2.44919991      -1.27756211E-04
   2.46120000      -1.29065578E-04
   2.47320008      -1.30388726E-04
   2.48519993      -1.31738925E-04
   2.49720001      -1.33130787E-04
   2.50920010      -1.34580012E-04
   2.52119994      -1.36103088E-04
   2.53320003      -1.37716925E-04
   2.54520011      -1.39438460E-04
   2.55719995      -1.41284385E-04
   2.56920004      -1.43270605E-04
   2.58119988      -1.45411788E-04
   2.59319997      -1.47720828E-04
   2.60520005      -1.50208289E-04
   2.61719990      -1.52881679E-04
   2.62919998      -1.55744885E-04
   2.64120007      -1.58797542E-04
   2.65319991      -1.62034456E-04
   2.66520000      -1.65445090E-04
   2.67720008      -1.69013321E-04
   2.68919992      -1.72717089E-04
   2.70120001      -1.76528498E-04
   2.71320009      -1.80413961E-04
   2.72519994      -1.84334582E-04
   2.73720002      -1.88246748E-04
   2.74920011      -1.92102816E-04
   2.76119995      -1.95851913E-04
   2.77320004      -1.99440939E-04
   2.78520012      -2.02815281E-04
   2.79719996      -2.05919758E-04
   2.80920005      -2.08699275E-04
   2.82119989      -2.11099454E-04
   2.83319998      -2.13067135E-04
   2.84520006      -2.14550659E-04
   2.85719991      -2.15500215E-04
   2.86919999      -2.15867942E-04
   2.88120008      -2.15608248E-04
   2.89319992      -2.14678133E-04
   2.90520000      -2.13037565E-04
   2.91720009      -2.10650265E-04
   2.92919993      -2.07484656E-04
   2.94120002      -2.03515010E-04
   2.95320010      -1.98723079E-04
   2.96519995      -1.93099739E-04
   2.97720003      -1.86647041E-04
   2.98920012      -1.79380237E-04
   3.00119996      -1.71329739E-04
   3.01320004      -1.62543030E-04
   3.02519989      -1.53086090E-04
   3.03719997      -1.43044294E-04
   3.04920006      -1.32522720E-04
   3.06119990      -1.21645593E-04
   3.07319999      -1.10554800E-04
   3.08520007      -9.94074071E-05
   3.09719992      -8.83723696E-05
   3.10920000      -7.76262241E-05
   3.12120008      -6.73480972E-05
   3.13319993      -5.77141473E-05
   3.14520001      -4.88916521E-05
   3.15720010      -4.10330395E-05
   3.16919994      -3.42701060E-05
   3.18120003      -2.87087969E-05
   3.19320011      -2.44247258E-05
   3.20519996      -2.14597694E-05
   3.21720004      -1.98199050E-05
   3.22919989      -1.94744825E-05
   3.24119997      -2.03569507E-05
   3.25320005      -2.23670977E-05
   3.26519990      -2.53746748E-05
   3.27719998      -2.92242839E-05
   3.28920007      -3.37412603E-05
   3.30119991      -3.87383370E-05
   3.31320000      -4.40226868E-05
   3.32520008      -4.94031301E-05
   3.33719993      -5.46970732E-05
   3.34920001      -5.97369180E-05
   3.36120009      -6.43756794E-05
   3.37319994      -6.84915358E-05
   3.38520002      -7.19911768E-05
   3.39720011      -7.48117818E-05
   3.40919995      -7.69217586E-05
   3.42120004      -7.83200085E-05
   3.43319988      -7.90340928E-05
   3.44519997      -7.91172133E-05
   3.45720005      -7.86444143E-05
   3.46919990      -7.77080204E-05
   3.48119998      -7.64127035E-05
   3.49320006      -7.48703460E-05
   3.50519991      -7.31948821E-05
   3.51719999      -7.14973867E-05
   3.52920008      -6.98815566E-05
   3.54119992      -6.84396437E-05
   3.55320001      -6.72491224E-05
   3.56520009      -6.63699902E-05
   3.57719994      -6.58428762E-05
   3.58920002      -6.56879274E-05
   3.60120010      -6.59044817E-05
   3.61319995      -6.64715481E-05
   3.62520003      -6.73489048E-05
   3.63720012      -6.84790357E-05
   3.64919996      -6.97895084E-05
   3.66120005      -7.11959656E-05
   3.67319989      -7.26054786E-05
   3.68519998      -7.39203097E-05
   3.69720006      -7.50417385E-05
   3.70919991      -7.58741226E-05
   3.72119999      -7.63288408E-05
   3.73320007      -7.63280768E-05
   3.74519992      -7.58082751E-05
   3.75720000      -7.47230952E-05
   3.76920009      -7.30458487E-05
   3.78119993      -7.07711515E-05
   3.79320002      -6.79158620E-05
   3.80520010      -6.45190303E-05
   3.81719995      -6.06411450E-05
   3.82920003      -5.63623616E-05
   3.84120011      -5.17800145E-05
   3.85319996      -4.70053965E-05
   3.86520004      -4.21599325E-05
   3.87719989      -3.73709299E-05
   3.88919997      -3.27670277E-05
   3.90120006      -2.84735961E-05
   3.91319990      -2.46081927E-05
   3.92519999      -2.12763207E-05
   3.93720007      -1.85676363E-05
   3.94919991      -1.65527381E-05
   3.96120000      -1.52806897E-05
   3.97320008      -1.47773426E-05
   3.98519993      -1.50445103E-05
   3.99720001      -1.60600102E-05
   4.00920010      -1.77785714E-05
   4.02120018      -2.01335297E-05
   4.03319979      -2.30392034E-05
   4.04519987      -2.63939110E-05
   4.05719995      -3.00834399E-05
   4.06920004      -3.39848302E-05
   4.08120012      -3.79704070E-05
   4.09320021      -4.19117969E-05
   4.10519981      -4.56839371E-05
   4.11719990      -4.91688115E-05
   4.12919998      -5.22588998E-05
   4.14120007      -5.48601965E-05
   4.15320015      -5.68947326E-05
   4.16520023      -5.83025212E-05
   4.17719984      -5.90429154E-05
   4.18919992      -5.90952804E-05
   4.20120001      -5.84591144E-05
   4.21320009      -5.71534947E-05
   4.22520018      -5.52159945E-05
   4.23719978      -5.27010816E-05
   4.24919987      -4.96780813E-05
   4.26119995      -4.62287935E-05
   4.27320004      -4.24448226E-05
   4.28520012      -3.84247396E-05
   4.29720020      -3.42711537E-05
   4.30919981      -3.00877764E-05
   4.32119989      -2.59765638E-05
   4.33319998      -2.20350012E-05
   4.34520006      -1.83536176E-05
   4.35720015      -1.50137703E-05
   4.36920023      -1.20857540E-05
   4.38119984      -9.62728700E-06
   4.39319992      -7.68236532E-06
   4.40520000      -6.28052749E-06
   4.41720009      -5.43651595E-06
   4.42920017      -5.15034026E-06
   4.44119978      -5.40771271E-06
   4.45319986      -6.18085915E-06
   4.46519995      -7.42965130E-06
   4.47720003      -9.10304243E-06
   4.48920012      -1.11407589E-05
   4.50120020      -1.34751863E-05
   4.51319981      -1.60334257E-05
   4.52519989      -1.87394162E-05
   4.53719997      -2.15161053E-05
   4.54920006      -2.42875831E-05
   4.56120014      -2.69810935E-05
   4.57320023      -2.95289592E-05
   4.58519983      -3.18702478E-05
   4.59719992      -3.39522558E-05
   4.60920000      -3.57316712E-05
   4.62120008      -3.71754759E-05
   4.63320017      -3.82615108E-05
   4.64519978      -3.89787128E-05
   4.65719986      -3.93270202E-05
   4.66919994      -3.93169867E-05
   4.68120003      -3.89690613E-05
   4.69320011      -3.83126353E-05
   4.70520020      -3.73848488E-05
   4.71719980      -3.62291867E-05
   4.72919989      -3.48939575E-05
   4.74119997      -3.34306205E-05
   4.75320005      -3.18921011E-05
   4.76520014      -3.03310280E-05
   4.77720022      -2.87980511E-05
   4.78919983      -2.73402056E-05
   4.80119991      -2.59994085E-05
   4.81320000      -2.48111646E-05
   4.82520008      -2.38034881E-05
   4.83720016      -2.29961406E-05
   4.84919977      -2.24001815E-05
   4.86119986      -2.20179081E-05
   4.87319994      -2.18431633E-05
   4.88520002      -2.18620389E-05
   4.89720011      -2.20539332E-05
   4.90920019      -2.23929528E-05
   4.92119980      -2.28495683E-05
   4.93319988      -2.33924766E-05
   4.94519997      -2.39905658E-05
   4.95720005      -2.46148611E-05
   4.96920013      -2.52403770E-05
   4.98120022      -2.58476994E-05
   4.99319983      -2.64242644E-05
   5.00519991      -2.69651355E-05
   5.01719999      -2.74733266E-05
   5.02920008      -2.79595424E-05
   5.04120016      -2.84413945E-05
   5.05319977      -2.89420950E-05
   5.06519985      -2.94887195E-05
   5.07719994      -3.01101481E-05
   5.08920002      -3.08347990E-05
   5.10120010      -3.16883015E-05
   5.11320019      -3.26913068E-05
   5.12519979      -3.38574937E-05
   5.13719988      -3.51920207E-05
   5.14919996      -3.66904351E-05
   5.16120005      -3.83382212E-05
   5.17320013      -4.01109610E-05
   5.18520021      -4.19751595E-05
   5.19719982      -4.38896714E-05
   5.20919991      -4.58076574E-05
   5.22119999      -4.76789319E-05
   5.23320007      -4.94526030E-05
   5.24520016      -5.10797581E-05
   5.25719976      -5.25161267E-05
   5.26919985      -5.37244305E-05
   5.28119993      -5.46763913E-05
   5.29320002      -5.53542122E-05
   5.30520010      -5.57514686E-05
   5.31720018      -5.58733664E-05
   5.32919979      -5.57363164E-05
   5.34119987      -5.53669597E-05
   5.35319996      -5.48005592E-05
   5.36520004      -5.40790425E-05
   5.37720013      -5.32486447E-05
   5.38920021      -5.23574417E-05
   5.40119982      -5.14528510E-05
   5.41319990      -5.05792668E-05
   5.42519999      -4.97760557E-05
   5.43720007      -4.90758757E-05
   5.44920015      -4.85035671E-05
   5.46120024      -4.80755589E-05
   5.47319984      -4.77998183E-05
   5.48519993      -4.76763489E-05
   5.49720001      -4.76981550E-05
   5.50920010      -4.78525253E-05
   5.52120018      -4.81226270E-05
   5.53319979      -4.84892116E-05
   5.54519987      -4.89323320E-05
   5.55719995      -4.94329579E-05
   5.56920004      -4.99743801E-05
   5.58120012      -5.05432799E-05
   5.59320021      -5.11304352E-05
   5.60519981      -5.17310182E-05
   5.61719990      -5.23444542E-05
   5.62919998      -5.29739118E-05
   5.64120007      -5.36254520E-05
   5.65320015      -5.43069400E-05
   5.66520023      -5.50268524E-05
   5.67719984      -5.57929852E-05
   5.68919992      -5.66113413E-05
   5.70120001      -5.74850928E-05
   5.71320009      -5.84138434E-05
   5.72520018      -5.93931582E-05
   5.73719978      -6.04144116E-05
   5.74919987      -6.14649689E-05
   5.76119995      -6.25286048E-05
   5.77320004      -6.35862671E-05
   5.78520012      -6.46169501E-05
   5.79720020      -6.55987606E-05
   5.80919981      -6.65099797E-05
   5.82119989      -6.73301547E-05
   5.83319998      -6.80409867E-05
   5.84520006      -6.86270796E-05
   5.85720015      -6.90764646E-05
   5.86920023      -6.93808252E-05
   5.88119984      -6.95353956E-05
   5.89319992      -6.95386771E-05
   5.90520000      -6.93919428E-05
   5.91720009      -6.90985398E-05
   5.92920017      -6.86632411E-05
   5.94119978      -6.80915182E-05
   5.95319986      -6.73889226E-05
   5.96519995      -6.65606858E-05
   5.97720003      -6.56113916E-05
   5.98920012      -6.45449691E-05
   6.00120020      -6.33648742E-05
   6.01319981      -6.20745268E-05
   6.02519989      -6.06778776E-05
   6.03719997      -5.91802382E-05
   6.04920006      -5.75890663E-05
   6.06120014      -5.59148830E-05
   6.07320023      -5.41720110E-05
   6.08519983      -5.23791859E-05
   6.09719992      -5.05599382E-05
   6.10920000      -4.87425968E-05
   6.12120008      -4.69600200E-05
   6.13320017      -4.52488966E-05
   6.14519978      -4.36487389E-05
   6.15719986      -4.22005432E-05
   6.16919994      -4.09452005E-05
   6.18120003      -3.99217533E-05
   6.19320011      -3.91656067E-05
   6.20520020      -3.87067339E-05
   6.21719980      -3.85680833E-05
   6.22919989      -3.87641849E-05
   6.24119997      -3.93001174E-05
   6.25320005      -4.01708676E-05
   6.26520014      -4.13611779E-05
   6.27720022      -4.28458115E-05
   6.28919983      -4.45903461E-05
   6.30119991      -4.65523153E-05
   6.31320000      -4.86827812E-05
   6.32520008      -5.09281344E-05
   6.33720016      -5.32320482E-05
   6.34919977      -5.55375227E-05
   6.36119986      -5.77888713E-05
   6.37319994      -5.99335690E-05
   6.38520002      -6.19238635E-05
   6.39720011      -6.37181001E-05
   6.40920019      -6.52817689E-05
   6.42119980      -6.65880798E-05
   6.43319988      -6.76182535E-05
   6.44519997      -6.83614562E-05
   6.45720005      -6.88143991E-05
   6.46920013      -6.89806402E-05
   6.48120022      -6.88697983E-05
   6.49319983      -6.84965344E-05
   6.50519991      -6.78795259E-05
   6.51719999      -6.70404988E-05
   6.52920008      -6.60032383E-05
   6.54120016      -6.47928027E-05
   6.55319977      -6.34347889E-05
   6.56519985      -6.19547573E-05
   6.57719994      -6.03777371E-05
   6.58920002      -5.87279392E-05
   6.60120010      -5.70285265E-05
   6.61320019      -5.53014543E-05
   6.62519979      -5.35674699E-05
   6.63719988      -5.18461275E-05
   6.64919996      -5.01559043E-05
   6.66120005      -4.85143391E-05
   6.67320013      -4.69382067E-05
   6.68520021      -4.54436922E-05
   6.69719982      -4.40465483E-05
   6.70919991      -4.27622363E-05
   6.72119999      -4.16060284E-05
   6.73320007      -4.05930441E-05
   6.74520016      -3.97382282E-05
   6.75719976      -3.90562891E-05
   6.76919985      -3.85615203E-05
   6.78119993      -3.82675753E-05
   6.79320002      -3.81870886E-05
   6.80520010      -3.83312545E-05
   6.81720018      -3.87092477E-05
   6.82919979      -3.93275732E-05
   6.84119987      -4.01893558E-05
   6.85319996      -4.12935769E-05
   6.86520004      -4.26343649E-05
   6.87720013      -4.42003111E-05
   6.88920021      -4.59739349E-05
   6.90119982      -4.79313348E-05
   6.91319990      -5.00420247E-05
   6.92519999      -5.22690752E-05
   6.93720007      -5.45695148E-05
   6.94920015      -5.68950454E-05
   6.96120024      -5.91930693E-05
   6.97319984      -6.14080200E-05
   6.98519993      -6.34829630E-05
   6.99720001      -6.53613970E-05
   7.00920010      -6.69893197E-05
   7.02120018      -6.83172184E-05
   7.03319979      -6.93021648E-05
   7.04519987      -6.99097582E-05
   7.05719995      -7.01157696E-05
   7.06920004      -6.99076409E-05
   7.08120012      -6.92853937E-05
   7.09320021      -6.82621321E-05
   7.10519981      -6.68641223E-05
   7.11719990      -6.51301962E-05
   7.12919998      -6.31107396E-05
   7.14120007      -6.08660521E-05
   7.15320015      -5.84643822E-05
   7.16520023      -5.59794971E-05
   7.17719984      -5.34880019E-05
   7.18919992      -5.10665086E-05
   7.20120001      -4.87887883E-05
   7.21320009      -4.67230129E-05
   7.22520018      -4.49292456E-05
   7.23719978      -4.34573485E-05
   7.24919987      -4.23452875E-05
   7.26119995      -4.16180046E-05
   7.27320004      -4.12868758E-05
   7.28520012      -4.13497401E-05
   7.29720020      -4.17915217E-05
   7.30919981      -4.25853832E-05
   7.32119989      -4.36943046E-05
   7.33319998      -4.50730695E-05
   7.34520006      -4.66704441E-05
   7.35720015      -4.84315460E-05
   7.36920023      -5.03001538E-05
   7.38119984      -5.22209521E-05
   7.39319992      -5.41414993E-05
   7.40520000      -5.60139124E-05
   7.41720009      -5.77962164E-05
   7.42920017      -5.94532357E-05
   7.44119978      -6.09571616E-05
   7.45319986      -6.22877342E-05
   7.46519995      -6.34320240E-05
   7.47720003      -6.43840540E-05
   7.48920012      -6.51441151E-05
   7.50120020      -6.57178971E-05
   7.51319981      -6.61156373E-05
   7.52519989      -6.63510000E-05
   7.53719997      -6.64401668E-05
   7.54920006      -6.64008257E-05
   7.56120014      -6.62513048E-05
   7.57320023      -6.60097940E-05
   7.58519983      -6.56936973E-05
   7.59719992      -6.53191237E-05
   7.60920000      -6.49004069E-05
   7.62120008      -6.44498505E-05
   7.63320017      -6.39774298E-05
   7.64519978      -6.34905882E-05
   7.65719986      -6.29941351E-05
   7.66919994      -6.24901368E-05
   7.68120003      -6.19779385E-05
   7.69320011      -6.14542078E-05
   7.70520020      -6.09131348E-05
   7.71719980      -6.03467561E-05
   7.72919989      -5.97453472E-05
   7.74119997      -5.90980053E-05
   7.75320005      -5.83932670E-05
   7.76520014      -5.76198763E-05
   7.77720022      -5.67675452E-05
   7.78919983      -5.58278116E-05
   7.80119991      -5.47948475E-05
   7.81320000      -5.36662446E-05
   7.82520008      -5.24436800E-05
   7.83720016      -5.11335020E-05
   7.84919977      -4.97470792E-05
   7.86119986      -4.83009389E-05
   7.87319994      -4.68167018E-05
   7.88520002      -4.53206630E-05
   7.89720011      -4.38431380E-05
   7.90920019      -4.24175705E-05
   7.92119980      -4.10793364E-05
   7.93319988      -3.98644806E-05
   7.94519997      -3.88082408E-05
   7.95720005      -3.79435769E-05
   7.96920013      -3.72997019E-05
   7.98120022      -3.69007539E-05
   7.99319983      -3.67646244E-05
   8.00520039      -3.69020345E-05
   8.01720047      -3.73159419E-05
   8.02919960      -3.80012825E-05
   8.04119968      -3.89450979E-05
   8.05319977      -4.01270554E-05
   8.06519985      -4.15203394E-05
   8.07719994      -4.30928521E-05
   8.08920002      -4.48086903E-05
   8.10120010      -4.66298261E-05
   8.11320019      -4.85178607E-05
   8.12520027      -5.04357959E-05
   8.13720036      -5.23497110E-05
   8.14920044      -5.42302769E-05
   8.16119957      -5.60539593E-05
   8.17319965      -5.78039180E-05
   8.18519974      -5.94704834E-05
   8.19719982      -6.10511634E-05
   8.20919991      -6.25502653E-05
   8.22119999      -6.39779828E-05
   8.23320007      -6.53491370E-05
   8.24520016      -6.66815977E-05
   8.25720024      -6.79944060E-05
   8.26920033      -6.93058464E-05
   8.28120041      -7.06314968E-05
   8.29319954      -7.19824311E-05
   8.30519962      -7.33636844E-05
   8.31719971      -7.47730955E-05
   8.32919979      -7.62005948E-05
   8.34119987      -7.76280067E-05
   8.35319996      -7.90294434E-05
   8.36520004      -8.03721487E-05
   8.37720013      -8.16179527E-05
   8.38920021      -8.27250551E-05
   8.40120029      -8.36502295E-05
   8.41320038      -8.43512389E-05
   8.42520046      -8.47892734E-05
   8.43719959      -8.49314019E-05
   8.44919968      -8.47527917E-05
   8.46119976      -8.42385052E-05
   8.47319984      -8.33849190E-05
   8.48519993      -8.22005168E-05
   8.49720001      -8.07061369E-05
   8.50920010      -7.89344849E-05
   8.52120018      -7.69291582E-05
   8.53320026      -7.47429876E-05
   8.54520035      -7.24360289E-05
   8.55720043      -7.00731252E-05
   8.56919956      -6.77212520E-05
   8.58119965      -6.54468167E-05
   8.59319973      -6.33129384E-05
   8.60519981      -6.13769371E-05
   8.61719990      -5.96881437E-05
   8.62919998      -5.82860594E-05
   8.64120007      -5.71990531E-05
   8.65320015      -5.64435322E-05
   8.66520023      -5.60237277E-05
   8.67720032      -5.59319415E-05
   8.68920040      -5.61493434E-05
   8.70119953      -5.66471463E-05
   8.71319962      -5.73881553E-05
   8.72519970      -5.83284891E-05
   8.73719978      -5.94195117E-05
   8.74919987      -6.06097237E-05
   8.76119995      -6.18466438E-05
   8.77320004      -6.30785580E-05
   8.78520012      -6.42560190E-05
   8.79720020      -6.53332099E-05
   8.80920029      -6.62690072E-05
   8.82120037      -6.70277368E-05
   8.83320045      -6.75797419E-05
   8.84519958      -6.79016957E-05
   8.85719967      -6.79767036E-05
   8.86919975      -6.77942517E-05
   8.88119984      -6.73500545E-05
   8.89319992      -6.66457927E-05
   8.90520000      -6.56888660E-05
   8.91720009      -6.44920947E-05
   8.92920017      -6.30734430E-05
   8.94120026      -6.14557939E-05
   8.95320034      -5.96666105E-05
   8.96520042      -5.77376559E-05
   8.97719955      -5.57046333E-05
   8.98919964      -5.36066982E-05
   9.00119972      -5.14858839E-05
   9.01319981      -4.93863772E-05
   9.02519989      -4.73536202E-05
   9.03719997      -4.54333203E-05
   9.04920006      -4.36703085E-05
   9.06120014      -4.21073091E-05
   9.07320023      -4.07836887E-05
   9.08520031      -3.97341901E-05
   9.09720039      -3.89877678E-05
   9.10919952      -3.85665444E-05
   9.12119961      -3.84849409E-05
   9.13319969      -3.87490581E-05
   9.14519978      -3.93562877E-05
   9.15719986      -4.02952610E-05
   9.16919994      -4.15460490E-05
   9.18120003      -4.30807049E-05
   9.19320011      -4.48640167E-05
   9.20520020      -4.68545659E-05
   9.21720028      -4.90059538E-05
   9.22920036      -5.12682018E-05
   9.24120045      -5.35892068E-05
   9.25319958      -5.59163127E-05
   9.26519966      -5.81977765E-05
   9.27719975      -6.03841982E-05
   9.28919983      -6.24298045E-05
   9.30119991      -6.42935265E-05
   9.31320000      -6.59399593E-05
   9.32520008      -6.73399627E-05
   9.33720016      -6.84711631E-05
   9.34920025      -6.93181864E-05
   9.36120033      -6.98726144E-05
   9.37320042      -7.01328900E-05
   9.38519955      -7.01039535E-05
   9.39719963      -6.97967771E-05
   9.40919971      -6.92277390E-05
   9.42119980      -6.84179540E-05
   9.43319988      -6.73924806E-05
   9.44519997      -6.61794984E-05
