 -0.622799993       0.00000000    
 -0.610800028       0.00000000    
 -0.598800004       0.00000000    
 -0.586799979       0.00000000    
 -0.574800014       0.00000000    
 -0.562799990       0.00000000    
 -0.550800025       0.00000000    
 -0.538800001       0.00000000    
 -0.526799977       0.00000000    
 -0.514800012       0.00000000    
 -0.502799988       0.00000000    
 -0.490799993       0.00000000    
 -0.478799999       0.00000000    
 -0.466800004      -0.00000000    
 -0.454800010      -0.00000000    
 -0.442799985      -0.00000000    
 -0.430799991      -1.58058577E-38
 -0.418799996      -1.63040695E-37
 -0.406800002      -1.06756917E-36
 -0.394800007      -5.03898031E-36
 -0.382800013      -1.82191465E-35
 -0.370799989      -5.24619857E-35
 -0.358799994      -1.12067591E-34
 -0.346799999      -1.31219172E-34
 -0.334800005       2.06339689E-34
 -0.322800010       1.83157926E-33
 -0.310799986       6.74589980E-33
 -0.298799992       1.79548974E-32
 -0.286799997       3.72117254E-32
 -0.274800003       5.75660978E-32
 -0.262800008       4.74751312E-32
 -0.250800014      -7.27298162E-32
 -0.238800004      -4.48220040E-31
 -0.226799995      -1.26185867E-30
 -0.214800000      -2.59000695E-30
 -0.202800006      -4.05617059E-30
 -0.190799996      -4.25192971E-30
 -0.178800002      -9.26803357E-32
 -0.166800007       1.33299088E-29
 -0.154799998       4.12996899E-29
 -0.142800003       8.49348587E-29
 -0.130799994       1.32400221E-28
 -0.118799999       1.46667137E-28
 -0.106799997       5.49151660E-29
  -9.48000029E-02  -2.48838840E-28
  -8.28000009E-02  -8.69783474E-28
  -7.07999989E-02  -1.82749971E-27
  -5.88000007E-02  -2.91230479E-27
  -4.67999987E-02  -3.50749476E-27
  -3.48000005E-02  -2.45914368E-27
  -2.28000004E-02   1.85407870E-27
  -1.08000003E-02   1.10457036E-26
   1.20000006E-03   2.56559168E-26
   1.31999999E-02   4.34730336E-26
   2.52000000E-02   5.75758698E-26
   3.72000001E-02   5.49681545E-26
   4.91999984E-02   1.72597512E-26
   6.12000003E-02  -7.48145144E-26
   7.32000023E-02  -2.31591714E-25
   8.51999968E-02  -4.39428361E-25
   9.71999988E-02  -6.43301277E-25
  0.109200001      -7.33951207E-25
  0.121200003      -5.50478480E-25
  0.133200005       8.86809881E-26
  0.145199999       1.31614993E-24
  0.157199994       3.10709631E-24
  0.169200003       5.14993169E-24
  0.181199998       6.73913537E-24
  0.193200007       6.75781402E-24
  0.205200002       3.83079730E-24
  0.217199996      -3.28389187E-24
  0.229200006      -1.50499988E-23
  0.241200000      -3.03376719E-23
  0.253199995      -4.56553817E-23
  0.265199989      -5.47857020E-23
  0.277200013      -4.92695385E-23
  0.289200008      -2.01496690E-23
  0.301200002       3.88398380E-23
  0.313199997       1.26902009E-22
  0.325199991       2.31532165E-22
  0.337199986       3.25217236E-22
  0.349200010       3.65635010E-22
  0.361200005       3.01553731E-22
  0.373199999       8.58697120E-23
  0.385199994      -3.04559884E-22
  0.397199988      -8.45373537E-22
  0.409200013      -1.44375813E-21
  0.421200007      -1.92922106E-21
  0.433200002      -2.06631676E-21
  0.445199996      -1.59757909E-21
  0.457199991      -3.18873835E-22
  0.469199985       1.82082587E-21
  0.481200010       4.61614926E-21
  0.493200004       7.53193346E-21
  0.505200028       9.70053445E-21
  0.517199993       1.00277740E-20
  0.529200017       7.42805928E-21
  0.541199982       1.17620610E-21
  0.553200006      -8.68146975E-21
  0.565199971      -2.09613642E-20
  0.577199996      -3.31611732E-20
  0.589200020      -4.16062769E-20
  0.601199985      -4.20268756E-20
  0.613200009      -3.05768315E-20
  0.625199974      -5.17076054E-21
  0.637199998       3.31360152E-20
  0.649200022       7.91262621E-20
  0.661199987       1.23211034E-19
  0.673200011       1.52413637E-19
  0.685199976       1.52715403E-19
  0.697200000       1.12586984E-19
  0.709200025       2.71153908E-20
  0.721199989      -9.82427033E-20
  0.733200014      -2.45469879E-19
  0.745199978      -3.84488464E-19
  0.757200003      -4.77076884E-19
  0.769200027      -4.84191981E-19
  0.781199992      -3.75742864E-19
  0.793200016      -1.40932086E-19
  0.805199981       2.03383020E-19
  0.817200005       6.08973779E-19
  0.829200029       9.99273368E-19
  0.841199994       1.28001733E-18
  0.853200018       1.35662553E-18
  0.865199983       1.15563677E-18
  0.877200007       6.46050496E-19
  0.889199972      -1.44232873E-19
  0.901199996      -1.12128344E-18
  0.913200021      -2.13028124E-18
  0.925199986      -2.97366488E-18
  0.937200010      -3.44055415E-18
  0.949199975      -3.34356309E-18
  0.961199999      -2.55772186E-18
  0.973200023      -1.05579141E-18
  0.985199988       1.06540077E-18
  0.997200012       3.57225682E-18
   1.00919998       6.09927291E-18
   1.02119994       8.17494824E-18
   1.03320003       9.27167310E-18
   1.04519999       8.88116692E-18
   1.05719995       6.61378297E-18
   1.06920004       2.31415895E-18
   1.08120000      -3.82281520E-18
   1.09319997      -1.11612746E-17
   1.10520005      -1.85921978E-17
   1.11720002      -2.45948474E-17
   1.12919998      -2.74186650E-17
   1.14119995      -2.53918640E-17
   1.15320003      -1.73307342E-17
   1.16520000      -2.98503489E-18
   1.17719996       1.65808453E-17
   1.18920004       3.87915679E-17
   1.20120001       5.96636575E-17
   1.21319997       7.42804550E-17
   1.22520006       7.76375246E-17
   1.23720002       6.57587742E-17
   1.24919999       3.68846552E-17
   1.26119995      -7.53997297E-18
   1.27320004      -6.23701130E-17
   1.28520000      -1.18996072E-16
   1.29719996      -1.66420719E-16
   1.30920005      -1.93103554E-16
   1.32120001      -1.89291694E-16
   1.33319998      -1.49386000E-16
   1.34519994      -7.38032711E-17
   1.35720003       3.01670453E-17
   1.36919999       1.48842204E-16
   1.38119996       2.64011858E-16
   1.39320004       3.55911518E-16
   1.40520000       4.06730875E-16
   1.41719997       4.03908799E-16
   1.42920005       3.42474082E-16
   1.44120002       2.25896567E-16
   1.45319998       6.52797506E-17
   1.46519995      -1.22836347E-16
   1.47720003      -3.19411201E-16
   1.48920000      -5.05718639E-16
   1.50119996      -6.65230189E-16
   1.51320004      -7.84074894E-16
   1.52520001      -8.50101271E-16
   1.53719997      -8.51136875E-16
   1.54920006      -7.73482429E-16
   1.56120002      -6.01819980E-16
   1.57319999      -3.21459883E-16
   1.58519995       7.67847543E-17
   1.59720004       5.89698779E-16
   1.60920000       1.19424065E-15
   1.62119997       1.84173487E-15
   1.63320005       2.45596102E-15
   1.64520001       2.93694423E-15
   1.65719998       3.17119691E-15
   1.66919994       3.04774694E-15
   1.68120003       2.47786931E-15
   1.69319999       1.41534250E-15
   1.70519996      -1.26360071E-16
   1.71720004      -2.06319968E-15
   1.72920001      -4.23826234E-15
   1.74119997      -6.42883946E-15
   1.75320005      -8.36234124E-15
   1.76520002      -9.73949230E-15
   1.77719998      -1.02628426E-14
   1.78919995      -9.66881926E-15
   1.80120003      -7.76192533E-15
   1.81320000      -4.44991808E-15
   1.82519996       2.21633066E-16
   1.83720005       6.03837506E-15
   1.84920001       1.25947582E-14
   1.86119998       1.92873315E-14
   1.87320006       2.53321991E-14
   1.88520002       2.98144789E-14
   1.89719999       3.17743370E-14
   1.90919995       3.03280791E-14
   1.92120004       2.48145654E-14
   1.93320000       1.49484934E-14
   1.94519997       9.55008155E-16
   1.95720005      -1.63429095E-14
   1.96920002      -3.55103283E-14
   1.98119998      -5.45766232E-14
   1.99319994      -7.12050658E-14
   2.00519991      -8.29419744E-14
   2.01719999      -8.75153018E-14
   2.02920008      -8.31416235E-14
   2.04119992      -6.87964293E-14
   2.05320001      -4.44084162E-14
   2.06520009      -1.09516396E-14
   2.07719994       2.95716990E-14
   2.08920002       7.42469034E-14
   2.10120010       1.19435711E-13
   2.11319995       1.61008319E-13
   2.12520003       1.94593324E-13
   2.13720012       2.15833238E-13
   2.14919996       2.20650931E-13
   2.16120005       2.05545501E-13
   2.17319989       1.67941087E-13
   2.18519998       1.06602898E-13
   2.19720006       2.21092116E-14
   2.20919991      -8.26662347E-14
   2.22119999      -2.02145768E-13
   2.23320007      -3.27827067E-13
   2.24519992      -4.48374654E-13
   2.25720000      -5.50130525E-13
   2.26920009      -6.18103875E-13
   2.28119993      -6.37427285E-13
   2.29320002      -5.95179667E-13
   2.30520010      -4.82391254E-13
   2.31719995      -2.95979983E-13
   2.32920003      -4.03382162E-14
   2.34120011       2.71701579E-13
   2.35319996       6.18736833E-13
   2.36520004       9.71626750E-13
   2.37719989       1.29530208E-12
   2.38919997       1.55145590E-12
   2.40120006       1.70192354E-12
   2.41319990       1.71248530E-12
   2.42519999       1.55678877E-12
   2.43720007       1.22007114E-12
   2.44919991       7.02364057E-13
   2.46120000       2.08858521E-14
   2.47320008      -7.88671862E-13
   2.48519993      -1.67222833E-12
   2.49720001      -2.55901160E-12
   2.50920010      -3.36505953E-12
   2.52119994      -3.99861047E-12
   2.53320003      -4.36732421E-12
   2.54520011      -4.38706189E-12
   2.55719995      -3.99168025E-12
   2.56920004      -3.14305634E-12
   2.58119988      -1.84027880E-12
   2.59319997      -1.26811268E-13
   2.60520005       1.90560697E-12
   2.61719990       4.11741604E-12
   2.62919998       6.32682578E-12
   2.64120007       8.32082840E-12
   2.65319991       9.87134680E-12
   2.66520000       1.07555666E-11
   2.67720008       1.07789160E-11
   2.68919992       9.79864193E-12
   2.70120001       7.74564354E-12
   2.71320009       4.64213086E-12
   2.72519994       6.12836279E-13
   2.73720002      -4.11209435E-12
   2.74920011      -9.20378270E-12
   2.76119995      -1.42514178E-11
   2.77320004      -1.87888056E-11
   2.78520012      -2.23294681E-11
   2.79719996      -2.44081561E-11
   2.80920005      -2.46258673E-11
   2.82119989      -2.26948061E-11
   2.83319998      -1.84792095E-11
   2.84520006      -1.20278770E-11
   2.85719991      -3.59434986E-12
   2.86919999       6.35873125E-12
   2.88120008       1.71735039E-11
   2.89319992       2.80300731E-11
   2.90520000       3.79983302E-11
   2.91720009       4.61058483E-11
   2.92919993       5.14174710E-11
   2.94120002       5.31205670E-11
   2.95320010       5.06088157E-11
   2.96519995       4.35569254E-11
   2.97720003       3.19788016E-11
   2.98920012       1.62629250E-11
   3.00119996      -2.81989731E-12
   3.01320004      -2.41389461E-11
   3.02519989      -4.62563737E-11
   3.03719997      -6.75082421E-11
   3.04920006      -8.61095292E-11
   3.06119990      -1.00277134E-10
   3.07319999      -1.08363686E-10
   3.08520007      -1.08994029E-10
   3.09719992      -1.01195996E-10
   3.10920000      -8.45168172E-11
   3.12120008      -5.91167254E-11
   3.13319993      -2.58312295E-11
   3.14520001       1.38055080E-11
   3.15720010       5.75832715E-11
   3.16919994       1.02689607E-10
   3.18120003       1.45837925E-10
   3.19320011       1.83449617E-10
   3.20519996       2.11885592E-10
   3.21720004       2.27717775E-10
   3.22919989       2.28025793E-10
   3.24119997       2.10698778E-10
   3.25320005       1.74717851E-10
   3.26519990       1.20392613E-10
   3.27719998       4.95239301E-11
   3.28920007      -3.45323561E-11
   3.30119991      -1.26921418E-10
   3.31320000      -2.21477572E-10
   3.32520008      -3.11047937E-10
   3.33719993      -3.87942484E-10
   3.34920001      -4.44489917E-10
   3.36120009      -4.73665440E-10
   3.37319994      -4.69747574E-10
   3.38520002      -4.28950958E-10
   3.39720011      -3.49978796E-10
   3.40919995      -2.34435971E-10
   3.42120004      -8.70508665E-11
   3.43319988       8.43386749E-11
   3.44519997       2.69063855E-10
   3.45720005       4.54176641E-10
   3.46919990       6.25259899E-10
   3.48119998       7.67455599E-10
   3.49320006       8.66644922E-10
   3.50519991       9.10691911E-10
   3.51719999       8.90643781E-10
   3.52920008       8.01774092E-10
   3.54119992       6.44355902E-10
   3.55320001       4.24065477E-10
   3.56520009       1.51944526E-10
   3.57719994      -1.56116842E-10
   3.58920002      -4.80367135E-10
   3.60120010      -7.98595301E-10
   3.61319995      -1.08784359E-09
   3.62520003      -1.32628775E-09
   3.63720012      -1.49511081E-09
   3.64919996      -1.58018332E-09
   3.66120005      -1.57336910E-09
   3.67319989      -1.47329737E-09
   3.68519998      -1.28548627E-09
   3.69720006      -1.02176134E-09
   3.70919991      -6.98981983E-10
   3.72119999      -3.37159689E-10
   3.73320007       4.28702421E-11
   3.74519992       4.22006818E-10
   3.75720000       7.85403076E-10
   3.76920009       1.12466092E-09
   3.78119993       1.43941448E-09
   3.79320002       1.73805370E-09
   3.80520010       2.03740225E-09
   3.81719995       2.36125541E-09
   3.82920003       2.73780110E-09
   3.84120011       3.19606697E-09
   3.85319996       3.76167941E-09
   3.86520004       4.45232784E-09
   3.87719989       5.27344080E-09
   3.88919997       6.21463547E-09
   3.90120006       7.24753724E-09
   3.91319990       8.32554203E-09
   3.92519999       9.38599953E-09
   3.93720007       1.03551958E-08
   3.94919991       1.11563434E-08
   3.96120000       1.17205898E-08
   3.97320008       1.20008643E-08
   3.98519993       1.19881696E-08
   3.99720001       1.17297532E-08
   4.00920010       1.13484520E-08
   4.02120018       1.10623777E-08
   4.03319979       1.12040803E-08
   4.04519987       1.22383028E-08
   4.05719995       1.47774637E-08
   4.06920004       1.95941432E-08
   4.08120012       2.76297456E-08
   4.09320021       3.99989446E-08
   4.10519981       5.79892010E-08
   4.11719990       8.30551414E-08
   4.12919998       1.16807385E-07
   4.14120007       1.60995455E-07
   4.15320015       2.17484640E-07
   4.16520023       2.88226772E-07
   4.17719984       3.75224175E-07
   4.18919992       4.80487245E-07
   4.20120001       6.05985349E-07
   4.21320009       7.53591621E-07
   4.22520018       9.25021197E-07
   4.23719978       1.12176451E-06
   4.24919987       1.34501670E-06
   4.26119995       1.59560352E-06
   4.27320004       1.87390799E-06
   4.28520012       2.17979868E-06
   4.29720020       2.51256301E-06
   4.30919981       2.87085004E-06
   4.32119989       3.25262431E-06
   4.33319998       3.65513688E-06
   4.34520006       4.07491643E-06
   4.35720015       4.50778180E-06
   4.36920023       4.94887990E-06
   4.38119984       5.39275243E-06
   4.39319992       5.83342489E-06
   4.40520000       6.26452356E-06
   4.41720009       6.67941777E-06
   4.42920017       7.07137497E-06
   4.44119978       7.43373721E-06
   4.45319986       7.76009801E-06
   4.46519995       8.04448337E-06
   4.47720003       8.28152770E-06
   4.48920012       8.46662715E-06
   4.50120020       8.59607917E-06
   4.51319981       8.66719256E-06
   4.52519989       8.67835934E-06
   4.53719997       8.62910292E-06
   4.54920006       8.52007724E-06
   4.56120014       8.35303217E-06
   4.57320023       8.13075167E-06
   4.58519983       7.85695192E-06
   4.59719992       7.53616587E-06
   4.60920000       7.17359944E-06
   4.62120008       6.77498610E-06
   4.63320017       6.34643129E-06
   4.64519978       5.89426372E-06
   4.65719986       5.42489488E-06
   4.66919994       4.94469168E-06
   4.68120003       4.45986825E-06
   4.69320011       3.97639087E-06
   4.70520020       3.49990751E-06
   4.71719980       3.03569163E-06
   4.72919989       2.58860109E-06
   4.74119997       2.16304898E-06
   4.75320005       1.76298181E-06
   4.76520014       1.39186352E-06
   4.77720022       1.05265860E-06
   4.78919983       7.47814909E-07
   4.80119991       4.79244704E-07
   4.81320000       2.48302513E-07
   4.82520008       5.57613298E-08
   4.83720016      -9.82103927E-08
   4.84919977      -2.14067654E-07
   4.86119986      -2.92901262E-07
   4.87319994      -3.36438148E-07
   4.88520002      -3.47027679E-07
   4.89720011      -3.27609996E-07
   4.90920019      -2.81664228E-07
   4.92119980      -2.13136417E-07
   4.93319988      -1.26347217E-07
   4.94519997      -2.58815849E-08
   4.95720005       8.35366691E-08
   4.96920013       1.97180583E-07
   4.98120022       3.10460734E-07
   4.99319983       4.19064719E-07
   5.00519991       5.19089497E-07
   5.01719999       6.07160302E-07
   5.02920008       6.80531002E-07
   5.04120016       7.37160121E-07
   5.05319977       7.75761066E-07
   5.06519985       7.95822018E-07
   5.07719994       7.97596556E-07
   5.08920002       7.82065058E-07
   5.10120010       7.50868082E-07
   5.11320019       7.06216326E-07
   5.12519979       6.50779441E-07
   5.13719988       5.87560464E-07
   5.14919996       5.19758316E-07
   5.16120005       4.50626487E-07
   5.17320013       3.83331354E-07
   5.18520021       3.20816241E-07
   5.19719982       2.65675652E-07
   5.20919991       2.20044512E-07
   5.22119999       1.85505812E-07
   5.23320007       1.63020928E-07
   5.24520016       1.52883999E-07
   5.25719976       1.54703287E-07
   5.26919985       1.67409652E-07
   5.28119993       1.89293388E-07
   5.29320002       2.18068067E-07
   5.30520010       2.50960056E-07
   5.31720018       2.84820914E-07
   5.32919979       3.16259957E-07
   5.34119987       3.41791889E-07
   5.35319996       3.57994821E-07
   5.36520004       3.61672392E-07
   5.37720013       3.50012698E-07
   5.38920021       3.20738167E-07
   5.40119982       2.72238452E-07
   5.41319990       2.03679818E-07
   5.42519999       1.15085470E-07
   5.43720007       7.38209316E-09
   5.44920015      -1.17591874E-07
   5.46120024      -2.57116625E-07
   5.47319984      -4.07660451E-07
   5.48519993      -5.64985442E-07
   5.49720001      -7.24285655E-07
   5.50920010      -8.80352275E-07
   5.52120018      -1.02775834E-06
   5.53319979      -1.16105412E-06
   5.54519987      -1.27496571E-06
   5.55719995      -1.36458675E-06
   5.56920004      -1.42555507E-06
   5.58120012      -1.45420552E-06
   5.59320021      -1.44769615E-06
   5.60519981      -1.40409702E-06
   5.61719990      -1.32244509E-06
   5.62919998      -1.20276025E-06
   5.64120007      -1.04602555E-06
   5.65320015      -8.54132452E-07
   5.66520023      -6.29798706E-07
   5.67719984      -3.76460775E-07
   5.68919992      -9.81503305E-08
   5.70120001       2.00641026E-07
   5.71320009       5.15100965E-07
   5.72520018       8.40234293E-07
   5.73719978       1.17099364E-06
   5.74919987       1.50239987E-06
   5.76119995       1.82964811E-06
   5.77320004       2.14819943E-06
   5.78520012       2.45385650E-06
   5.79720020       2.74282320E-06
   5.80919981       3.01175282E-06
   5.82119989       3.25778251E-06
   5.83319998       3.47855962E-06
   5.84520006       3.67225903E-06
   5.85720015       3.83759698E-06
   5.86920023       3.97383656E-06
   5.88119984       4.08078904E-06
   5.89319992       4.15881459E-06
   5.90520000       4.20880588E-06
   5.91720009       4.23217170E-06
   5.92920017       4.23080701E-06
   5.94119978       4.20704646E-06
   5.95319986       4.16360717E-06
   5.96519995       4.10351413E-06
   5.97720003       4.03001332E-06
   5.98920012       3.94646668E-06
   6.00120020       3.85624071E-06
   6.01319981       3.76258367E-06
   6.02519989       3.66850600E-06
   6.03719997       3.57666067E-06
   6.04920006       3.48923732E-06
   6.06120014       3.40787187E-06
   6.07320023       3.33358003E-06
   6.08519983       3.26672239E-06
   6.09719992       3.20699974E-06
   6.10920000       3.15348348E-06
   6.12120008       3.10468295E-06
   6.13320017       3.05864387E-06
   6.14519978       3.01307523E-06
   6.15719986       2.96549979E-06
   6.16919994       2.91341257E-06
   6.18120003       2.85445140E-06
   6.19320011       2.78655648E-06
   6.20520020       2.70811779E-06
   6.21719980       2.61809646E-06
   6.22919989       2.51611641E-06
   6.24119997       2.40251848E-06
   6.25320005       2.27836927E-06
   6.26520014       2.14543161E-06
   6.27720022       2.00608861E-06
   6.28919983       1.86323120E-06
   6.30119991       1.72011414E-06
   6.31320000       1.58018258E-06
   6.32520008       1.44688829E-06
   6.33720016       1.32349476E-06
   6.34919977       1.21289054E-06
   6.36119986       1.11741508E-06
   6.37319994       1.03870877E-06
   6.38520002       9.77594254E-07
   6.39720011       9.33995011E-07
   6.40920019       9.06895650E-07
   6.42119980       8.94346726E-07
   6.43319988       8.93512890E-07
   6.44519997       9.00764121E-07
   6.45720005       9.11804818E-07
   6.46920013       9.21836545E-07
   6.48120022       9.25746406E-07
   6.49319983       9.18313219E-07
   6.50519991       8.94422442E-07
   6.51719999       8.49281037E-07
   6.52920008       7.78624383E-07
   6.54120016       6.78904541E-07
   6.55319977       5.47454135E-07
   6.56519985       3.82618964E-07
   6.57719994       1.83853658E-07
   6.58920002      -4.82235087E-08
   6.60120010      -3.11817502E-07
   6.61320019      -6.03987132E-07
   6.62519979      -9.20718037E-07
   6.63719988      -1.25703377E-06
   6.64919996      -1.60714262E-06
   6.66120005      -1.96461497E-06
   6.67320013      -2.32258003E-06
   6.68520021      -2.67394034E-06
   6.69719982      -3.01159139E-06
   6.70919991      -3.32864033E-06
   6.72119999      -3.61861657E-06
   6.73320007      -3.87566752E-06
   6.74520016      -4.09473296E-06
   6.75719976      -4.27169334E-06
   6.76919985      -4.40349186E-06
   6.78119993      -4.48822584E-06
   6.79320002      -4.52520680E-06
   6.80520010      -4.51499591E-06
   6.81720018      -4.45940441E-06
   6.82919979      -4.36147639E-06
   6.84119987      -4.22544053E-06
   6.85319996      -4.05664787E-06
   6.86520004      -3.86148713E-06
   6.87720013      -3.64728294E-06
   6.88920021      -3.42217481E-06
   6.90119982      -3.19498326E-06
   6.91319990      -2.97505244E-06
   6.92519999      -2.77207278E-06
   6.93720007      -2.59588160E-06
   6.94920015      -2.45623937E-06
   6.96120024      -2.36258188E-06
   6.97319984      -2.32375351E-06
   6.98519993      -2.34772051E-06
   6.99720001      -2.44127705E-06
   7.00920010      -2.60975003E-06
   7.02120018      -2.85671626E-06
   7.03319979      -3.18374305E-06
   7.04519987      -3.59017054E-06
   7.05719995      -4.07294601E-06
   7.06920004      -4.62652952E-06
   7.08120012      -5.24287861E-06
   7.09320021      -5.91152366E-06
   7.10519981      -6.61974491E-06
   7.11719990      -7.35284357E-06
   7.12919998      -8.09451376E-06
   7.14120007      -8.82730001E-06
   7.15320015      -9.53312883E-06
   7.16520023      -1.01938986E-05
   7.17719984      -1.07921014E-05
   7.18919992      -1.13114447E-05
   7.20120001      -1.17374620E-05
   7.21320009      -1.20580662E-05
   7.22520018      -1.22640295E-05
   7.23719978      -1.23493664E-05
   7.24919987      -1.23116033E-05
   7.26119995      -1.21519024E-05
   7.27320004      -1.18750668E-05
   7.28520012      -1.14893910E-05
   7.29720020      -1.10063784E-05
   7.30919981      -1.04403362E-05
   7.32119989      -9.80786626E-06
   7.33319998      -9.12726409E-06
   7.34520006      -8.41786277E-06
   7.35720015      -7.69933467E-06
   7.36920023      -6.99100201E-06
   7.38119984      -6.31115563E-06
   7.39319992      -5.67643428E-06
   7.40520000      -5.10127529E-06
   7.41720009      -4.59745388E-06
   7.42920017      -4.17373531E-06
   7.44119978      -3.83565248E-06
   7.45319986      -3.58539228E-06
   7.46519995      -3.42182125E-06
   7.47720003      -3.34062156E-06
   7.48920012      -3.33453863E-06
   7.50120020      -3.39372787E-06
   7.51319981      -3.50617847E-06
   7.52519989      -3.65820688E-06
   7.53719997      -3.83498900E-06
   7.54920006      -4.02111755E-06
   7.56120014      -4.20116248E-06
   7.57320023      -4.36021583E-06
   7.58519983      -4.48439960E-06
   7.59719992      -4.56132557E-06
   7.60920000      -4.58048862E-06
   7.62120008      -4.53358325E-06
   7.63320017      -4.41473503E-06
   7.64519978      -4.22065068E-06
   7.65719986      -3.95066354E-06
   7.66919994      -3.60670333E-06
   7.68120003      -3.19316655E-06
   7.69320011      -2.71671502E-06
   7.70520020      -2.18599848E-06
   7.71719980      -1.61132073E-06
   7.72919989      -1.00425166E-06
   7.74119997      -3.77208210E-07
   7.75320005       2.56990717E-07
   7.76520014       8.85565498E-07
   7.77720022       1.49621746E-06
   7.78919983       2.07754374E-06
   7.80119991       2.61941182E-06
   7.81320000       3.11328563E-06
   7.82520008       3.55248426E-06
   7.83720016       3.93237679E-06
   7.84919977       4.25048256E-06
   7.86119986       4.50650577E-06
   7.87319994       4.70226405E-06
   7.88520002       4.84155044E-06
   7.89720011       4.92990830E-06
   7.90920019       4.97434712E-06
   7.92119980       4.98299551E-06
   7.93319988       4.96471694E-06
   7.94519997       4.92868685E-06
   7.95720005       4.88397427E-06
   7.96920013       4.83912299E-06
   7.98120022       4.80176595E-06
   7.99319983       4.77827734E-06
   8.00520039       4.77349477E-06
   8.01720047       4.79051232E-06
   8.02919960       4.83056374E-06
   8.04119968       4.89299146E-06
   8.05319977       4.97533074E-06
   8.06519985       5.07346567E-06
   8.07719994       5.18189563E-06
   8.08920002       5.29407089E-06
   8.10120010       5.40278916E-06
   8.11320019       5.50063396E-06
   8.12520027       5.58043666E-06
   8.13720036       5.63572894E-06
   8.14920044       5.66116978E-06
   8.16119957       5.65291521E-06
   8.17319965       5.60892295E-06
   8.18519974       5.52916526E-06
   8.19719982       5.41573490E-06
   8.20919991       5.27284192E-06
   8.22119999       5.10668906E-06
   8.23320007       4.92522986E-06
   8.24520016       4.73781802E-06
   8.25720024       4.55476538E-06
   8.26920033       4.38681991E-06
   8.28120041       4.24460040E-06
   8.29319954       4.13800535E-06
   8.30519962       4.07563493E-06
   8.31719971       4.06424851E-06
   8.32919979       4.10829216E-06
   8.34119987       4.20951619E-06
   8.35319996       4.36670553E-06
   8.36520004       4.57554097E-06
   8.37720013       4.82860150E-06
   8.38920021       5.11550752E-06
   8.40120029       5.42321186E-06
   8.41320038       5.73642501E-06
   8.42520046       6.03815715E-06
   8.43719959       6.31036346E-06
   8.44919968       6.53466168E-06
   8.46119976       6.69309384E-06
   8.47319984       6.76890113E-06
   8.48519993       6.74727335E-06
   8.49720001       6.61604781E-06
   8.50920010       6.36632103E-06
   8.52120018       5.99294617E-06
   8.53320026       5.49489641E-06
   8.54520035       4.87546822E-06
   8.55720043       4.14232045E-06
   8.56919956       3.30733292E-06
   8.58119965       2.38629013E-06
   8.59319973       1.39839688E-06
   8.60519981       3.65638641E-07
   8.61719990      -6.87989029E-07
   8.62919998      -1.73735179E-06
   8.64120007      -2.75711614E-06
   8.65320015      -3.72271802E-06
   8.66520023      -4.61132231E-06
   8.67720032      -5.40272640E-06
   8.68920040      -6.08017854E-06
   8.70119953      -6.63106539E-06
   8.71319962      -7.04743934E-06
   8.72519970      -7.32636227E-06
   8.73719978      -7.47003969E-06
   8.74919987      -7.48573939E-06
   8.76119995      -7.38549170E-06
   8.77320004      -7.18558022E-06
   8.78520012      -6.90583965E-06
   8.79720020      -6.56879774E-06
   8.80920029      -6.19869479E-06
   8.82120037      -5.82041730E-06
   8.83320045      -5.45841158E-06
   8.84519958      -5.13561235E-06
   8.85719967      -4.87243642E-06
   8.86919975      -4.68589587E-06
   8.88119984      -4.58886188E-06
   8.89319992      -4.58951672E-06
   8.90520000      -4.69101496E-06
   8.91720009      -4.89136892E-06
   8.92920017      -5.18356774E-06
   8.94120026      -5.55591350E-06
   8.95320034      -5.99256282E-06
   8.96520042      -6.47425031E-06
   8.97719955      -6.97914720E-06
   8.98919964      -7.48382172E-06
   9.00119972      -7.96425775E-06
   9.01319981      -8.39686891E-06
   9.02519989      -8.75948081E-06
   9.03719997      -9.03222372E-06
   9.04920006      -9.19831018E-06
   9.06120014      -9.24464985E-06
   9.07320023      -9.16230420E-06
   9.08520031      -8.94674758E-06
   9.09720039      -8.59793909E-06
   9.10919952      -8.12021335E-06
   9.12119961      -7.52200685E-06
   9.13319969      -6.81542542E-06
   9.14519978      -6.01570628E-06
   9.15719986      -5.14057547E-06
   9.16919994      -4.20955894E-06
   9.18120003      -3.24326288E-06
   9.19320011      -2.26266457E-06
   9.20520020      -1.28843737E-06
   9.21720028      -3.40335589E-07
   9.22920036       5.63334140E-07
   9.24120045       1.40614839E-06
   9.25319958       2.17389220E-06
   9.26519966       2.85477404E-06
   9.27719975       3.43953116E-06
   9.28919983       3.92143147E-06
   9.30119991       4.29618240E-06
   9.31320000       4.56176349E-06
   9.32520008       4.71819794E-06
   9.33720016       4.76727701E-06
   9.34920025       4.71226076E-06
   9.36120033       4.55756799E-06
   9.37320042       4.30846694E-06
   9.38519955       3.97078884E-06
   9.39719963       3.55066868E-06
   9.40919971       3.05432786E-06
   9.42119980       2.48789911E-06
   9.43319988       1.85730732E-06
   9.44519997       1.16819820E-06
