 -0.622799993       0.00000000    
 -0.610800028       0.00000000    
 -0.598800004       0.00000000    
 -0.586799979       0.00000000    
 -0.574800014       0.00000000    
 -0.562799990       0.00000000    
 -0.550800025       0.00000000    
 -0.538800001       0.00000000    
 -0.526799977       0.00000000    
 -0.514800012       0.00000000    
 -0.502799988       0.00000000    
 -0.490799993       0.00000000    
 -0.478799999       0.00000000    
 -0.466800004       0.00000000    
 -0.454800010      -0.00000000    
 -0.442799985      -0.00000000    
 -0.430799991      -4.14481609E-38
 -0.418799996      -1.16602897E-37
 -0.406800002      -2.04145824E-37
 -0.394800007       4.19763462E-37
 -0.382800013       5.12884421E-36
 -0.370799989       2.48315117E-35
 -0.358799994       8.53003502E-35
 -0.346799999       2.28575634E-34
 -0.334800005       4.86978060E-34
 -0.322800010       7.99417525E-34
 -0.310799986       8.77551532E-34
 -0.298799992       2.20259563E-34
 -0.286799997      -1.08189433E-33
 -0.274800003       5.39116974E-34
 -0.262800008       1.86683255E-32
 -0.250800014       8.70321206E-32
 -0.238800004       2.66953309E-31
 -0.226799995       6.32680729E-31
 -0.214800000       1.19622593E-30
 -0.202800006       1.72011574E-30
 -0.190799996       1.38697387E-30
 -0.178800002      -1.60636945E-30
 -0.166800007      -1.02425837E-29
 -0.154799998      -2.80424578E-29
 -0.142800003      -5.66447835E-29
 -0.130799994      -9.06854327E-29
 -0.118799999      -1.09947128E-28
 -0.106799997      -7.10807599E-29
  -9.48000029E-02   9.48687813E-29
  -8.28000009E-02   4.68270221E-28
  -7.07999989E-02   1.09653852E-27
  -5.88000007E-02   1.91007588E-27
  -4.67999987E-02   2.60525127E-27
  -3.48000005E-02   2.53328351E-27
  -2.28000004E-02   6.78803639E-28
  -1.08000003E-02  -4.14588545E-27
   1.20000006E-03  -1.27560565E-26
   1.31999999E-02  -2.46318443E-26
   2.52000000E-02  -3.66532048E-26
   3.72000001E-02  -4.19564640E-26
   4.91999984E-02  -2.97135831E-26
   6.12000003E-02   1.30692096E-26
   7.32000023E-02   9.66703064E-26
   8.51999968E-02   2.20279596E-25
   9.71999988E-02   3.61212826E-25
  0.109200001       4.65073440E-25
  0.121200003       4.42802023E-25
  0.133200005       1.82363773E-25
  0.145199999      -4.17681832E-25
  0.157199994      -1.38997449E-24
  0.169200003      -2.62225392E-24
  0.181199998      -3.78407583E-24
  0.193200007      -4.29239532E-24
  0.205200002      -3.36279295E-24
  0.217199996      -1.90954678E-25
  0.229200006       5.71465158E-24
  0.241200000       1.40779912E-23
  0.253199995       2.33814412E-23
  0.265199989       3.05575653E-23
  0.277200013       3.10937004E-23
  0.289200008       1.97984523E-23
  0.301200002      -7.61919018E-24
  0.313199997      -5.22322160E-23
  0.325199991      -1.09256112E-22
  0.337199986      -1.65902207E-22
  0.349200010      -2.00871060E-22
  0.361200005      -1.86728122E-22
  0.373199999      -9.60809863E-23
  0.385199994       8.83903751E-23
  0.397199988       3.61404418E-22
  0.409200013       6.83126988E-22
  0.421200007       9.72457944E-22
  0.433200002       1.11098212E-21
  0.445199996       9.62239052E-22
  0.457199991       4.08088828E-22
  0.469199985      -6.01095955E-22
  0.481200010      -1.99226107E-21
  0.493200004      -3.52785463E-21
  0.505200028      -4.79683168E-21
  0.517199993      -5.25804667E-21
  0.529200017      -4.34759223E-21
  0.541199982      -1.64594533E-21
  0.553200006       2.92081594E-21
  0.565199971       8.89431124E-21
  0.577199996       1.51771196E-20
  0.589200020       2.00744036E-20
  0.601199985       2.15344372E-20
  0.613200009       1.75975034E-20
  0.625199974       7.00249828E-21
  0.637199998      -1.01664157E-20
  0.649200022      -3.19665046E-20
  0.661199987      -5.44126516E-20
  0.673200011      -7.17917938E-20
  0.685199976      -7.75589358E-20
  0.697200000      -6.57628750E-20
  0.709200025      -3.27902796E-20
  0.721199989       2.09277729E-20
  0.733200014       8.96895912E-20
  0.745199978       1.62211372E-19
  0.757200003       2.22547722E-19
  0.769200027       2.52345534E-19
  0.781199992       2.34259204E-19
  0.793200016       1.56079753E-19
  0.805199981       1.49113830E-20
  0.817200005      -1.79395222E-19
  0.829200029      -4.02354996E-19
  0.841199994      -6.15225765E-19
  0.853200018      -7.68209769E-19
  0.865199983      -8.06806844E-19
  0.877200007      -6.81315635E-19
  0.889199972      -3.58982169E-19
  0.901199996       1.62441470E-19
  0.913200021       8.41932086E-19
  0.925199986       1.58652125E-18
  0.937200010       2.25088128E-18
  0.949199975       2.64949693E-18
  0.961199999       2.58461371E-18
  0.973200023       1.89026176E-18
  0.985199988       4.87996133E-19
  0.997200012      -1.55581041E-18
   1.00919998      -3.98678928E-18
   1.02119994      -6.35234923E-18
   1.03320003      -8.04181931E-18
   1.04519999      -8.38671888E-18
   1.05719995      -6.81680784E-18
   1.06920004      -3.04888910E-18
   1.08120000       2.73355234E-18
   1.09319997       9.76499617E-18
   1.10520005       1.67029090E-17
   1.11720002       2.17932545E-17
   1.12919998       2.32028430E-17
   1.14119995       1.94778982E-17
   1.15320003       1.00384422E-17
   1.16520000      -4.41968971E-18
   1.17719996      -2.17541437E-17
   1.18920004      -3.85477051E-17
   1.20120001      -5.06647066E-17
   1.21319997      -5.41351396E-17
   1.22520006      -4.62011871E-17
   1.23720002      -2.62752995E-17
   1.24919999       3.47312460E-18
   1.26119995       3.81404014E-17
   1.27320004       7.08334876E-17
   1.28520000       9.40647095E-17
   1.29719996       1.01522517E-16
   1.30920005       8.97857306E-17
   1.32120001       5.94904326E-17
   1.33319998       1.55395688E-17
   1.34519994      -3.38337054E-17
   1.35720003      -7.90176721E-17
   1.36919999      -1.11523547E-16
   1.38119996      -1.26326573E-16
   1.39320004      -1.23278207E-16
   1.40520000      -1.07004322E-16
   1.41719997      -8.51158064E-17
   1.42920005      -6.51073860E-17
   1.44120002      -5.08507495E-17
   1.45319998      -3.99189720E-17
   1.46519995      -2.29564077E-17
   1.47720003       1.41369749E-17
   1.48920000       8.52476590E-17
   1.50119996       1.97344237E-16
   1.51320004       3.43928702E-16
   1.52520001       5.00994418E-16
   1.53719997       6.27627856E-16
   1.54920006       6.72432828E-16
   1.56120002       5.85399928E-16
   1.57319999       3.33054255E-16
   1.58519995      -8.67966043E-17
   1.59720004      -6.35109327E-16
   1.60920000      -1.23037581E-15
   1.62119997      -1.75832986E-15
   1.63320005      -2.09211865E-15
   1.64520001      -2.11945135E-15
   1.65719998      -1.77074345E-15
   1.66919994      -1.04110821E-15
   1.68120003       2.22408032E-19
   1.69319999       1.21680073E-15
   1.70519996       2.42787319E-15
   1.71720004       3.44252994E-15
   1.72920001       4.09681842E-15
   1.74119997       4.28414060E-15
   1.75320005       3.97068124E-15
   1.76520002       3.19172857E-15
   1.77719998       2.03059928E-15
   1.78919995       5.87768709E-16
   1.80120003      -1.04818771E-15
   1.81320000      -2.81577829E-15
   1.82519996      -4.67356485E-15
   1.83720005      -6.57001402E-15
   1.84920001      -8.39849684E-15
   1.86119998      -9.95389497E-15
   1.87320006      -1.09113988E-14
   1.88520002      -1.08460553E-14
   1.89719999      -9.30264268E-15
   1.90919995      -5.91115029E-15
   1.92120004      -5.26845599E-16
   1.93320000       6.63959566E-15
   1.94519997       1.49424642E-14
   1.95720005       2.33076684E-14
   1.96920002       3.03453450E-14
   1.98119998       3.45632235E-14
   1.99319994       3.46478014E-14
   2.00519991       2.97570603E-14
   2.01719999       1.97570333E-14
   2.02920008       5.33976346E-15
   2.04119992      -1.20170233E-14
   2.05320001      -3.02523001E-14
   2.06520009      -4.70493023E-14
   2.07719994      -6.02171714E-14
   2.08920002      -6.80380706E-14
   2.10120010      -6.94973660E-14
   2.11319995      -6.43443767E-14
   2.12520003      -5.29790479E-14
   2.13720012      -3.62122509E-14
   2.14919996      -1.49892458E-14
   2.16120005       9.81706188E-15
   2.17319989       3.74528594E-14
   2.18519998       6.71287231E-14
   2.19720006       9.76922400E-14
   2.20919991       1.27229797E-13
   2.22119999       1.52751699E-13
   2.23320007       1.70127638E-13
   2.24519992       1.74400818E-13
   2.25720000       1.60522434E-13
   2.26920009       1.24431498E-13
   2.28119993       6.42856672E-14
   2.29320002      -1.84366716E-14
   2.30520010      -1.18267958E-13
   2.31719995      -2.25767091E-13
   2.32920003      -3.28341521E-13
   2.34120011      -4.11820534E-13
   2.35319996      -4.62538373E-13
   2.36520004      -4.69539934E-13
   2.37719989      -4.26460950E-13
   2.38919997      -3.32680200E-13
   2.40120006      -1.93492385E-13
   2.41319990      -1.92790425E-14
   2.42519999       1.76103205E-13
   2.43720007       3.77297314E-13
   2.44919991       5.69273903E-13
   2.46120000       7.38548328E-13
   2.47320008       8.73514314E-13
   2.48519993       9.63902135E-13
   2.49720001       9.99685035E-13
   2.50920010       9.70000013E-13
   2.52119994       8.62755613E-13
   2.53320003       6.65507525E-13
   2.54520011       3.67894165E-13
   2.55719995      -3.44999027E-14
   2.56920004      -5.35464468E-13
   2.58119988      -1.11368044E-12
   2.59319997      -1.72965602E-12
   2.60520005      -2.32525154E-12
   2.61719990      -2.82662023E-12
   2.62919998      -3.15081164E-12
   2.64120007      -3.21557841E-12
   2.65319991      -2.95125382E-12
   2.66520000      -2.31303865E-12
   2.67720008      -1.29183610E-12
   2.68919992       7.81303055E-14
   2.70120001       1.71624954E-12
   2.71320009       3.49771362E-12
   2.72519994       5.26094923E-12
   2.73720002       6.81966376E-12
   2.74920011       7.97842521E-12
   2.76119995       8.55049451E-12
   2.77320004       8.37663272E-12
   2.78520012       7.34368469E-12
   2.79719996       5.40190028E-12
   2.80920005       2.57982047E-12
   2.82119989      -1.00454432E-12
   2.83319998      -5.13793999E-12
   2.84520006      -9.51346033E-12
   2.85719991      -1.37415912E-11
   2.86919999      -1.73724733E-11
   2.88120008      -1.99302120E-11
   2.89319992      -2.09584867E-11
   2.90520000      -2.00747335E-11
   2.91720009      -1.70278288E-11
   2.92919993      -1.17523716E-11
   2.94120002      -4.41130292E-12
   2.95320010       4.58133011E-12
   2.96519995       1.45644208E-11
   2.97720003       2.46647217E-11
   2.98920012       3.38629333E-11
   3.00119996       4.10866896E-11
   3.01320004       4.53219996E-11
   3.02519989       4.57312591E-11
   3.03719997       4.17640610E-11
   3.04920006       3.32471203E-11
   3.06119990       2.04414697E-11
   3.07319999       4.05882532E-12
   3.08520007      -1.47668006E-11
   3.09719992      -3.45508656E-11
   3.10920000      -5.35679660E-11
   3.12120008      -6.99903122E-11
   3.13319993      -8.20436843E-11
   3.14520001      -8.81685697E-11
   3.15720010      -8.71741498E-11
   3.16919994      -7.83733911E-11
   3.18120003      -6.16885917E-11
   3.19320011      -3.77174021E-11
   3.20519996      -7.75090148E-12
   3.21720004       2.62632104E-11
   3.22919989       6.18166421E-11
   3.24119997       9.59964122E-11
   3.25320005       1.25695968E-10
   3.26519990       1.47870438E-10
   3.27719998       1.59818020E-10
   3.28920007       1.59463193E-10
   3.30119991       1.45612300E-10
   3.31320000       1.18151197E-10
   3.32520008       7.81567172E-11
   3.33719993       2.79007806E-11
   3.34920001      -2.92634666E-11
   3.36120009      -8.91303628E-11
   3.37319994      -1.46967966E-10
   3.38520002      -1.97911951E-10
   3.39720011      -2.37387554E-10
   3.40919995      -2.61516198E-10
   3.42120004      -2.67464717E-10
   3.43319988      -2.53702642E-10
   3.44519997      -2.20144153E-10
   3.45720005      -1.68166092E-10
   3.46919990      -1.00506749E-10
   3.48119998      -2.10630940E-11
   3.49320006       6.53877785E-11
   3.50519991       1.53512619E-10
   3.51719999       2.37761699E-10
   3.52920008       3.12697812E-10
   3.54119992       3.73294590E-10
   3.55320001       4.15190687E-10
   3.56520009       4.34893482E-10
   3.57719994       4.29931396E-10
   3.58920002       3.98956645E-10
   3.60120010       3.41805750E-10
   3.61319995       2.59524013E-10
   3.62520003       1.54363217E-10
   3.63720012       2.97607043E-11
   3.64919996      -1.09692033E-10
   3.66120005      -2.58286698E-10
   3.67319989      -4.09242279E-10
   3.68519998      -5.54763846E-10
   3.69720006      -6.86134649E-10
   3.70919991      -7.93869137E-10
   3.72119999      -8.67964756E-10
   3.73320007      -8.98290553E-10
   3.74519992      -8.75150064E-10
   3.75720000      -7.90038812E-10
   3.76920009      -6.36594277E-10
   3.78119993      -4.11703227E-10
   3.79320002      -1.16692919E-10
   3.80520010       2.41505982E-10
   3.81719995       6.49365672E-10
   3.82920003       1.08609866E-09
   3.84120011       1.52348578E-09
   3.85319996       1.92633376E-09
   3.86520004       2.25365393E-09
   3.87719989       2.46059462E-09
   3.88919997       2.50107535E-09
   3.90120006       2.33099517E-09
   3.91319990       1.91179317E-09
   3.92519999       1.21407928E-09
   3.93720007       2.20991017E-10
   3.94919991      -1.06909792E-09
   3.96120000      -2.64089262E-09
   3.97320008      -4.46187531E-09
   3.98519993      -6.48369758E-09
   3.99720001      -8.64550032E-09
   4.00920010      -1.08793099E-08
   4.02120018      -1.31175462E-08
   4.03319979      -1.53025841E-08
   4.04519987      -1.73981292E-08
   4.05719995      -1.94021244E-08
   4.06920004      -2.13607176E-08
   4.08120012      -2.33827997E-08
   4.09320021      -2.56544475E-08
   4.10519981      -2.84526713E-08
   4.11719990      -3.21577716E-08
   4.12919998      -3.72637352E-08
   4.14120007      -4.43860415E-08
   4.15320015      -5.42664509E-08
   4.16520023      -6.77745362E-08
   4.17719984      -8.59056257E-08
   4.18919992      -1.09775264E-07
   4.20120001      -1.40610155E-07
   4.21320009      -1.79735878E-07
   4.22520018      -2.28561660E-07
   4.23719978      -2.88562205E-07
   4.24919987      -3.61257349E-07
   4.26119995      -4.48189496E-07
   4.27320004      -5.50899131E-07
   4.28520012      -6.70898771E-07
   4.29720020      -8.09645201E-07
   4.30919981      -9.68510790E-07
   4.32119989      -1.14875331E-06
   4.33319998      -1.35148537E-06
   4.34520006      -1.57764282E-06
   4.35720015      -1.82795384E-06
   4.36920023      -2.10290727E-06
   4.38119984      -2.40272425E-06
   4.39319992      -2.72732927E-06
   4.40520000      -3.07632695E-06
   4.41720009      -3.44898035E-06
   4.42920017      -3.84419718E-06
   4.44119978      -4.26052020E-06
   4.45319986      -4.69612769E-06
   4.46519995      -5.14884005E-06
   4.47720003      -5.61613842E-06
   4.48920012      -6.09519293E-06
   4.50120020      -6.58289946E-06
   4.51319981      -7.07592835E-06
   4.52519989      -7.57078533E-06
   4.53719997      -8.06387652E-06
   4.54920006      -8.55158305E-06
   4.56120014      -9.03034106E-06
   4.57320023      -9.49672449E-06
   4.58519983      -9.94752281E-06
   4.59719992      -1.03798257E-05
   4.60920000      -1.07910919E-05
   4.62120008      -1.11792087E-05
   4.63320017      -1.15425510E-05
   4.64519978      -1.18800081E-05
   4.65719986      -1.21910116E-05
   4.66919994      -1.24755325E-05
   4.68120003      -1.27340727E-05
   4.69320011      -1.29676282E-05
   4.70520020      -1.31776396E-05
   4.71719980      -1.33659332E-05
   4.72919989      -1.35346454E-05
   4.74119997      -1.36861354E-05
   4.75320005      -1.38229034E-05
   4.76520014      -1.39474960E-05
   4.77720022      -1.40624225E-05
   4.78919983      -1.41700693E-05
   4.80119991      -1.42726312E-05
   4.81320000      -1.43720490E-05
   4.82520008      -1.44699652E-05
   4.83720016      -1.45676904E-05
   4.84919977      -1.46661887E-05
   4.86119986      -1.47660758E-05
   4.87319994      -1.48676399E-05
   4.88520002      -1.49708603E-05
   4.89720011      -1.50754549E-05
   4.90920019      -1.51809218E-05
   4.92119980      -1.52865996E-05
   4.93319988      -1.53917208E-05
   4.94519997      -1.54954778E-05
   4.95720005      -1.55970738E-05
   4.96920013      -1.56957776E-05
   4.98120022      -1.57909799E-05
   4.99319983      -1.58822168E-05
   5.00519991      -1.59692154E-05
   5.01719999      -1.60519139E-05
   5.02920008      -1.61304579E-05
   5.04120016      -1.62052165E-05
   5.05319977      -1.62767574E-05
   5.06519985      -1.63458335E-05
   5.07719994      -1.64133526E-05
   5.08920002      -1.64803369E-05
   5.10120010      -1.65478796E-05
   5.11320019      -1.66170994E-05
   5.12519979      -1.66890950E-05
   5.13719988      -1.67648850E-05
   5.14919996      -1.68453753E-05
   5.16120005      -1.69313244E-05
   5.17320013      -1.70232834E-05
   5.18520021      -1.71215979E-05
   5.19719982      -1.72263790E-05
   5.20919991      -1.73374956E-05
   5.22119999      -1.74545803E-05
   5.23320007      -1.75770438E-05
   5.24520016      -1.77040838E-05
   5.25719976      -1.78347273E-05
   5.26919985      -1.79678609E-05
   5.28119993      -1.81022569E-05
   5.29320002      -1.82366311E-05
   5.30520010      -1.83696739E-05
   5.31720018      -1.85000899E-05
   5.32919979      -1.86266352E-05
   5.34119987      -1.87481583E-05
   5.35319996      -1.88636204E-05
   5.36520004      -1.89721286E-05
   5.37720013      -1.90729497E-05
   5.38920021      -1.91655308E-05
   5.40119982      -1.92495136E-05
   5.41319990      -1.93247433E-05
   5.42519999      -1.93912820E-05
   5.43720007      -1.94494187E-05
   5.44920015      -1.94996774E-05
   5.46120024      -1.95428347E-05
   5.47319984      -1.95799275E-05
   5.48519993      -1.96122728E-05
   5.49720001      -1.96414730E-05
   5.50920010      -1.96694346E-05
   5.52120018      -1.96983619E-05
   5.53319979      -1.97307654E-05
   5.54519987      -1.97694408E-05
   5.55719995      -1.98174530E-05
   5.56920004      -1.98780890E-05
   5.58120012      -1.99547994E-05
   5.59320021      -2.00511276E-05
   5.60519981      -2.01706098E-05
   5.61719990      -2.03166746E-05
   5.62919998      -2.04925145E-05
   5.64120007      -2.07009598E-05
   5.65320015      -2.09443424E-05
   5.66520023      -2.12243722E-05
   5.67719984      -2.15420259E-05
   5.68919992      -2.18974474E-05
   5.70120001      -2.22898925E-05
   5.71320009      -2.27176806E-05
   5.72520018      -2.31782251E-05
   5.73719978      -2.36680589E-05
   5.74919987      -2.41829475E-05
   5.76119995      -2.47180033E-05
   5.77320004      -2.52678674E-05
   5.78520012      -2.58268883E-05
   5.79720020      -2.63893562E-05
   5.80919981      -2.69497014E-05
   5.82119989      -2.75027305E-05
   5.83319998      -2.80438162E-05
   5.84520006      -2.85690676E-05
   5.85720015      -2.90754724E-05
   5.86920023      -2.95609716E-05
   5.88119984      -3.00245065E-05
   5.89319992      -3.04660007E-05
   5.90520000      -3.08862764E-05
   5.91720009      -3.12869561E-05
   5.92920017      -3.16702935E-05
   5.94119978      -3.20390027E-05
   5.95319986      -3.23960448E-05
   5.96519995      -3.27444359E-05
   5.97720003      -3.30870425E-05
   5.98920012      -3.34264187E-05
   6.00120020      -3.37646634E-05
   6.01319981      -3.41033083E-05
   6.02519989      -3.44432628E-05
   6.03719997      -3.47848072E-05
   6.04920006      -3.51276103E-05
   6.06120014      -3.54707918E-05
   6.07320023      -3.58130274E-05
   6.08519983      -3.61526618E-05
   6.09719992      -3.64878179E-05
   6.10920000      -3.68165420E-05
   6.12120008      -3.71369279E-05
   6.13320017      -3.74471929E-05
   6.14519978      -3.77457945E-05
   6.15719986      -3.80314777E-05
   6.16919994      -3.83033075E-05
   6.18120003      -3.85607054E-05
   6.19320011      -3.88034205E-05
   6.20520020      -3.90315108E-05
   6.21719980      -3.92453403E-05
   6.22919989      -3.94455055E-05
   6.24119997      -3.96328287E-05
   6.25320005      -3.98082957E-05
   6.26520014      -3.99730416E-05
   6.27720022      -4.01283069E-05
   6.28919983      -4.02754158E-05
   6.30119991      -4.04157545E-05
   6.31320000      -4.05507199E-05
   6.32520008      -4.06817198E-05
   6.33720016      -4.08101077E-05
   6.34919977      -4.09371605E-05
   6.36119986      -4.10640205E-05
   6.37319994      -4.11916444E-05
   6.38520002      -4.13207636E-05
   6.39720011      -4.14518181E-05
   6.40920019      -4.15849281E-05
   6.42119980      -4.17198862E-05
   6.43319988      -4.18561249E-05
   6.44519997      -4.19927601E-05
   6.45720005      -4.21286350E-05
   6.46920013      -4.22623561E-05
   6.48120022      -4.23924321E-05
   6.49319983      -4.25173348E-05
   6.50519991      -4.26356310E-05
   6.51719999      -4.27460982E-05
   6.52920008      -4.28478124E-05
   6.54120016      -4.29402608E-05
   6.55319977      -4.30233740E-05
   6.56519985      -4.30975815E-05
   6.57719994      -4.31637854E-05
   6.58920002      -4.32233210E-05
   6.60120010      -4.32778834E-05
   6.61320019      -4.33293972E-05
   6.62519979      -4.33798850E-05
   6.63719988      -4.34313042E-05
   6.64919996      -4.34853937E-05
   6.66120005      -4.35434958E-05
   6.67320013      -4.36064256E-05
   6.68520021      -4.36743430E-05
   6.69719982      -4.37466661E-05
   6.70919991      -4.38220159E-05
   6.72119999      -4.38982097E-05
   6.73320007      -4.39722826E-05
   6.74520016      -4.40405638E-05
   6.75719976      -4.40987897E-05
   6.76919985      -4.41422198E-05
   6.78119993      -4.41658012E-05
   6.79320002      -4.41643315E-05
   6.80520010      -4.41326556E-05
   6.81720018      -4.40658005E-05
   6.82919979      -4.39591859E-05
   6.84119987      -4.38087409E-05
   6.85319996      -4.36110568E-05
   6.86520004      -4.33635105E-05
   6.87720013      -4.30643522E-05
   6.88920021      -4.27128070E-05
   6.90119982      -4.23091733E-05
   6.91319990      -4.18548625E-05
   6.92519999      -4.13525086E-05
   6.93720007      -4.08060223E-05
   6.94920015      -4.02206824E-05
   6.96120024      -3.96032192E-05
   6.97319984      -3.89618835E-05
   6.98519993      -3.83065453E-05
   6.99720001      -3.76487296E-05
   7.00920010      -3.70016642E-05
   7.02120018      -3.63802756E-05
   7.03319979      -3.58011457E-05
   7.04519987      -3.52823736E-05
   7.05719995      -3.48433787E-05
   7.06920004      -3.45046028E-05
   7.08120012      -3.42871026E-05
   7.09320021      -3.42120511E-05
   7.10519981      -3.43001157E-05
   7.11719990      -3.45707631E-05
   7.12919998      -3.50414630E-05
   7.14120007      -3.57268764E-05
   7.15320015      -3.66379536E-05
   7.16520023      -3.77810902E-05
   7.17719984      -3.91573121E-05
   7.18919992      -4.07615262E-05
   7.20120001      -4.25818980E-05
   7.21320009      -4.45993865E-05
   7.22520018      -4.67874270E-05
   7.23719978      -4.91118517E-05
   7.24919987      -5.15309839E-05
   7.26119995      -5.39959692E-05
   7.27320004      -5.64513284E-05
   7.28520012      -5.88356488E-05
   7.29720020      -6.10825155E-05
   7.30919981      -6.31215153E-05
   7.32119989      -6.48794376E-05
   7.33319998      -6.62814055E-05
   7.34520006      -6.72522292E-05
   7.35720015      -6.77175631E-05
   7.36920023      -6.76052005E-05
   7.38119984      -6.68462017E-05
   7.39319992      -6.53760144E-05
   7.40520000      -6.31354487E-05
   7.41720009      -6.00715794E-05
   7.42920017      -5.61385204E-05
   7.44119978      -5.12981314E-05
   7.45319986      -4.55205409E-05
   7.46519995      -3.87846485E-05
   7.47720003      -3.10784671E-05
   7.48920012      -2.23993993E-05
   7.50120020      -1.27544326E-05
   7.51319981      -2.16019453E-06
   7.52519989       9.35698699E-06
   7.53719997       2.17611960E-05
   7.54920006       3.50070586E-05
   7.56120014       4.90399907E-05
   7.57320023       6.37964913E-05
   7.58519983       7.92045539E-05
   7.59719992       9.51841212E-05
   7.60920000       1.11647598E-04
   7.62120008       1.28500498E-04
   7.63320017       1.45642043E-04
   7.64519978       1.62965967E-04
   7.65719986       1.80361210E-04
   7.66919994       1.97712856E-04
   7.68120003       2.14902917E-04
   7.69320011       2.31811355E-04
   7.70520020       2.48317025E-04
   7.71719980       2.64298636E-04
   7.72919989       2.79636006E-04
   7.74119997       2.94210913E-04
   7.75320005       3.07908485E-04
   7.76520014       3.20618070E-04
   7.77720022       3.32234631E-04
   7.78919983       3.42659769E-04
   7.80119991       3.51802824E-04
   7.81320000       3.59581987E-04
   7.82520008       3.65925313E-04
   7.83720016       3.70771595E-04
   7.84919977       3.74071242E-04
   7.86119986       3.75786796E-04
   7.87319994       3.75893578E-04
   7.88520002       3.74379801E-04
   7.89720011       3.71247093E-04
   7.90920019       3.66510008E-04
   7.92119980       3.60196107E-04
   7.93319988       3.52345640E-04
   7.94519997       3.43010819E-04
   7.95720005       3.32255324E-04
   7.96920013       3.20153398E-04
   7.98120022       3.06789181E-04
   7.99319983       2.92255660E-04
   8.00520039       2.76653911E-04
   8.01720047       2.60091852E-04
   8.02919960       2.42683731E-04
   8.04119968       2.24548785E-04
   8.05319977       2.05810691E-04
   8.06519985       1.86596488E-04
   8.07719994       1.67035847E-04
   8.08920002       1.47260231E-04
   8.10120010       1.27401989E-04
   8.11320019       1.07593638E-04
   8.12520027       8.79669096E-05
   8.13720036       6.86518033E-05
   8.14920044       4.97756773E-05
   8.16119957       3.14621611E-05
   8.17319965       1.38300911E-05
   8.18519974      -3.00769830E-06
   8.19719982      -1.89455350E-05
   8.20919991      -3.38861464E-05
   8.22119999      -4.77419017E-05
   8.23320007      -6.04359775E-05
   8.24520016      -7.19034942E-05
   8.25720024      -8.20925052E-05
   8.26920033      -9.09648807E-05
   8.28120041      -9.84969738E-05
   8.29319954      -1.04680046E-04
   8.30519962      -1.09520493E-04
   8.31719971      -1.13039787E-04
   8.32919979      -1.15274073E-04
   8.34119987      -1.16273564E-04
   8.35319996      -1.16101590E-04
   8.36520004      -1.14833405E-04
   8.37720013      -1.12554764E-04
   8.38920021      -1.09360291E-04
   8.40120029      -1.05351646E-04
   8.41320038      -1.00635662E-04
   8.42520046      -9.53222989E-05
   8.43719959      -8.95227276E-05
   8.44919968      -8.33473314E-05
   8.46119976      -7.69039252E-05
   8.47319984      -7.02960388E-05
   8.48519993      -6.36214099E-05
   8.49720001      -5.69707154E-05
   8.50920010      -5.04265336E-05
   8.52120018      -4.40625845E-05
   8.53320026      -3.79431840E-05
   8.54520035      -3.21229891E-05
   8.55720043      -2.66470124E-05
   8.56919956      -2.15507989E-05
   8.58119965      -1.68608749E-05
   8.59319973      -1.25953202E-05
   8.60519981      -8.76450758E-06
   8.61719990      -5.37191727E-06
   8.62919998      -2.41505245E-06
   8.64120007       1.13648071E-07
   8.65320015       2.22587960E-06
   8.66520023       3.93657774E-06
   8.67720032       5.26307849E-06
   8.68920040       6.22434163E-06
   8.70119953       6.84026918E-06
   8.71319962       7.13111740E-06
   8.72519970       7.11701568E-06
   8.73719978       6.81760775E-06
   8.74919987       6.25181065E-06
   8.76119995       5.43770102E-06
   8.77320004       4.39252199E-06
   8.78520012       3.13281112E-06
   8.79720020       1.67462281E-06
   8.80920029       3.38435697E-08
   8.82120037      -1.77342838E-06
   8.83320045      -3.73045759E-06
   8.84519958      -5.81943232E-06
   8.85719967      -8.02102659E-06
   8.86919975      -1.03139928E-05
   8.88119984      -1.26748173E-05
   8.89319992      -1.50774576E-05
   8.90520000      -1.74931920E-05
   8.91720009      -1.98905873E-05
   8.92920017      -2.22356448E-05
   8.94120026      -2.44920666E-05
   8.95320034      -2.66217266E-05
   8.96520042      -2.85852620E-05
   8.97719955      -3.03428351E-05
   8.98919964      -3.18549937E-05
   9.00119972      -3.30836447E-05
   9.01319981      -3.39930593E-05
   9.02519989      -3.45509361E-05
   9.03719997      -3.47294008E-05
   9.04920006      -3.45060289E-05
   9.06120014      -3.38646823E-05
   9.07320023      -3.27962844E-05
   9.08520031      -3.12994125E-05
   9.09720039      -2.93806952E-05
   9.10919952      -2.70549845E-05
   9.12119961      -2.43453360E-05
   9.13319969      -2.12827053E-05
   9.14519978      -1.79054568E-05
   9.15719986      -1.42586487E-05
   9.16919994      -1.03931116E-05
   9.18120003      -6.36441018E-06
   9.19320011      -2.23164284E-06
   9.20520020       1.94380914E-06
   9.21720028       6.09958533E-06
   9.22920036       1.01736459E-05
   9.24120045       1.41055261E-05
   9.25319958       1.78375176E-05
   9.26519966       2.13157291E-05
   9.27719975       2.44910243E-05
   9.28919983       2.73197838E-05
   9.30119991       2.97645165E-05
   9.31320000       3.17942868E-05
   9.32520008       3.33849821E-05
   9.33720016       3.45194203E-05
   9.34920025       3.51873241E-05
   9.36120033       3.53851647E-05
   9.37320042       3.51159069E-05
   9.38519955       3.43886750E-05
   9.39719963       3.32183590E-05
   9.40919971       3.16251499E-05
   9.42119980       2.96340586E-05
   9.43319988       2.72744110E-05
   9.44519997       2.45793290E-05
