 -0.622799993       0.00000000    
 -0.610800028       0.00000000    
 -0.598800004       0.00000000    
 -0.586799979       0.00000000    
 -0.574800014       0.00000000    
 -0.562799990       0.00000000    
 -0.550800025       0.00000000    
 -0.538800001       0.00000000    
 -0.526799977       0.00000000    
 -0.514800012       0.00000000    
 -0.502799988      -1.45941079E-34
 -0.490799993      -2.43480567E-33
 -0.478799999      -2.11675397E-32
 -0.466800004      -1.28149773E-31
 -0.454800010      -6.07657934E-31
 -0.442799985      -2.39631294E-30
 -0.430799991      -8.10491732E-30
 -0.418799996      -2.38023320E-29
 -0.406800002      -6.05856935E-29
 -0.394800007      -1.31417840E-28
 -0.382800013      -2.32416002E-28
 -0.370799989      -2.94112156E-28
 -0.358799994      -1.06058819E-28
 -0.346799999       7.06409629E-28
 -0.334800005       2.40634566E-27
 -0.322800010       4.09213352E-27
 -0.310799986       1.30308035E-27
 -0.298799992      -1.77271636E-26
 -0.286799997      -7.52691140E-26
 -0.274800003      -2.01106911E-25
 -0.262800008      -4.12967525E-25
 -0.250800014      -6.67728700E-25
 -0.238800004      -7.78006130E-25
 -0.226799995      -3.14369428E-25
 -0.214800000       1.43750741E-24
 -0.202800006       5.33239167E-24
 -0.190799996       1.18599794E-23
 -0.178800002       2.01513004E-23
 -0.166800007       2.65863038E-23
 -0.154799998       2.35268157E-23
 -0.142800003      -7.07554442E-25
 -0.130799994      -5.90020499E-23
 -0.118799999      -1.58188611E-22
 -0.106799997      -2.87013851E-22
  -9.48000029E-02  -4.01753202E-22
  -8.28000009E-02  -4.16034563E-22
  -7.07999989E-02  -2.05670730E-22
  -5.88000007E-02   3.58932217E-22
  -4.67999987E-02   1.34432167E-21
  -3.48000005E-02   2.65391024E-21
  -2.28000004E-02   3.92257892E-21
  -1.08000003E-02   4.45855560E-21
   1.20000006E-03   3.30474568E-21
   1.31999999E-02  -5.11312527E-22
   2.52000000E-02  -7.51131776E-21
   3.72000001E-02  -1.71439903E-20
   4.91999984E-02  -2.71893847E-20
   6.12000003E-02  -3.34931925E-20
   7.32000023E-02  -3.03931780E-20
   8.51999968E-02  -1.21265833E-20
   9.71999988E-02   2.47479935E-20
  0.109200001       7.83135701E-20
  0.121200003       1.38561167E-19
  0.133200005       1.86301560E-19
  0.145199999       1.95149794E-19
  0.157199994       1.37534364E-19
  0.169200003      -5.44538854E-21
  0.181199998      -2.32130558E-19
  0.193200007      -5.09919728E-19
  0.205200002      -7.71058631E-19
  0.217199996      -9.19081413E-19
  0.229200006      -8.48369102E-19
  0.241200000      -4.75481976E-19
  0.253199995       2.23916267E-19
  0.265199989       1.18309865E-18
  0.277200013       2.22989178E-18
  0.289200008       3.10060257E-18
  0.301200002       3.48659441E-18
  0.313199997       3.10797750E-18
  0.325199991       1.79827494E-18
  0.337199986      -4.23432747E-19
  0.349200010      -3.31680276E-18
  0.361200005      -6.43634653E-18
  0.373199999      -9.19875299E-18
  0.385199994      -1.09823843E-17
  0.397199988      -1.12270230E-17
  0.409200013      -9.50227368E-18
  0.421200007      -5.53044520E-18
  0.433200002       8.19110225E-19
  0.445199996       9.51453746E-18
  0.457199991       2.02595756E-17
  0.469199985       3.22596468E-17
  0.481200010       4.38751718E-17
  0.493200004       5.22821227E-17
  0.505200028       5.33643727E-17
  0.517199993       4.21195570E-17
  0.529200017       1.38127573E-17
  0.541199982      -3.40776873E-17
  0.553200006      -9.94055434E-17
  0.565199971      -1.73072694E-16
  0.577199996      -2.37928220E-16
  0.589200020      -2.69961047E-16
  0.601199985      -2.42605086E-16
  0.613200009      -1.34220086E-16
  0.625199974       6.23318443E-17
  0.637199998       3.30367440E-16
  0.649200022       6.23658712E-16
  0.661199987       8.67857676E-16
  0.673200011       9.71668234E-16
  0.685199976       8.48116938E-16
  0.697200000       4.43016998E-16
  0.709200025      -2.35790732E-16
  0.721199989      -1.09749487E-15
  0.733200014      -1.96532735E-15
  0.745199978      -2.59879894E-15
  0.757200003      -2.74283033E-15
  0.769200027      -2.19748849E-15
  0.781199992      -8.93541938E-16
  0.793200016       1.04733019E-15
  0.805199981       3.29044179E-15
  0.817200005       5.32173564E-15
  0.829200029       6.54266926E-15
  0.841199994       6.41471858E-15
  0.853200018       4.62379912E-15
  0.865199983       1.22142246E-15
  0.877200007      -3.30413873E-15
  0.889199972      -8.06334708E-15
  0.901199996      -1.19206496E-14
  0.913200021      -1.37496554E-14
  0.925199986      -1.27344839E-14
  0.937200010      -8.63901608E-15
  0.949199975      -1.96035527E-15
  0.961199999       6.09780586E-15
  0.973200023       1.38532891E-14
  0.985199988       1.95387868E-14
  0.997200012       2.17675880E-14
   1.00919998       1.99413155E-14
   1.02119994       1.44667247E-14
   1.03320003       6.68810397E-15
   1.04519999      -1.48150869E-15
   1.05719995      -8.15151644E-15
   1.06920004      -1.21018968E-14
   1.08120000      -1.32751518E-14
   1.09319997      -1.29133053E-14
   1.10520005      -1.32245865E-14
   1.11720002      -1.66023625E-14
   1.12919998      -2.45764746E-14
   1.14119995      -3.68064208E-14
   1.15320003      -5.04791081E-14
   1.16520000      -6.04197681E-14
   1.17719996      -6.00596911E-14
   1.18920004      -4.31611737E-14
   1.20120001      -5.94061772E-15
   1.21319997       5.09665620E-14
   1.22520006       1.21318916E-13
   1.23720002       1.93367214E-13
   1.24919999       2.51463726E-13
   1.26119995       2.79015580E-13
   1.27320004       2.62213808E-13
   1.28520000       1.93676536E-13
   1.29719996       7.50611731E-14
   1.30920005      -8.21240997E-14
   1.32120001      -2.57867322E-13
   1.33319998      -4.26963478E-13
   1.34519994      -5.63551701E-13
   1.35720003      -6.45771956E-13
   1.36919999      -6.59362864E-13
   1.38119996      -5.99299039E-13
   1.39320004      -4.69134497E-13
   1.40520000      -2.78429189E-13
   1.41719997      -3.92746308E-14
   1.42920005       2.36708168E-13
   1.44120002       5.39596742E-13
   1.45319998       8.59849518E-13
   1.46519995       1.18454443E-12
   1.47720003       1.49226193E-12
   1.48920000       1.74849729E-12
   1.50119996       1.90381608E-12
   1.51320004       1.89665232E-12
   1.52520001       1.66168349E-12
   1.53719997       1.14328555E-12
   1.54920006       3.12012704E-13
   1.56120002      -8.19235142E-13
   1.57319999      -2.18329456E-12
   1.58519995      -3.65472930E-12
   1.59720004      -5.05616772E-12
   1.60920000      -6.17551019E-12
   1.62119997      -6.79233319E-12
   1.63320005      -6.70981977E-12
   1.64520001      -5.78724568E-12
   1.65719998      -3.96776102E-12
   1.66919994      -1.29694302E-12
   1.68120003       2.07075004E-12
   1.69319999       5.87844183E-12
   1.70519996       9.78499139E-12
   1.71720004       1.33921320E-11
   1.72920001       1.62772157E-11
   1.74119997       1.80283843E-11
   1.75320005       1.82798429E-11
   1.76520002       1.67459848E-11
   1.77719998       1.32539422E-11
   1.78919995       7.77428816E-12
   1.80120003       4.48903040E-13
   1.81320000      -8.38637233E-12
   1.82519996      -1.81884872E-11
   1.83720005      -2.82089248E-11
   1.84920001      -3.75166044E-11
   1.86119998      -4.50471292E-11
   1.87320006      -4.96809330E-11
   1.88520002      -5.03487807E-11
   1.89719999      -4.61580704E-11
   1.90919995      -3.65283220E-11
   1.92120004      -2.13202806E-11
   1.93320000      -9.40845600E-13
   1.94519997       2.35934935E-11
   1.95720005       5.06491793E-11
   1.96920002       7.80332673E-11
   1.98119998       1.03118666E-10
   1.99319994       1.23032390E-10
   2.00519991       1.34895192E-10
   2.01719999       1.36095996E-10
   2.02920008       1.24580332E-10
   2.04119992       9.91301971E-11
   2.05320001       5.96121000E-11
   2.06520009       7.16974397E-12
   2.07719994      -5.56608717E-11
   2.08920002      -1.24935604E-10
   2.10120010      -1.95404665E-10
   2.11319995      -2.60748978E-10
   2.12520003      -3.13958720E-10
   2.13720012      -3.47852441E-10
   2.14919996      -3.55719398E-10
   2.16120005      -3.32051081E-10
   2.17319989      -2.73305878E-10
   2.18519998      -1.78633996E-10
   2.19720006      -5.04735906E-11
   2.20919991       1.05075053E-10
   2.22119999       2.78185808E-10
   2.23320007       4.55620819E-10
   2.24519992       6.21458551E-10
   2.25720000       7.58226648E-10
   2.26920009       8.48381698E-10
   2.28119993       8.76027806E-10
   2.29320002       8.28723978E-10
   2.30520010       6.99200087E-10
   2.31719995       4.86793106E-10
   2.32920003       1.98422639E-10
   2.34120011      -1.51041624E-10
   2.35319996      -5.39120359E-10
   2.36520004      -9.36811961E-10
   2.37719989      -1.31039757E-09
   2.38919997      -1.62386804E-09
   2.40120006      -1.84181481E-09
   2.41319990      -1.93257965E-09
   2.42519999      -1.87141724E-09
   2.43720007      -1.64340963E-09
   2.44919991      -1.24586708E-09
   2.46120000      -6.89966639E-10
   2.47320008      -1.41787818E-12
   2.48519993       7.80008280E-10
   2.49720001       1.60217029E-09
   2.50920010       2.40346898E-09
   2.52119994       3.11688186E-09
   2.53320003       3.67491793E-09
   2.54520011       4.01518507E-09
   2.55719995       4.08617851E-09
   2.56920004       3.85283938E-09
   2.58119988       3.30138117E-09
   2.59319997       2.44291720E-09
   2.60520005       1.31544153E-09
   2.61719990      -1.61714375E-11
   2.62919998      -1.46236800E-09
   2.64120007      -2.91338220E-09
   2.65319991      -4.24586011E-09
   2.66520000      -5.33136291E-09
   2.67720008      -6.04630612E-09
   2.68919992      -6.28273522E-09
   2.70120001      -5.95924465E-09
   2.71320009      -5.03123854E-09
   2.72519994      -3.49971829E-09
   2.73720002      -1.41779510E-09
   2.74920011       1.10581821E-09
   2.76119995       3.90692945E-09
   2.77320004       6.77001477E-09
   2.78520012       9.43654577E-09
   2.79719996       1.16173258E-08
   2.80920005       1.30083286E-08
   2.82119989       1.33091156E-08
   2.83319998       1.22425394E-08
   2.84520006       9.57409885E-09
   2.85719991       5.12897858E-09
   2.86919999      -1.19532040E-09
   2.88120008      -9.42292999E-09
   2.89319992      -1.95021652E-08
   2.90520000      -3.13183790E-08
   2.91720009      -4.47183233E-08
   2.92919993      -5.95465295E-08
   2.94120002      -7.56933929E-08
   2.95320010      -9.31537230E-08
   2.96519995      -1.12093574E-07
   2.97720003      -1.32922196E-07
   2.98920012      -1.56365232E-07
   3.00119996      -1.83534439E-07
   3.01320004      -2.15989061E-07
   3.02519989      -2.55783675E-07
   3.03719997      -3.05497394E-07
   3.04920006      -3.68240649E-07
   3.06119990      -4.47635131E-07
   3.07319999      -5.47765865E-07
   3.08520007      -6.73103727E-07
   3.09719992      -8.28399834E-07
   3.10920000      -1.01855471E-06
   3.12120008      -1.24846565E-06
   3.13319993      -1.52286088E-06
   3.14520001      -1.84612350E-06
   3.15720010      -2.22211884E-06
   3.16919994      -2.65403014E-06
   3.18120003      -3.14421118E-06
   3.19320011      -3.69406666E-06
   3.20519996      -4.30396358E-06
   3.21720004      -4.97318115E-06
   3.22919989      -5.69989788E-06
   3.24119997      -6.48122295E-06
   3.25320005      -7.31326372E-06
   3.26519990      -8.19122852E-06
   3.27719998      -9.10955896E-06
   3.28920007      -1.00620809E-05
   3.30119991      -1.10421743E-05
   3.31320000      -1.20429413E-05
   3.32520008      -1.30573726E-05
   3.33719993      -1.40785096E-05
   3.34920001      -1.50995802E-05
   3.36120009      -1.61141161E-05
   3.37319994      -1.71160555E-05
   3.38520002      -1.80997977E-05
   3.39720011      -1.90602659E-05
   3.40919995      -1.99929254E-05
   3.42120004      -2.08937890E-05
   3.43319988      -2.17594206E-05
   3.44519997      -2.25869226E-05
   3.45720005      -2.33739138E-05
   3.46919990      -2.41185280E-05
   3.48119998      -2.48193955E-05
   3.49320006      -2.54756451E-05
   3.50519991      -2.60868837E-05
   3.51719999      -2.66532279E-05
   3.52920008      -2.71752924E-05
   3.54119992      -2.76542014E-05
   3.55320001      -2.80915938E-05
   3.56520009      -2.84896141E-05
   3.57719994      -2.88508982E-05
   3.58920002      -2.91785527E-05
   3.60120010      -2.94761066E-05
   3.61319995      -2.97474580E-05
   3.62520003      -2.99967978E-05
   3.63720012      -3.02285389E-05
   3.64919996      -3.04472032E-05
   3.66120005      -3.06573311E-05
   3.67319989      -3.08633607E-05
   3.68519998      -3.10695323E-05
   3.69720006      -3.12797565E-05
   3.70919991      -3.14975368E-05
   3.72119999      -3.17258491E-05
   3.73320007      -3.19670908E-05
   3.74519992      -3.22229862E-05
   3.75720000      -3.24945613E-05
   3.76920009      -3.27821108E-05
   3.78119993      -3.30851944E-05
   3.79320002      -3.34026554E-05
   3.80520010      -3.37326746E-05
   3.81719995      -3.40728220E-05
   3.82920003      -3.44201762E-05
   3.84120011      -3.47714049E-05
   3.85319996      -3.51229282E-05
   3.86520004      -3.54710355E-05
   3.87719989      -3.58120742E-05
   3.88919997      -3.61425955E-05
   3.90120006      -3.64595398E-05
   3.91319990      -3.67603643E-05
   3.92519999      -3.70432208E-05
   3.93720007      -3.73070470E-05
   3.94919991      -3.75516829E-05
   3.96120000      -3.77779033E-05
   3.97320008      -3.79874509E-05
   3.98519993      -3.81829814E-05
   3.99720001      -3.83680053E-05
   4.00920010      -3.85467465E-05
   4.02120018      -3.87239816E-05
   4.03319979      -3.89048364E-05
   4.04519987      -3.90945424E-05
   4.05719995      -3.92982074E-05
   4.06920004      -3.95205716E-05
   4.08120012      -3.97657386E-05
   4.09320021      -4.00370081E-05
   4.10519981      -4.03366575E-05
   4.11719990      -4.06658510E-05
   4.12919998      -4.10245520E-05
   4.14120007      -4.14115311E-05
   4.15320015      -4.18244053E-05
   4.16520023      -4.22597695E-05
   4.17719984      -4.27133746E-05
   4.18919992      -4.31803455E-05
   4.20120001      -4.36554292E-05
   4.21320009      -4.41332704E-05
   4.22520018      -4.46087033E-05
   4.23719978      -4.50769803E-05
   4.24919987      -4.55340341E-05
   4.26119995      -4.59766597E-05
   4.27320004      -4.64026489E-05
   4.28520012      -4.68108847E-05
   4.29720020      -4.72013744E-05
   4.30919981      -4.75752022E-05
   4.32119989      -4.79344599E-05
   4.33319998      -4.82821233E-05
   4.34520006      -4.86218778E-05
   4.35720015      -4.89579652E-05
   4.36920023      -4.92949548E-05
   4.38119984      -4.96375978E-05
   4.39319992      -4.99906346E-05
   4.40520000      -5.03586562E-05
   4.41720009      -5.07460136E-05
   4.42920017      -5.11567123E-05
   4.44119978      -5.15944157E-05
   4.45319986      -5.20624089E-05
   4.46519995      -5.25636606E-05
   4.47720003      -5.31008482E-05
   4.48920012      -5.36764237E-05
   4.50120020      -5.42926646E-05
   4.51319981      -5.49517390E-05
   4.52519989      -5.56557134E-05
   4.53719997      -5.64065667E-05
   4.54920006      -5.72061581E-05
   4.56120014      -5.80561464E-05
   4.57320023      -5.89579140E-05
   4.58519983      -5.99123923E-05
   4.59719992      -6.09199269E-05
   4.60920000      -6.19800849E-05
   4.62120008      -6.30914801E-05
   4.63320017      -6.42515879E-05
   4.64519978      -6.54565883E-05
   4.65719986      -6.67012573E-05
   4.66919994      -6.79788791E-05
   4.68120003      -6.92812682E-05
   4.69320011      -7.05987695E-05
   4.70520020      -7.19204181E-05
   4.71719980      -7.32340850E-05
   4.72919989      -7.45267316E-05
   4.74119997      -7.57847447E-05
   4.75320005      -7.69942271E-05
   4.76520014      -7.81414201E-05
   4.77720022      -7.92130668E-05
   4.78919983      -8.01968126E-05
   4.80119991      -8.10815982E-05
   4.81320000      -8.18579938E-05
   4.82520008      -8.25185125E-05
   4.83720016      -8.30578792E-05
   4.84919977      -8.34732054E-05
   4.86119986      -8.37641492E-05
   4.87319994      -8.39329732E-05
   4.88520002      -8.39845670E-05
   4.89720011      -8.39263885E-05
   4.90920019      -8.37683838E-05
   4.92119980      -8.35228711E-05
   4.93319988      -8.32043297E-05
   4.94519997      -8.28292614E-05
   4.95720005      -8.24159652E-05
   4.96920013      -8.19843335E-05
   4.98120022      -8.15556123E-05
   4.99319983      -8.11522114E-05
   5.00519991      -8.07974429E-05
   5.01719999      -8.05153104E-05
   5.02920008      -8.03302028E-05
   5.04120016      -8.02666254E-05
   5.05319977      -8.03488510E-05
   5.06519985      -8.06005191E-05
   5.07719994      -8.10442434E-05
   5.08920002      -8.17010368E-05
   5.10120010      -8.25897660E-05
   5.11320019      -8.37265325E-05
   5.12519979      -8.51239311E-05
   5.13719988      -8.67903073E-05
   5.14919996      -8.87290007E-05
   5.16120005      -9.09374867E-05
   5.17320013      -9.34065756E-05
   5.18520021      -9.61195983E-05
   5.19719982      -9.90517365E-05
   5.20919991      -1.02169273E-04
   5.22119999      -1.05429135E-04
   5.23320007      -1.08778455E-04
   5.24520016      -1.12154368E-04
   5.25719976      -1.15483963E-04
   5.26919985      -1.18684511E-04
   5.28119993      -1.21663856E-04
   5.29320002      -1.24321130E-04
   5.30520010      -1.26547660E-04
   5.31720018      -1.28228174E-04
   5.32919979      -1.29242180E-04
   5.34119987      -1.29465698E-04
   5.35319996      -1.28773070E-04
   5.36520004      -1.27039093E-04
   5.37720013      -1.24141137E-04
   5.38920021      -1.19961478E-04
   5.40119982      -1.14389703E-04
   5.41319990      -1.07324980E-04
   5.42519999      -9.86784507E-05
   5.43720007      -8.83754328E-05
   5.44920015      -7.63574863E-05
   5.46120024      -6.25843168E-05
   5.47319984      -4.70353989E-05
   5.48519993      -2.97113984E-05
   5.49720001      -1.06352309E-05
   5.50920010       1.01471833E-05
   5.52120018       3.25664987E-05
   5.53319979       5.65298687E-05
   5.54519987       8.19212364E-05
   5.55719995       1.08601940E-04
   5.56920004       1.36411676E-04
   5.58120012       1.65169753E-04
   5.59320021       1.94676701E-04
   5.60519981       2.24716103E-04
   5.61719990       2.55056686E-04
   5.62919998       2.85454618E-04
   5.64120007       3.15656071E-04
   5.65320015       3.45400040E-04
   5.66520023       3.74420924E-04
   5.67719984       4.02451842E-04
   5.68919992       4.29227483E-04
   5.70120001       4.54487250E-04
   5.71320009       4.77978640E-04
   5.72520018       4.99460206E-04
   5.73719978       5.18704997E-04
   5.74919987       5.35503204E-04
   5.76119995       5.49665652E-04
   5.77320004       5.61026332E-04
   5.78520012       5.69444790E-04
   5.79720020       5.74809033E-04
   5.80919981       5.77037164E-04
   5.82119989       5.76079241E-04
   5.83319998       5.71918674E-04
   5.84520006       5.64572925E-04
   5.85720015       5.54094207E-04
   5.86920023       5.40568959E-04
   5.88119984       5.24117786E-04
   5.89319992       5.04893658E-04
   5.90520000       4.83080832E-04
   5.91720009       4.58892318E-04
   5.92920017       4.32567234E-04
   5.94119978       4.04367864E-04
   5.95319986       3.74575902E-04
   5.96519995       3.43488820E-04
   5.97720003       3.11415613E-04
   5.98920012       2.78672640E-04
   6.00120020       2.45579111E-04
   6.01319981       2.12452796E-04
   6.02519989       1.79605675E-04
   6.03719997       1.47339699E-04
   6.04920006       1.15942865E-04
   6.06120014       8.56854967E-05
   6.07320023       5.68168543E-05
   6.08519983       2.95621849E-05
   6.09719992       4.12013287E-06
   6.10920000      -1.93393844E-05
   6.12120008      -4.06767831E-05
   6.13320017      -5.97839680E-05
   6.14519978      -7.65849400E-05
   6.15719986      -9.10359449E-05
   6.16919994      -1.03125109E-04
   6.18120003      -1.12871567E-04
   6.19320011      -1.20324185E-04
   6.20520020      -1.25559745E-04
   6.21719980      -1.28680840E-04
   6.22919989      -1.29813343E-04
   6.24119997      -1.29103530E-04
   6.25320005      -1.26714993E-04
   6.26520014      -1.22825353E-04
   6.27720022      -1.17622825E-04
   6.28919983      -1.11302666E-04
   6.30119991      -1.04063693E-04
   6.31320000      -9.61048281E-05
   6.32520008      -8.76217309E-05
   6.33720016      -7.88037141E-05
   6.34919977      -6.98307485E-05
   6.36119986      -6.08708942E-05
   6.37319994      -5.20779577E-05
   6.38520002      -4.35895527E-05
   6.39720011      -3.55255579E-05
   6.40920019      -2.79869328E-05
   6.42119980      -2.10550043E-05
   6.43319988      -1.47911451E-05
   6.44519997      -9.23687367E-06
   6.45720005      -4.41434804E-06
   6.46920013      -3.27250348E-07
   6.48120022       3.03796946E-06
   6.49319983       5.71052851E-06
   6.50519991       7.73345528E-06
   6.51719999       9.16149838E-06
   6.52920008       1.00588341E-05
   6.54120016       1.04966557E-05
   6.55319977       1.05506833E-05
   6.56519985       1.02986742E-05
   6.57719994       9.81798712E-06
   6.58920002       9.18327805E-06
   6.60120010       8.46437433E-06
   6.61320019       7.72438398E-06
   6.62519979       7.01809631E-06
   6.63719988       6.39070413E-06
   6.64919996       5.87688010E-06
   6.66120005       5.50023151E-06
   6.67320013       5.27313796E-06
   6.68520021       5.19696187E-06
   6.69719982       5.26262738E-06
   6.70919991       5.45152761E-06
   6.72119999       5.73672560E-06
   6.73320007       6.08440723E-06
   6.74520016       6.45552291E-06
   6.75719976       6.80756739E-06
   6.76919985       7.09643973E-06
   6.78119993       7.27831639E-06
   6.79320002       7.31148020E-06
   6.80520010       7.15805345E-06
   6.81720018       6.78557080E-06
   6.82919979       6.16835541E-06
   6.84119987       5.28865530E-06
   6.85319996       4.13750922E-06
   6.86520004       2.71533463E-06
   6.87720013       1.03221873E-06
   6.88920021      -8.92072649E-07
   6.90119982      -3.02836224E-06
   6.91319990      -5.33858565E-06
   6.92519999      -7.77654714E-06
   6.93720007      -1.02888880E-05
   6.94920015      -1.28162383E-05
   6.96120024      -1.52945231E-05
   6.97319984      -1.76564063E-05
   6.98519993      -1.98328271E-05
   6.99720001      -2.17546185E-05
   7.00920010      -2.33541850E-05
   7.02120018      -2.45671781E-05
   7.03319979      -2.53341914E-05
   7.04519987      -2.56024086E-05
   7.05719995      -2.53271919E-05
   7.06920004      -2.44735929E-05
   7.08120012      -2.30177247E-05
   7.09320021      -2.09479713E-05
   7.10519981      -1.82659805E-05
   7.11719990      -1.49874159E-05
   7.12919998      -1.11424106E-05
   7.14120007      -6.77566504E-06
   7.15320015      -1.94618997E-06
   7.16520023       3.27334851E-06
   7.17719984       8.79768868E-06
   7.18919992       1.45304257E-05
   7.20120001       2.03658437E-05
   7.21320009       2.61910827E-05
   7.22520018       3.18886014E-05
   7.23719978       3.73388611E-05
   7.24919987       4.24231694E-05
   7.26119995       4.70265768E-05
   7.27320004       5.10407845E-05
   7.28520012       5.43669084E-05
   7.29720020       5.69180738E-05
   7.30919981       5.86217066E-05
   7.32119989       5.94215126E-05
   7.33319998       5.92789947E-05
   7.34520006       5.81745699E-05
   7.35720015       5.61082088E-05
   7.36920023       5.30995712E-05
   7.38119984       4.91877254E-05
   7.39319992       4.44303660E-05
   7.40520000       3.89026609E-05
   7.41720009       3.26957670E-05
   7.42920017       2.59149820E-05
   7.44119978       1.86776797E-05
   7.45319986       1.11110685E-05
   7.46519995       3.34980314E-06
   7.47720003      -4.46647664E-06
   7.48920012      -1.21956273E-05
   7.50120020      -1.96954752E-05
   7.51319981      -2.68262393E-05
   7.52519989      -3.34528922E-05
   7.53719997      -3.94474191E-05
   7.54920006      -4.46909980E-05
   7.56120014      -4.90760685E-05
   7.57320023      -5.25082723E-05
   7.58519983      -5.49082833E-05
   7.59719992      -5.62134846E-05
   7.60920000      -5.63794820E-05
   7.62120008      -5.53814243E-05
   7.63320017      -5.32150552E-05
   7.64519978      -4.98975423E-05
   7.65719986      -4.54678921E-05
   7.66919994      -3.99870478E-05
   7.68120003      -3.35375225E-05
   7.69320011      -2.62225713E-05
   7.70520020      -1.81648502E-05
   7.71719980      -9.50454523E-06
   7.72919989      -3.97014787E-07
   7.74119997       8.99010138E-06
   7.75320005       1.84802011E-05
   7.76520014       2.78914140E-05
   7.77720022       3.70405978E-05
   7.78919983       4.57474962E-05
   7.80119991       5.38389504E-05
   7.81320000       6.11530486E-05
   7.82520008       6.75430128E-05
   7.83720016       7.28808300E-05
   7.84919977       7.70603001E-05
   7.86119986       7.99996269E-05
   7.87319994       8.16433312E-05
   7.88520002       8.19634442E-05
   7.89720011       8.09600097E-05
   7.90920019       7.86608507E-05
   7.92119980       7.51205953E-05
   7.93319988       7.04190898E-05
   7.94519997       6.46592234E-05
   7.95720005       5.79641710E-05
   7.96920013       5.04743293E-05
   7.98120022       4.23439014E-05
   7.99319983       3.37372694E-05
   8.00520039       2.48252945E-05
   8.01720047       1.57816121E-05
   8.02919960       6.77903063E-06
   8.04119968      -2.01392777E-06
   8.05319977      -1.04362543E-05
   8.06519985      -1.83374050E-05
   8.07719994      -2.55799241E-05
   8.08920002      -3.20417348E-05
   8.10120010      -3.76180251E-05
   8.11320019      -4.22227749E-05
   8.12520027      -4.57898423E-05
   8.13720036      -4.82736832E-05
   8.14920044      -4.96496468E-05
   8.16119957      -4.99139132E-05
   8.17319965      -4.90830244E-05
   8.18519974      -4.71931198E-05
   8.19719982      -4.42987803E-05
   8.20919991      -4.04716338E-05
   8.22119999      -3.57986646E-05
   8.23320007      -3.03802881E-05
   8.24520016      -2.43282248E-05
   8.25720024      -1.77632446E-05
   8.26920033      -1.08127833E-05
   8.28120041      -3.60849049E-06
   8.29319954       3.71620922E-06
   8.30519962       1.10285446E-05
   8.31719971       1.81987525E-05
   8.32919979       2.51023266E-05
   8.34119987       3.16221267E-05
   8.35319996       3.76503340E-05
   8.36520004       4.30901928E-05
   8.37720013       4.78575603E-05
   8.38920021       5.18822053E-05
   8.40120029       5.51088306E-05
   8.41320038       5.74978476E-05
   8.42520046       5.90258314E-05
   8.43719959       5.96857135E-05
   8.44919968       5.94866397E-05
   8.46119976       5.84535774E-05
   8.47319984       5.66265990E-05
   8.48519993       5.40599358E-05
   8.49720001       5.08207231E-05
   8.50920010       4.69875449E-05
   8.52120018       4.26487422E-05
   8.53320026       3.79005469E-05
   8.54520035       3.28450878E-05
   8.55720043       2.75882630E-05
   8.56919956       2.22376202E-05
   8.58119965       1.69002251E-05
   8.59319973       1.16806132E-05
   8.60519981       6.67883523E-06
   8.61719990       1.98867542E-06
   8.62919998      -2.30395199E-06
   8.64120007      -6.12239592E-06
   8.65320015      -9.40042810E-06
   8.66520023      -1.20831701E-05
   8.67720032      -1.41277815E-05
   8.68920040      -1.55038924E-05
   8.70119953      -1.61938315E-05
   8.71319962      -1.61926218E-05
   8.72519970      -1.55077942E-05
   8.73719978      -1.41590235E-05
   8.74919987      -1.21776247E-05
   8.76119995      -9.60591478E-06
   8.77320004      -6.49644517E-06
   8.78520012      -2.91114065E-06
   8.79720020       1.07969470E-06
   8.80920029       5.39847679E-06
   8.82120037       9.96156905E-06
   8.83320045       1.46806333E-05
   8.84519958       1.94640925E-05
   8.85719967       2.42187252E-05
   8.86919975       2.88513311E-05
   8.88119984       3.32704913E-05
   8.89319992       3.73883813E-05
   8.90520000       4.11225701E-05
   8.91720009       4.43978424E-05
   8.92920017       4.71478961E-05
   8.94120026       4.93169719E-05
   8.95320034       5.08612720E-05
   8.96520042       5.17501539E-05
   8.97719955       5.19670612E-05
   8.98919964       5.15100946E-05
   9.00119972       5.03922165E-05
   9.01319981       4.86410754E-05
   9.02519989       4.62984390E-05
   9.03719997       4.34192261E-05
   9.04920006       4.00701792E-05
   9.06120014       3.63282343E-05
   9.07320023       3.22785927E-05
   9.08520031       2.80125714E-05
   9.09720039       2.36252945E-05
   9.10919952       1.92132993E-05
   9.12119961       1.48721110E-05
   9.13319969       1.06938533E-05
   9.14519978       6.76498667E-06
   9.15719986       3.16422825E-06
   9.16919994      -3.93000299E-08
   9.18120003      -2.78762218E-06
   9.19320011      -5.03513184E-06
   9.20520020      -6.74946205E-06
   9.21720028      -7.91198090E-06
   9.22920036      -8.51791174E-06
   9.24120045      -8.57608211E-06
   9.25319958      -8.10830898E-06
   9.26519966      -7.14844100E-06
   9.27719975      -5.74108572E-06
   9.28919983      -3.94005474E-06
   9.30119991      -1.80656900E-06
   9.31320000       5.92723325E-07
   9.32520008       3.18785555E-06
   9.33720016       5.90771288E-06
   9.34920025       8.68219558E-06
   9.36120033       1.14442992E-05
   9.37320042       1.41320415E-05
   9.38519955       1.66901827E-05
   9.39719963       1.90716655E-05
   9.40919971       2.12387276E-05
   9.42119980       2.31636641E-05
   9.43319988       2.48291908E-05
   9.44519997       2.62284157E-05
