 -0.622799993       0.00000000    
 -0.610800028       0.00000000    
 -0.598800004       0.00000000    
 -0.586799979       0.00000000    
 -0.574800014       0.00000000    
 -0.562799990       0.00000000    
 -0.550800025       0.00000000    
 -0.538800001       0.00000000    
 -0.526799977       1.91671330E-37
 -0.514800012      -2.27381426E-32
 -0.502799988      -3.91702083E-31
 -0.490799993      -3.29237536E-30
 -0.478799999      -1.77738673E-29
 -0.466800004      -6.76501791E-29
 -0.454800010      -1.83699844E-28
 -0.442799985      -3.17492874E-28
 -0.430799991      -7.24315951E-29
 -0.418799996       1.76266578E-27
 -0.406800002       7.43642458E-27
 -0.394800007       1.88289774E-26
 -0.382800013       3.21366001E-26
 -0.370799989       2.73340458E-26
 -0.358799994      -4.32084756E-26
 -0.346799999      -2.50657940E-25
 -0.334800005      -6.40605690E-25
 -0.322800010      -1.11091800E-24
 -0.310799986      -1.23120992E-24
 -0.298799992      -1.21414925E-25
 -0.286799997       3.35290931E-24
 -0.274800003       9.73636032E-24
 -0.262800008       1.73359079E-23
 -0.250800014       2.02317200E-23
 -0.238800004       7.45959415E-24
 -0.226799995      -3.40840260E-23
 -0.214800000      -1.10453767E-22
 -0.202800006      -2.04972304E-22
 -0.190799996      -2.61358706E-22
 -0.178800002      -1.78643257E-22
 -0.166800007       1.63341413E-22
 -0.154799998       8.32003847E-22
 -0.142800003       1.72644771E-21
 -0.130799994       2.45791771E-21
 -0.118799999       2.31090292E-21
 -0.106799997       3.97905429E-22
  -9.48000029E-02  -3.90421615E-21
  -8.28000009E-02  -1.02592925E-20
  -7.07999989E-02  -1.66393956E-20
  -5.88000007E-02  -1.90046054E-20
  -4.67999987E-02  -1.19782094E-20
  -3.48000005E-02   9.02819252E-21
  -2.28000004E-02   4.43096679E-20
  -1.08000003E-02   8.59618113E-20
   1.20000006E-03   1.15586548E-19
   1.31999999E-02   1.06252888E-19
   2.52000000E-02   3.09046180E-20
   3.72000001E-02  -1.22649831E-19
   4.91999984E-02  -3.33651753E-19
   6.12000003E-02  -5.34921365E-19
   7.32000023E-02  -6.14591835E-19
   8.51999968E-02  -4.42693932E-19
   9.71999988E-02   7.45122099E-20
  0.109200001       9.22199677E-19
  0.121200003       1.91191900E-18
  0.133200005       2.66125799E-18
  0.145199999       2.65612368E-18
  0.157199994       1.41532081E-18
  0.169200003      -1.26141776E-18
  0.181199998      -5.03196880E-18
  0.193200007      -8.85265318E-18
  0.205200002      -1.10525417E-17
  0.217199996      -9.73420437E-18
  0.229200006      -3.49265971E-18
  0.241200000       7.70463816E-18
  0.253199995       2.17853880E-17
  0.265199989       3.43826522E-17
  0.277200013       3.95344919E-17
  0.289200008       3.13969934E-17
  0.301200002       6.71617263E-18
  0.313199997      -3.26323943E-17
  0.325199991      -7.80596447E-17
  0.337199986      -1.14699736E-16
  0.349200010      -1.24547328E-16
  0.361200005      -9.21529958E-17
  0.373199999      -1.16468246E-17
  0.385199994       1.07149317E-16
  0.397199988       2.36250009E-16
  0.409200013       3.32988160E-16
  0.421200007       3.50292116E-16
  0.433200002       2.52283840E-16
  0.445199996       3.12001708E-17
  0.457199991      -2.80184735E-16
  0.469199985      -6.06653150E-16
  0.481200010      -8.43162271E-16
  0.493200004      -8.81882741E-16
  0.505200028      -6.48282119E-16
  0.517199993      -1.36095060E-16
  0.529200017       5.71365228E-16
  0.541199982       1.30458066E-15
  0.553200006       1.84102992E-15
  0.565199971       1.96421901E-15
  0.577199996       1.53464604E-15
  0.589200020       5.51567897E-16
  0.601199985      -8.16956554E-16
  0.613200009      -2.25210899E-15
  0.625199974      -3.35375263E-15
  0.637199998      -3.74787431E-15
  0.649200022      -3.20361921E-15
  0.661199987      -1.72364481E-15
  0.673200011       4.25085020E-16
  0.685199976       2.75781836E-15
  0.697200000       4.69015568E-15
  0.709200025       5.69757347E-15
  0.721199989       5.46894912E-15
  0.733200014       4.00405942E-15
  0.745199978       1.61966623E-15
  0.757200003      -1.14249996E-15
  0.769200027      -3.67856922E-15
  0.781199992      -5.50175047E-15
  0.793200016      -6.37397756E-15
  0.805199981      -6.33992472E-15
  0.817200005      -5.64802120E-15
  0.829200029      -4.58770281E-15
  0.841199994      -3.31040127E-15
  0.853200018      -1.71754702E-15
  0.865199983       5.17632740E-16
  0.877200007       3.77482393E-15
  0.889199972       8.20239940E-15
  0.901199996       1.34273052E-14
  0.913200021       1.83908759E-14
  0.925199986       2.14245397E-14
  0.937200010       2.06127755E-14
  0.949199975       1.43915929E-14
  0.961199999       2.22965245E-15
  0.973200023      -1.48272338E-14
  0.985199988      -3.39699446E-14
  0.997200012      -5.09458808E-14
   1.00919998      -6.08958684E-14
   1.02119994      -5.95560046E-14
   1.03320003      -4.45328622E-14
   1.04519999      -1.62932022E-14
   1.05719995       2.14555343E-14
   1.06920004       6.21800381E-14
   1.08120000       9.77093027E-14
   1.09319997       1.19954217E-13
   1.10520005       1.22749629E-13
   1.11720002       1.03350732E-13
   1.12919998       6.31879125E-14
   1.14119995       7.67297670E-15
   1.15320003      -5.48954057E-14
   1.16520000      -1.15032821E-13
   1.17719996      -1.63916461E-13
   1.18920004      -1.94886167E-13
   1.20120001      -2.04221161E-13
   1.21319997      -1.91046262E-13
   1.22520006      -1.56504407E-13
   1.23720002      -1.02582907E-13
   1.24919999      -3.11191096E-14
   1.26119995       5.65150513E-14
   1.27320004       1.58748381E-13
   1.28520000       2.72195434E-13
   1.29719996       3.89504482E-13
   1.30920005       4.97409080E-13
   1.32120001       5.75891982E-13
   1.33319998       5.99297033E-13
   1.34519994       5.39882538E-13
   1.35720003       3.73734084E-13
   1.36919999       8.82525932E-14
   1.38119996      -3.10238326E-13
   1.39320004      -7.90673787E-13
   1.40520000      -1.29519550E-12
   1.41719997      -1.74242847E-12
   1.42920005      -2.03675141E-12
   1.44120002      -2.08298027E-12
   1.45319998      -1.80453601E-12
   1.46519995      -1.16203802E-12
   1.47720003      -1.68644829E-13
   1.48920000       1.10138613E-12
   1.50119996       2.51352454E-12
   1.51320004       3.88417770E-12
   1.52520001       5.00137518E-12
   1.53719997       5.65219399E-12
   1.54920006       5.65293081E-12
   1.56120002       4.87758098E-12
   1.57319999       3.28067217E-12
   1.58519995       9.11723605E-13
   1.59720004      -2.07987035E-12
   1.60920000      -5.44927428E-12
   1.62119997      -8.86886398E-12
   1.63320005      -1.19478490E-11
   1.64520001      -1.42581441E-11
   1.65719998      -1.53665865E-11
   1.66919994      -1.48740915E-11
   1.68120003      -1.24621129E-11
   1.69319999      -7.94536659E-12
   1.70519996      -1.32735381E-12
   1.71720004       7.14780925E-12
   1.72920001       1.69566115E-11
   1.74119997       2.72814427E-11
   1.75320005       3.70307084E-11
   1.76520002       4.49017420E-11
   1.77719998       4.94892981E-11
   1.78919995       4.94354176E-11
   1.80120003       4.36086584E-11
   1.81320000       3.12936309E-11
   1.82519996       1.23666060E-11
   1.83720005      -1.25689676E-11
   1.84920001      -4.21114116E-11
   1.86119998      -7.40730949E-11
   1.87320006      -1.05585964E-10
   1.88520002      -1.33299607E-10
   1.89719999      -1.53659724E-10
   1.90919995      -1.63244862E-10
   1.92120004      -1.59132110E-10
   1.93320000      -1.39259840E-10
   1.94519997      -1.02757088E-10
   1.95720005      -5.02166850E-11
   1.96920002       1.61014656E-11
   1.98119998       9.21386023E-11
   1.99319994       1.71969022E-10
   2.00519991       2.47783072E-10
   2.01719999       3.09911347E-10
   2.02920008       3.46892237E-10
   2.04119992       3.45605267E-10
   2.05320001       2.91520197E-10
   2.06520009       1.69139786E-10
   2.07719994      -3.72631891E-11
   2.08920002      -3.42503831E-10
   2.10120010      -7.58838381E-10
   2.11319995      -1.29374989E-09
   2.12520003      -1.94717220E-09
   2.13720012      -2.70824918E-09
   2.14919996      -3.55184016E-09
   2.16120005      -4.43510562E-09
   2.17319989      -5.29461586E-09
   2.18519998      -6.04449601E-09
   2.19720006      -6.57614851E-09
   2.20919991      -6.76001077E-09
   2.22119999      -6.44963949E-09
   2.23320007      -5.48809354E-09
   2.24519992      -3.71615538E-09
   2.25720000      -9.81349557E-10
   2.26920009       2.85400414E-09
   2.28119993       7.90819232E-09
   2.29320002       1.42823504E-08
   2.30520010       2.20736247E-08
   2.31719995       3.14040314E-08
   2.32920003       4.24702193E-08
   2.34120011       5.56194770E-08
   2.35319996       7.14570305E-08
   2.36520004       9.09888414E-08
   2.37719989       1.15802997E-07
   2.38919997       1.48290297E-07
   2.40120006       1.91902814E-07
   2.41319990       2.51445641E-07
   2.42519999       3.33393558E-07
   2.43720007       4.46220838E-07
   2.44919991       6.00728754E-07
   2.46120000       8.10350571E-07
   2.47320008       1.09141308E-06
   2.48519993       1.46332866E-06
   2.49720001       1.94869313E-06
   2.50920010       2.57326474E-06
   2.52119994       3.36579683E-06
   2.53320003       4.35770971E-06
   2.54520011       5.58258489E-06
   2.55719995       7.07546769E-06
   2.56920004       8.87199349E-06
   2.58119988       1.10073242E-05
   2.59319997       1.35149457E-05
   2.60520005       1.64253252E-05
   2.61719990       1.97644913E-05
   2.62919998       2.35525786E-05
   2.64120007       2.78023799E-05
   2.65319991       3.25180154E-05
   2.66520000       3.76936987E-05
   2.67720008       4.33127680E-05
   2.68919992       4.93469634E-05
   2.70120001       5.57560234E-05
   2.71320009       6.24877066E-05
   2.72519994       6.94781702E-05
   2.73720002       7.66527737E-05
   2.74920011       8.39273780E-05
   2.76119995       9.12099349E-05
   2.77320004       9.84026046E-05
   2.78520012       1.05404019E-04
   2.79719996       1.12111949E-04
   2.80920005       1.18426018E-04
   2.82119989       1.24250582E-04
   2.83319998       1.29497494E-04
   2.84520006       1.34088797E-04
   2.85719991       1.37959112E-04
   2.86919999       1.41057782E-04
   2.88120008       1.43350422E-04
   2.89319992       1.44820180E-04
   2.90520000       1.45468322E-04
   2.91720009       1.45314203E-04
   2.92919993       1.44394740E-04
   2.94120002       1.42763267E-04
   2.95320010       1.40487842E-04
   2.96519995       1.37649084E-04
   2.97720003       1.34337562E-04
   2.98920012       1.30651038E-04
   3.00119996       1.26691288E-04
   3.01320004       1.22561018E-04
   3.02519989       1.18360746E-04
   3.03719997       1.14185896E-04
   3.04920006       1.10124129E-04
   3.06119990       1.06253050E-04
   3.07319999       1.02638362E-04
   3.08520007       9.93325375E-05
   3.09719992       9.63740749E-05
   3.10920000       9.37872392E-05
   3.12120008       9.15824421E-05
   3.13319993       8.97571153E-05
   3.14520001       8.82970271E-05
   3.15720010       8.71780358E-05
   3.16919994       8.63681125E-05
   3.18120003       8.58295753E-05
   3.19320011       8.55213948E-05
   3.20519996       8.54015016E-05
   3.21720004       8.54289538E-05
   3.22919989       8.55658582E-05
   3.24119997       8.57790437E-05
   3.25320005       8.60412620E-05
   3.26519990       8.63320456E-05
   3.27719998       8.66380942E-05
   3.28920007       8.69531796E-05
   3.30119991       8.72777018E-05
   3.31320000       8.76177874E-05
   3.32520008       8.79841755E-05
   3.33719993       8.83907414E-05
   3.34920001       8.88530703E-05
   3.36120009       8.93867837E-05
   3.37319994       9.00060913E-05
   3.38520002       9.07223875E-05
   3.39720011       9.15430719E-05
   3.40919995       9.24707128E-05
   3.42120004       9.35024873E-05
   3.43319988       9.46299842E-05
   3.44519997       9.58393794E-05
   3.45720005       9.71119371E-05
   3.46919990       9.84248109E-05
   3.48119998       9.97521347E-05
   3.49320006       1.01066253E-04
   3.50519991       1.02339101E-04
   3.51719999       1.03543651E-04
   3.52920008       1.04655250E-04
   3.54119992       1.05652958E-04
   3.55320001       1.06520631E-04
   3.56520009       1.07247826E-04
   3.57719994       1.07830507E-04
   3.58920002       1.08271357E-04
   3.60120010       1.08579916E-04
   3.61319995       1.08772409E-04
   3.62520003       1.08871260E-04
   3.63720012       1.08904445E-04
   3.64919996       1.08904591E-04
   3.66120005       1.08907916E-04
   3.67319989       1.08953143E-04
   3.68519998       1.09080225E-04
   3.69720006       1.09329114E-04
   3.70919991       1.09738590E-04
   3.72119999       1.10345085E-04
   3.73320007       1.11181667E-04
   3.74519992       1.12277114E-04
   3.75720000       1.13655151E-04
   3.76920009       1.15333889E-04
   3.78119993       1.17325362E-04
   3.79320002       1.19635304E-04
   3.80520010       1.22263096E-04
   3.81719995       1.25201826E-04
   3.82920003       1.28438522E-04
   3.84120011       1.31954468E-04
   3.85319996       1.35725772E-04
   3.86520004       1.39723779E-04
   3.87719989       1.43915735E-04
   3.88919997       1.48265419E-04
   3.90120006       1.52733788E-04
   3.91319990       1.57279646E-04
   3.92519999       1.61860327E-04
   3.93720007       1.66432335E-04
   3.94919991       1.70951942E-04
   3.96120000       1.75375884E-04
   3.97320008       1.79661874E-04
   3.98519993       1.83769196E-04
   3.99720001       1.87659258E-04
   4.00920010       1.91296160E-04
   4.02120018       1.94647102E-04
   4.03319979       1.97682981E-04
   4.04519987       2.00378738E-04
   4.05719995       2.02713811E-04
   4.06920004       2.04672440E-04
   4.08120012       2.06243945E-04
   4.09320021       2.07423000E-04
   4.10519981       2.08209618E-04
   4.11719990       2.08609301E-04
   4.12919998       2.08632817E-04
   4.14120007       2.08296071E-04
   4.15320015       2.07619829E-04
   4.16520023       2.06629149E-04
   4.17719984       2.05353033E-04
   4.18919992       2.03823758E-04
   4.20120001       2.02076189E-04
   4.21320009       2.00147071E-04
   4.22520018       1.98074325E-04
   4.23719978       1.95896268E-04
   4.24919987       1.93650922E-04
   4.26119995       1.91375322E-04
   4.27320004       1.89104918E-04
   4.28520012       1.86873003E-04
   4.29720020       1.84710341E-04
   4.30919981       1.82644770E-04
   4.32119989       1.80701027E-04
   4.33319998       1.78900606E-04
   4.34520006       1.77261783E-04
   4.35720015       1.75799636E-04
   4.36920023       1.74526242E-04
   4.38119984       1.73450811E-04
   4.39319992       1.72580010E-04
   4.40520000       1.71918044E-04
   4.41720009       1.71466905E-04
   4.42920017       1.71226508E-04
   4.44119978       1.71194784E-04
   4.45319986       1.71367574E-04
   4.46519995       1.71738589E-04
   4.47720003       1.72299260E-04
   4.48920012       1.73038468E-04
   4.50120020       1.73942244E-04
   4.51319981       1.74993518E-04
   4.52519989       1.76171932E-04
   4.53719997       1.77453607E-04
   4.54920006       1.78811111E-04
   4.56120014       1.80213450E-04
   4.57320023       1.81626456E-04
   4.58519983       1.83013050E-04
   4.59719992       1.84333825E-04
   4.60920000       1.85547819E-04
   4.62120008       1.86613295E-04
   4.63320017       1.87488622E-04
   4.64519978       1.88133170E-04
   4.65719986       1.88508187E-04
   4.66919994       1.88577527E-04
   4.68120003       1.88308244E-04
   4.69320011       1.87671016E-04
   4.70520020       1.86640274E-04
   4.71719980       1.85194192E-04
   4.72919989       1.83314420E-04
   4.74119997       1.80985749E-04
   4.75320005       1.78195536E-04
   4.76520014       1.74933259E-04
   4.77720022       1.71190011E-04
   4.78919983       1.66958285E-04
   4.80119991       1.62231896E-04
   4.81320000       1.57006187E-04
   4.82520008       1.51278713E-04
   4.83720016       1.45050100E-04
   4.84919977       1.38325413E-04
   4.86119986       1.31115652E-04
   4.87319994       1.23439459E-04
   4.88520002       1.15324947E-04
   4.89720011       1.06811269E-04
   4.90920019       9.79500983E-05
   4.92119980       8.88065624E-05
   4.93319988       7.94596417E-05
   4.94519997       7.00019009E-05
   4.95720005       6.05384630E-05
   4.96920013       5.11851031E-05
   4.98120022       4.20656797E-05
   4.99319983       3.33087082E-05
   5.00519991       2.50435096E-05
   5.01719999       1.73958233E-05
   5.02920008       1.04832989E-05
   5.04120016       4.41099837E-06
   5.05319977      -7.32791875E-07
   5.06519985      -4.88026126E-06
   5.07719994      -7.98701512E-06
   5.08920002      -1.00341176E-05
   5.10120010      -1.10291085E-05
   5.11320019      -1.10059427E-05
   5.12519979      -1.00238358E-05
   5.13719988      -8.16510237E-06
   5.14919996      -5.53208656E-06
   5.16120005      -2.24337236E-06
   5.17320013       1.57054467E-06
   5.18520021       5.77188166E-06
   5.19719982       1.02202821E-05
   5.20919991       1.47773844E-05
   5.22119999       1.93110700E-05
   5.23320007       2.36992073E-05
   5.24520016       2.78327825E-05
   5.25719976       3.16183505E-05
   5.26919985       3.49797265E-05
   5.28119993       3.78590012E-05
   5.29320002       4.02167934E-05
   5.30520010       4.20319193E-05
   5.31720018       4.33005116E-05
   5.32919979       4.40346448E-05
   5.34119987       4.42605960E-05
   5.35319996       4.40168296E-05
   5.36520004       4.33517780E-05
   5.37720013       4.23214733E-05
   5.38920021       4.09871391E-05
   5.40119982       3.94127674E-05
   5.41319990       3.76627650E-05
   5.42519999       3.57997087E-05
   5.43720007       3.38822356E-05
   5.44920015       3.19632345E-05
   5.46120024       3.00882220E-05
   5.47319984       2.82941292E-05
   5.48519993       2.66084207E-05
   5.49720001       2.50486519E-05
   5.50920010       2.36224769E-05
   5.52120018       2.23281149E-05
   5.53319979       2.11552560E-05
   5.54519987       2.00863979E-05
   5.55719995       1.90985156E-05
   5.56920004       1.81650248E-05
   5.58120012       1.72579093E-05
   5.59320021       1.63499008E-05
   5.60519981       1.54165955E-05
   5.61719990       1.44383739E-05
   5.62919998       1.34020238E-05
   5.64120007       1.23019363E-05
   5.65320015       1.11408317E-05
   5.66520023       9.92993955E-06
   5.67719984       8.68863663E-06
   5.68919992       7.44353247E-06
   5.70120001       6.22709240E-06
   5.71320009       5.07584218E-06
   5.72520018       4.02829301E-06
   5.73719978       3.12269253E-06
   5.74919987       2.39475025E-06
   5.76119995       1.87547573E-06
   5.77320004       1.58925548E-06
   5.78520012       1.55228531E-06
   5.79720020       1.77145432E-06
   5.80919981       2.24373207E-06
   5.82119989       2.95609129E-06
   5.83319998       3.88596482E-06
   5.84520006       5.00219221E-06
   5.85720015       6.26638939E-06
   5.86920023       7.63465687E-06
   5.88119984       9.05950947E-06
   5.89319992       1.04919127E-05
   5.90520000       1.18833204E-05
   5.91720009       1.31875822E-05
   5.92920017       1.43626548E-05
   5.94119978       1.53720175E-05
   5.95319986       1.61857715E-05
   5.96519995       1.67813741E-05
   5.97720003       1.71440443E-05
   5.98920012       1.72668333E-05
   6.00120020       1.71504289E-05
   6.01319981       1.68027418E-05
   6.02519989       1.62383094E-05
   6.03719997       1.54776208E-05
   6.04920006       1.45463518E-05
   6.06120014       1.34746042E-05
   6.07320023       1.22961383E-05
   6.08519983       1.10476212E-05
   6.09719992       9.76790307E-06
   6.10920000       8.49728258E-06
   6.12120008       7.27678344E-06
   6.13320017       6.14738383E-06
   6.14519978       5.14921840E-06
   6.15719986       4.32071829E-06
   6.16919994       3.69770260E-06
   6.18120003       3.31242563E-06
   6.19320011       3.19261312E-06
   6.20520020       3.36051039E-06
   6.21719980       3.83199313E-06
   6.22919989       4.61578156E-06
   6.24119997       5.71281635E-06
   6.25320005       7.11582379E-06
   6.26520014       8.80912285E-06
   6.27720022       1.07686919E-05
   6.28919983       1.29625068E-05
   6.30119991       1.53511664E-05
   6.31320000       1.78887658E-05
   6.32520008       2.05240358E-05
   6.33720016       2.32016682E-05
   6.34919977       2.58638302E-05
   6.36119986       2.84517882E-05
   6.37319994       3.09076095E-05
   6.38520002       3.31758893E-05
   6.39720011       3.52054303E-05
   6.40920019       3.69508452E-05
   6.42119980       3.83740480E-05
   6.43319988       3.94455019E-05
   6.44519997       4.01453071E-05
   6.45720005       4.04639832E-05
   6.46920013       4.04029452E-05
   6.48120022       3.99746641E-05
   6.49319983       3.92024776E-05
   6.50519991       3.81200225E-05
   6.51719999       3.67703324E-05
   6.52920008       3.52045790E-05
   6.54120016       3.34805300E-05
   6.55319977       3.16607366E-05
   6.56519985       2.98105297E-05
   6.57719994       2.79958931E-05
   6.58920002       2.62813246E-05
   6.60120010       2.47277112E-05
   6.61320019       2.33903593E-05
   6.62519979       2.23172428E-05
   6.63719988       2.15475302E-05
   6.64919996       2.11104434E-05
   6.66120005       2.10245180E-05
   6.67320013       2.12972427E-05
   6.68520021       2.19251069E-05
   6.69719982       2.28940280E-05
   6.70919991       2.41801354E-05
   6.72119999       2.57508291E-05
   6.73320007       2.75661314E-05
   6.74520016       2.95801765E-05
   6.75719976       3.17428348E-05
   6.76919985       3.40014121E-05
   6.78119993       3.63023100E-05
   6.79320002       3.85926724E-05
   6.80520010       4.08219021E-05
   6.81720018       4.29430620E-05
   6.82919979       4.49140898E-05
   6.84119987       4.66988458E-05
   6.85319996       4.82679425E-05
   6.86520004       4.95993663E-05
   6.87720013       5.06788419E-05
   6.88920021       5.15000102E-05
   6.90119982       5.20643443E-05
   6.91319990       5.23808558E-05
   6.92519999       5.24655734E-05
   6.93720007       5.23408307E-05
   6.94920015       5.20343601E-05
   6.96120024       5.15782704E-05
   6.97319984       5.10078717E-05
   6.98519993       5.03604497E-05
   6.99720001       4.96740104E-05
   7.00920010       4.89860322E-05
   7.02120018       4.83322983E-05
   7.03319979       4.77458198E-05
   7.04519987       4.72559150E-05
   7.05719995       4.68874532E-05
   7.06920004       4.66602796E-05
   7.08120012       4.65888770E-05
   7.09320021       4.66821730E-05
   7.10519981       4.69435836E-05
   7.11719990       4.73711661E-05
   7.12919998       4.79579649E-05
   7.14120007       4.86924182E-05
   7.15320015       4.95588902E-05
   7.16520023       5.05382050E-05
   7.17719984       5.16082328E-05
   7.18919992       5.27444863E-05
   7.20120001       5.39207067E-05
   7.21320009       5.51094345E-05
   7.22520018       5.62825844E-05
   7.23719978       5.74120386E-05
   7.24919987       5.84702175E-05
   7.26119995       5.94306912E-05
   7.27320004       6.02688197E-05
   7.28520012       6.09623858E-05
   7.29720020       6.14922683E-05
   7.30919981       6.18431077E-05
   7.32119989       6.20039427E-05
   7.33319998       6.19687999E-05
   7.34520006       6.17372134E-05
   7.35720015       6.13145749E-05
   7.36920023       6.07123948E-05
   7.38119984       5.99483355E-05
   7.39319992       5.90460550E-05
   7.40520000       5.80348060E-05
   7.41720009       5.69487929E-05
   7.42920017       5.58263455E-05
   7.44119978       5.47088166E-05
   7.45319986       5.36393309E-05
   7.46519995       5.26613512E-05
   7.47720003       5.18171837E-05
   7.48920012       5.11463659E-05
   7.50120020       5.06841279E-05
   7.51319981       5.04598938E-05
   7.52519989       5.04959135E-05
   7.53719997       5.08061312E-05
   7.54920006       5.13952655E-05
   7.56120014       5.22582486E-05
   7.57320023       5.33799684E-05
   7.58519983       5.47354393E-05
   7.59719992       5.62903115E-05
   7.60920000       5.80018095E-05
   7.62120008       5.98200277E-05
   7.63320017       6.16895559E-05
   7.64519978       6.35513788E-05
   7.65719986       6.53449606E-05
   7.66919994       6.70104710E-05
   7.68120003       6.84910265E-05
   7.69320011       6.97348296E-05
   7.70520020       7.06972060E-05
   7.71719980       7.13422851E-05
   7.72919989       7.16444629E-05
   7.74119997       7.15893329E-05
   7.75320005       7.11743196E-05
   7.76520014       7.04087870E-05
   7.77720022       6.93136535E-05
   7.78919983       6.79206787E-05
   7.80119991       6.62712919E-05
   7.81320000       6.44150787E-05
   7.82520008       6.24081149E-05
   7.83720016       6.03109547E-05
   7.84919977       5.81866771E-05
   7.86119986       5.60988046E-05
   7.87319994       5.41093177E-05
   7.88520002       5.22767368E-05
   7.89720011       5.06544457E-05
   7.90920019       4.92891413E-05
   7.92119980       4.82195392E-05
   7.93319988       4.74753833E-05
   7.94519997       4.70766354E-05
   7.95720005       4.70329942E-05
   7.96920013       4.73436739E-05
   7.98120022       4.79974333E-05
   7.99319983       4.89728809E-05
   8.00520039       5.02390685E-05
   8.01720047       5.17563021E-05
   8.02919960       5.34772298E-05
   8.04119968       5.53481914E-05
   8.05319977       5.73107354E-05
   8.06519985       5.93033838E-05
   8.07719994       6.12635413E-05
   8.08920002       6.31295261E-05
   8.10120010       6.48426430E-05
   8.11320019       6.63492610E-05
   8.12520027       6.76027630E-05
   8.13720036       6.85653649E-05
   8.14920044       6.92096000E-05
   8.16119957       6.95194904E-05
   8.17319965       6.94912815E-05
   8.18519974       6.91336536E-05
   8.19719982       6.84674451E-05
   8.20919991       6.75248448E-05
   8.22119999       6.63480387E-05
   8.23320007       6.49874200E-05
   8.24520016       6.34994140E-05
   8.25720024       6.19440325E-05
   8.26920033       6.03822555E-05
   8.28120041       5.88733601E-05
   8.29319954       5.74724691E-05
   8.30519962       5.62282330E-05
   8.31719971       5.51809462E-05
   8.32919979       5.43611168E-05
   8.34119987       5.37885498E-05
   8.35319996       5.34719984E-05
   8.36520004       5.34093670E-05
   8.37720013       5.35884101E-05
   8.38920021       5.39878965E-05
   8.40120029       5.45790863E-05
   8.41320038       5.53274804E-05
   8.42520046       5.61946690E-05
   8.43719959       5.71401870E-05
   8.44919968       5.81233107E-05
   8.46119976       5.91046519E-05
   8.47319984       6.00475469E-05
   8.48519993       6.09191484E-05
   8.49720001       6.16912803E-05
   8.50920010       6.23410087E-05
   8.52120018       6.28509297E-05
   8.53320026       6.32092997E-05
   8.54520035       6.34099779E-05
   8.55720043       6.34522512E-05
   8.56919956       6.33405216E-05
   8.58119965       6.30839641E-05
   8.59319973       6.26961264E-05
   8.60519981       6.21944055E-05
   8.61719990       6.15994868E-05
   8.62919998       6.09347517E-05
   8.64120007       6.02255095E-05
   8.65320015       5.94981684E-05
   8.66520023       5.87793329E-05
   8.67720032       5.80948072E-05
   8.68920040       5.74686092E-05
   8.70119953       5.69219519E-05
   8.71319962       5.64723341E-05
   8.72519970       5.61327579E-05
   8.73719978       5.59111395E-05
   8.74919987       5.58099491E-05
   8.76119995       5.58261854E-05
   8.77320004       5.59516084E-05
   8.78520012       5.61733068E-05
   8.79720020       5.64745387E-05
   8.80920029       5.68357755E-05
   8.82120037       5.72359277E-05
   8.83320045       5.76536149E-05
   8.84519958       5.80684100E-05
   8.85719967       5.84619920E-05
   8.86919975       5.88190633E-05
   8.88119984       5.91280113E-05
   8.89319992       5.93813129E-05
   8.90520000       5.95755446E-05
   8.91720009       5.97111575E-05
   8.92920017       5.97919498E-05
   8.94120026       5.98243387E-05
   8.95320034       5.98164916E-05
   8.96520042       5.97774197E-05
   8.97719955       5.97160688E-05
   8.98919964       5.96405334E-05
   9.00119972       5.95574020E-05
   9.01319981       5.94713019E-05
   9.02519989       5.93846853E-05
   9.03719997       5.92977885E-05
   9.04920006       5.92087963E-05
   9.06120014       5.91141470E-05
   9.07320023       5.90089221E-05
   9.08520031       5.88872863E-05
   9.09720039       5.87429095E-05
   9.10919952       5.85693124E-05
   9.12119961       5.83601759E-05
   9.13319969       5.81095082E-05
   9.14519978       5.78117724E-05
   9.15719986       5.74619116E-05
   9.16919994       5.70553821E-05
   9.18120003       5.65881601E-05
   9.19320011       5.60568187E-05
   9.20520020       5.54586768E-05
   9.21720028       5.47920572E-05
   9.22920036       5.40566180E-05
   9.24120045       5.32538215E-05
   9.25319958       5.23874478E-05
   9.26519966       5.14641033E-05
   9.27719975       5.04937452E-05
   9.28919983       4.94900341E-05
   9.30119991       4.84705743E-05
   9.31320000       4.74568806E-05
   9.32520008       4.64740915E-05
   9.33720016       4.55504050E-05
   9.34920025       4.47161910E-05
   9.36120033       4.40028743E-05
   9.37320042       4.34415997E-05
   9.38519955       4.30617802E-05
   9.39719963       4.28895582E-05
   9.40919971       4.29463907E-05
   9.42119980       4.32477391E-05
   9.43319988       4.38019633E-05
   9.44519997       4.46096055E-05
