 -0.622799993       0.00000000    
 -0.610800028       0.00000000    
 -0.598800004       0.00000000    
 -0.586799979       0.00000000    
 -0.574800014       0.00000000    
 -0.562799990       0.00000000    
 -0.550800025       0.00000000    
 -0.538800001       0.00000000    
 -0.526799977       3.48097224E-37
 -0.514800012      -2.91639179E-32
 -0.502799988      -4.66662182E-31
 -0.490799993      -3.70081432E-30
 -0.478799999      -1.90878119E-29
 -0.466800004      -7.02335192E-29
 -0.454800010      -1.87296326E-28
 -0.442799985      -3.31436558E-28
 -0.430799991      -1.74466503E-28
 -0.418799996       1.24443289E-27
 -0.406800002       5.56932140E-27
 -0.394800007       1.37607679E-26
 -0.382800013       2.17455795E-26
 -0.370799989       1.29242148E-26
 -0.358799994      -4.72608356E-26
 -0.346799999      -1.99886938E-25
 -0.334800005      -4.41315168E-25
 -0.322800010      -6.17705403E-25
 -0.310799986      -2.96856518E-25
 -0.298799992       1.25790133E-24
 -0.286799997       4.77953113E-24
 -0.274800003       1.01046740E-23
 -0.262800008       1.46836234E-23
 -0.250800014       1.21093036E-23
 -0.238800004      -7.77230334E-24
 -0.226799995      -5.48446457E-23
 -0.214800000      -1.28880409E-22
 -0.202800006      -2.04712674E-22
 -0.190799996      -2.18835872E-22
 -0.178800002      -7.08726521E-23
 -0.166800007       3.42451991E-22
 -0.154799998       1.04849343E-21
 -0.142800003       1.88383195E-21
 -0.130799994       2.38978598E-21
 -0.118799999       1.80746113E-21
 -0.106799997      -7.16940520E-22
  -9.48000029E-02  -5.64191583E-21
  -8.28000009E-02  -1.23044619E-20
  -7.07999989E-02  -1.82142069E-20
  -5.88000007E-02  -1.88519842E-20
  -4.67999987E-02  -8.57286352E-21
  -3.48000005E-02   1.69533768E-20
  -2.28000004E-02   5.69128567E-20
  -1.08000003E-02   1.01252154E-19
   1.20000006E-03   1.28527013E-19
   1.31999999E-02   1.08543532E-19
   2.52000000E-02   1.21125867E-20
   3.72000001E-02  -1.72016499E-19
   4.91999984E-02  -4.16934934E-19
   6.12000003E-02  -6.42617127E-19
   7.32000023E-02  -7.18066442E-19
   8.51999968E-02  -4.91613135E-19
   9.71999988E-02   1.46744839E-19
  0.109200001       1.18097217E-18
  0.121200003       2.39037433E-18
  0.133200005       3.31945615E-18
  0.145199999       3.34194099E-18
  0.157199994       1.84693177E-18
  0.169200003      -1.46654563E-18
  0.181199998      -6.25979558E-18
  0.193200007      -1.13213944E-17
  0.205200002      -1.45928044E-17
  0.217199996      -1.35867228E-17
  0.229200006      -6.22866422E-18
  0.241200000       8.01922570E-18
  0.253199995       2.70902064E-17
  0.265199989       4.57873619E-17
  0.277200013       5.62986272E-17
  0.289200008       5.00554286E-17
  0.301200002       2.08229782E-17
  0.313199997      -3.16499816E-17
  0.325199991      -9.86323876E-17
  0.337199986      -1.61558207E-16
  0.349200010      -1.94622535E-16
  0.361200005      -1.71337070E-16
  0.373199999      -7.42321278E-17
  0.385199994       9.46573745E-17
  0.397199988       3.06147089E-16
  0.409200013       5.03105913E-16
  0.421200007       6.09533432E-16
  0.433200002       5.50067590E-16
  0.445199996       2.76884430E-16
  0.457199991      -2.02828974E-16
  0.469199985      -8.08321000E-16
  0.481200010      -1.38534727E-15
  0.493200004      -1.73143413E-15
  0.505200028      -1.64642707E-15
  0.517199993      -9.99786551E-16
  0.529200017       2.02375031E-16
  0.541199982       1.77288655E-15
  0.553200006       3.34361047E-15
  0.565199971       4.42399252E-15
  0.577199996       4.51713099E-15
  0.589200020       3.27355025E-15
  0.601199985       6.44998702E-16
  0.613200009      -3.01016663E-15
  0.625199974      -6.91667708E-15
  0.637199998      -9.99684886E-15
  0.649200022      -1.11087507E-14
  0.661199987      -9.36847239E-15
  0.673200011      -4.48088052E-15
  0.685199976       3.01851350E-15
  0.697200000       1.17052838E-14
  0.709200025       1.94539090E-14
  0.721199989       2.38754718E-14
  0.733200014       2.29354635E-14
  0.745199978       1.56124317E-14
  0.757200003       2.41503366E-15
  0.769200027      -1.44233888E-14
  0.781199992      -3.11976803E-14
  0.793200016      -4.34514112E-14
  0.805199981      -4.70530428E-14
  0.817200005      -3.93896511E-14
  0.829200029      -2.03601801E-14
  0.841199994       7.15148477E-15
  0.853200018       3.75503123E-14
  0.865199983       6.36004717E-14
  0.877200007       7.81187926E-14
  0.889199972       7.59074945E-14
  0.901199996       5.54118214E-14
  0.913200021       1.95893462E-14
  0.925199986      -2.43655736E-14
  0.937200010      -6.65113716E-14
  0.949199975      -9.65800180E-14
  0.961199999      -1.06730075E-13
  0.973200023      -9.38566038E-14
  0.985199988      -6.07223148E-14
  0.997200012      -1.54501368E-14
   1.00919998       3.06252623E-14
   1.02119994       6.62303667E-14
   1.03320003       8.36128516E-14
   1.04519999       8.10806568E-14
   1.05719995       6.36823900E-14
   1.06920004       4.15961617E-14
   1.08120000       2.65134425E-14
   1.09319997       2.70291974E-14
   1.10520005       4.45373380E-14
   1.11720002       7.11829887E-14
   1.12919998       9.09571694E-14
   1.14119995       8.41152709E-14
   1.15320003       3.39948813E-14
   1.16520000      -6.56591751E-14
   1.17719996      -2.05243591E-13
   1.18920004      -3.57881530E-13
   1.20120001      -4.83252869E-13
   1.21319997      -5.36403116E-13
   1.22520006      -4.79675924E-13
   1.23720002      -2.94708051E-13
   1.24919999       8.97348568E-15
   1.26119995       3.91589647E-13
   1.27320004       7.88277972E-13
   1.28520000       1.12103024E-12
   1.29719996       1.31467157E-12
   1.30920005       1.31290356E-12
   1.32120001       1.09034125E-12
   1.33319998       6.57619900E-13
   1.34519994       5.87061798E-14
   1.35720003      -6.38112122E-13
   1.36919999      -1.35227344E-12
   1.38119996      -2.00208730E-12
   1.39320004      -2.51183557E-12
   1.40520000      -2.81371649E-12
   1.41719997      -2.84609510E-12
   1.42920005      -2.55168022E-12
   1.44120002      -1.88009656E-12
   1.45319998      -7.98302939E-13
   1.46519995       6.90504349E-13
   1.47720003       2.52270622E-12
   1.48920000       4.55172835E-12
   1.50119996       6.53628627E-12
   1.51320004       8.14821301E-12
   1.52520001       9.00542921E-12
   1.53719997       8.72995860E-12
   1.54920006       7.02412651E-12
   1.56120002       3.75191588E-12
   1.57319999      -9.91272385E-13
   1.58519995      -6.83742342E-12
   1.59720004      -1.31464891E-11
   1.60920000      -1.90550787E-11
   1.62119997      -2.35710063E-11
   1.63320005      -2.57031514E-11
   1.64520001      -2.46097673E-11
   1.65719998      -1.97452454E-11
   1.66919994      -1.09855614E-11
   1.68120003       1.28438037E-12
   1.69319999       1.61338980E-11
   1.70519996       3.21078060E-11
   1.71720004       4.73094793E-11
   1.72920001       5.95461042E-11
   1.74119997       6.65335287E-11
   1.75320005       6.61540336E-11
   1.76520002       5.67542124E-11
   1.77719998       3.74614853E-11
   1.78919995       8.48693164E-12
   1.80120003      -2.86289343E-11
   1.81320000      -7.08788236E-11
   1.82519996      -1.13813230E-10
   1.83720005      -1.51772761E-10
   1.84920001      -1.78355483E-10
   1.86119998      -1.87116364E-10
   1.87320006      -1.72457479E-10
   1.88520002      -1.30625580E-10
   1.89719999      -6.06945119E-11
   1.90919995       3.46176768E-11
   1.92120004       1.48457746E-10
   1.93320000       2.69820027E-10
   1.94519997       3.84112908E-10
   1.95720005       4.74357720E-10
   1.96920002       5.22990207E-10
   1.98119998       5.14147114E-10
   1.99319994       4.36234798E-10
   2.00519991       2.84507085E-10
   2.01719999       6.33322353E-11
   2.02920008      -2.12184090E-10
   2.04119992      -5.15529119E-10
   2.05320001      -8.09312894E-10
   2.06520009      -1.04715159E-09
   2.07719994      -1.17693477E-09
   2.08920002      -1.14536836E-09
   2.10120010      -9.03538966E-10
   2.11319995      -4.13108825E-10
   2.12520003       3.47376433E-10
   2.13720012       1.37667100E-09
   2.14919996       2.64615863E-09
   2.16120005       4.09698009E-09
   2.17319989       5.63953462E-09
   2.18519998       7.15579773E-09
   2.19720006       8.50465742E-09
   2.20919991       9.53020773E-09
   2.22119999       1.00725677E-08
   2.23320007       9.98042093E-09
   2.24519992       9.12405707E-09
   2.25720000       7.40736938E-09
   2.26920009       4.77690243E-09
   2.28119993       1.22587984E-09
   2.29320002      -3.20896021E-09
   2.30520010      -8.45984172E-09
   2.31719995      -1.44516701E-08
   2.32920003      -2.11385949E-08
   2.34120011      -2.85544868E-08
   2.35319996      -3.68779673E-08
   2.36520004      -4.65117900E-08
   2.37719989      -5.81758570E-08
   2.38919997      -7.30122309E-08
   2.40120006      -9.26997146E-08
   2.41319990      -1.19574793E-07
   2.42519999      -1.56754695E-07
   2.43720007      -2.08257887E-07
   2.44919991      -2.79115852E-07
   2.46120000      -3.75469710E-07
   2.47320008      -5.04644333E-07
   2.48519993      -6.75191984E-07
   2.49720001      -8.96897404E-07
   2.50920010      -1.18073615E-06
   2.52119994      -1.53877863E-06
   2.53320003      -1.98403177E-06
   2.54520011      -2.53021494E-06
   2.55719995      -3.19146352E-06
   2.56920004      -3.98196153E-06
   2.58119988      -4.91550554E-06
   2.59319997      -6.00500289E-06
   2.60520005      -7.26191593E-06
   2.61719990      -8.69566884E-06
   2.62919998      -1.03130278E-05
   2.64120007      -1.21174871E-05
   2.65319991      -1.41086775E-05
   2.66520000      -1.62818360E-05
   2.67720008      -1.86273537E-05
   2.68919992      -2.11304414E-05
   2.70120001      -2.37709410E-05
   2.71320009      -2.65233048E-05
   2.72519994      -2.93567737E-05
   2.73720002      -3.22357337E-05
   2.74920011      -3.51203125E-05
   2.76119995      -3.79671619E-05
   2.77320004      -4.07304251E-05
   2.78520012      -4.33628884E-05
   2.79719996      -4.58172362E-05
   2.80920005      -4.80474228E-05
   2.82119989      -5.00100577E-05
   2.83319998      -5.16657710E-05
   2.84520006      -5.29805293E-05
   2.85719991      -5.39267676E-05
   2.86919999      -5.44843970E-05
   2.88120008      -5.46415176E-05
   2.89319992      -5.43949027E-05
   2.90520000      -5.37501764E-05
   2.91720009      -5.27216762E-05
   2.92919993      -5.13320192E-05
   2.94120002      -4.96113535E-05
   2.95320010      -4.75963825E-05
   2.96519995      -4.53291359E-05
   2.97720003      -4.28556050E-05
   2.98920012      -4.02242367E-05
   3.00119996      -3.74844276E-05
   3.01320004      -3.46849956E-05
   3.02519989      -3.18727725E-05
   3.03719997      -2.90913249E-05
   3.04920006      -2.63798665E-05
   3.06119990      -2.37723852E-05
   3.07319999      -2.12970572E-05
   3.08520007      -1.89758975E-05
   3.09719992      -1.68246897E-05
   3.10920000      -1.48531453E-05
   3.12120008      -1.30653125E-05
   3.13319993      -1.14601353E-05
   3.14520001      -1.00321804E-05
   3.15720010      -8.77244383E-06
   3.16919994      -7.66920130E-06
   3.18120003      -6.70886175E-06
   3.19320011      -5.87676004E-06
   3.20519996      -5.15787724E-06
   3.21720004      -4.53744860E-06
   3.22919989      -4.00143017E-06
   3.24119997      -3.53683822E-06
   3.25320005      -3.13193959E-06
   3.26519990      -2.77632444E-06
   3.27719998      -2.46085983E-06
   3.28920007      -2.17756451E-06
   3.30119991      -1.91942217E-06
   3.31320000      -1.68016652E-06
   3.32520008      -1.45406693E-06
   3.33719993      -1.23574364E-06
   3.34920001      -1.02002764E-06
   3.36120009      -8.01887609E-07
   3.37319994      -5.76426032E-07
   3.38520002      -3.38948126E-07
   3.39720011      -8.50950101E-08
   3.40919995       1.88971867E-07
   3.42120004       4.86353031E-07
   3.43319988       8.09187725E-07
   3.44519997       1.15844648E-06
   3.45720005       1.53376345E-06
   3.46919990       1.93333381E-06
   3.48119998       2.35389302E-06
   3.49320006       2.79079404E-06
   3.50519991       3.23818563E-06
   3.51719999       3.68929386E-06
   3.52920008       4.13679072E-06
   3.54119992       4.57324177E-06
   3.55320001       4.99159751E-06
   3.56520009       5.38571157E-06
   3.57719994       5.75084141E-06
   3.58920002       6.08409619E-06
   3.60120010       6.38480924E-06
   3.61319995       6.65478774E-06
   3.62520003       6.89842227E-06
   3.63720012       7.12263773E-06
   3.64919996       7.33666639E-06
   3.66120005       7.55165138E-06
   3.67319989       7.78008325E-06
   3.68519998       8.03510193E-06
   3.69720006       8.32968453E-06
   3.70919991       8.67577000E-06
   3.72119999       9.08336824E-06
   3.73320007       9.55969153E-06
   3.74519992       1.01083915E-05
   3.75720000       1.07289306E-05
   3.76920009       1.14161467E-05
   3.78119993       1.21600451E-05
   3.79320002       1.29458576E-05
   3.80520010       1.37543793E-05
   3.81719995       1.45625727E-05
   3.82920003       1.53444525E-05
   3.84120011       1.60721884E-05
   3.85319996       1.67174076E-05
   3.86520004       1.72526070E-05
   3.87719989       1.76526555E-05
   3.88919997       1.78962418E-05
   3.90120006       1.79672570E-05
   3.91319990       1.78559876E-05
   3.92519999       1.75600726E-05
   3.93720007       1.70851545E-05
   3.94919991       1.64451812E-05
   3.96120000       1.56623282E-05
   3.97320008       1.47665332E-05
   3.98519993       1.37946563E-05
   3.99720001       1.27892690E-05
   4.00920010       1.17971576E-05
   4.02120018       1.08675695E-05
   4.03319979       1.00502966E-05
   4.04519987       9.39366510E-06
   4.05719995       8.94253662E-06
   4.06920004       8.73639146E-06
   4.08120012       8.80758853E-06
   4.09320021       9.17987563E-06
   4.10519981       9.86720352E-06
   4.11719990       1.08729173E-05
   4.12919998       1.21893409E-05
   4.14120007       1.37977722E-05
   4.15320015       1.56689130E-05
   4.16520023       1.77636903E-05
   4.17719984       2.00344730E-05
   4.18919992       2.24265987E-05
   4.20120001       2.48802207E-05
   4.21320009       2.73323349E-05
   4.22520018       2.97190036E-05
   4.23719978       3.19776082E-05
   4.24919987       3.40491279E-05
   4.26119995       3.58803263E-05
   4.27320004       3.74257761E-05
   4.28520012       3.86496504E-05
   4.29720020       3.95272182E-05
   4.30919981       4.00459612E-05
   4.32119989       4.02063160E-05
   4.33319998       4.00218960E-05
   4.34520006       3.95193310E-05
   4.35720015       3.87375512E-05
   4.36920023       3.77266188E-05
   4.38119984       3.65461128E-05
   4.39319992       3.52630959E-05
   4.40520000       3.39497456E-05
   4.41720009       3.26806767E-05
   4.42920017       3.15301004E-05
   4.44119978       3.05688773E-05
   4.45319986       2.98616051E-05
   4.46519995       2.94637885E-05
   4.47720003       2.94192760E-05
   4.48920012       2.97579936E-05
   4.50120020       3.04941241E-05
   4.51319981       3.16247642E-05
   4.52519989       3.31291703E-05
   4.53719997       3.49685724E-05
   4.54920006       3.70866255E-05
   4.56120014       3.94104754E-05
   4.57320023       4.18523923E-05
   4.58519983       4.43119898E-05
   4.59719992       4.66788624E-05
   4.60920000       4.88356200E-05
   4.62120008       5.06612523E-05
   4.63320017       5.20346002E-05
   4.64519978       5.28379423E-05
   4.65719986       5.29605059E-05
   4.66919994       5.23018243E-05
   4.68120003       5.07748155E-05
   4.69320011       4.83085132E-05
   4.70520020       4.48503124E-05
   4.71719980       4.03677768E-05
   4.72919989       3.48498070E-05
   4.74119997       2.83073041E-05
   4.75320005       2.07731809E-05
   4.76520014       1.23018435E-05
   4.77720022       2.96808139E-06
   4.78919983      -7.13453983E-06
   4.80119991      -1.78957162E-05
   4.81320000      -2.91908600E-05
   4.82520008      -4.08838569E-05
   4.83720016      -5.28300552E-05
   4.84919977      -6.48793866E-05
   4.86119986      -7.68796162E-05
   4.87319994      -8.86794733E-05
   4.88520002      -1.00131823E-04
   4.89720011      -1.11096590E-04
   4.90920019      -1.21443467E-04
   4.92119980      -1.31054418E-04
   4.93319988      -1.39825803E-04
   4.94519997      -1.47670144E-04
   4.95720005      -1.54517504E-04
   4.96920013      -1.60316573E-04
   4.98120022      -1.65035177E-04
   4.99319983      -1.68660525E-04
   5.00519991      -1.71198873E-04
   5.01719999      -1.72675078E-04
   5.02920008      -1.73131470E-04
   5.04120016      -1.72626518E-04
   5.05319977      -1.71233201E-04
   5.06519985      -1.69036954E-04
   5.07719994      -1.66133512E-04
   5.08920002      -1.62626369E-04
   5.10120010      -1.58624185E-04
   5.11320019      -1.54238092E-04
   5.12519979      -1.49578846E-04
   5.13719988      -1.44754129E-04
   5.14919996      -1.39865821E-04
   5.16120005      -1.35007605E-04
   5.17320013      -1.30262677E-04
   5.18520021      -1.25701801E-04
   5.19719982      -1.21381927E-04
   5.20919991      -1.17345015E-04
   5.22119999      -1.13617505E-04
   5.23320007      -1.10210283E-04
   5.24520016      -1.07119209E-04
   5.25719976      -1.04326151E-04
   5.26919985      -1.01800571E-04
   5.28119993      -9.95015289E-05
   5.29320002      -9.73800925E-05
   5.30520010      -9.53820272E-05
   5.31720018      -9.34507261E-05
   5.32919979      -9.15300698E-05
   5.34119987      -8.95673729E-05
   5.35319996      -8.75159822E-05
   5.36520004      -8.53377205E-05
   5.37720013      -8.30047575E-05
   5.38920021      -8.05011005E-05
   5.40119982      -7.78234098E-05
   5.41319990      -7.49812825E-05
   5.42519999      -7.19968666E-05
   5.43720007      -6.89038425E-05
   5.44920015      -6.57459095E-05
   5.46120024      -6.25747416E-05
   5.47319984      -5.94475059E-05
   5.48519993      -5.64241636E-05
   5.49720001      -5.35645886E-05
   5.50920010      -5.09256352E-05
   5.52120018      -4.85583514E-05
   5.53319979      -4.65054109E-05
   5.54519987      -4.47988750E-05
   5.55719995      -4.34584508E-05
   5.56920004      -4.24902355E-05
   5.58120012      -4.18860363E-05
   5.59320021      -4.16233706E-05
   5.60519981      -4.16659532E-05
   5.61719990      -4.19648895E-05
   5.62919998      -4.24603204E-05
   5.64120007      -4.30835571E-05
   5.65320015      -4.37596209E-05
   5.66520023      -4.44100151E-05
   5.67719984      -4.49556683E-05
   5.68919992      -4.53199318E-05
   5.70120001      -4.54314759E-05
   5.71320009      -4.52270360E-05
   5.72520018      -4.46538397E-05
   5.73719978      -4.36716655E-05
   5.74919987      -4.22544617E-05
   5.76119995      -4.03914564E-05
   5.77320004      -3.80877354E-05
   5.78520012      -3.53642536E-05
   5.79720020      -3.22573324E-05
   5.80919981      -2.88176034E-05
   5.82119989      -2.51084966E-05
   5.83319998      -2.12042632E-05
   5.84520006      -1.71876836E-05
   5.85720015      -1.31474317E-05
   5.86920023      -9.17528814E-06
   5.88119984      -5.36318475E-06
   5.89319992      -1.80026234E-06
   5.90520000       1.43002808E-06
   5.91720009       4.25267399E-06
   5.92920017       6.60360456E-06
   5.94119978       8.43187536E-06
   5.95319986       9.70146448E-06
   5.96519995       1.03926122E-05
   5.97720003       1.05026520E-05
   5.98920012       1.00463085E-05
   6.00120020       9.05542674E-06
   6.01319981       7.57815087E-06
   6.02519989       5.67755524E-06
   6.03719997       3.42977796E-06
   6.04920006       9.21699950E-07
   6.06120014      -1.75174398E-06
   6.07320023      -4.49054278E-06
   6.08519983      -7.19277205E-06
   6.09719992      -9.75782586E-06
   6.10920000      -1.20896184E-05
   6.12120008      -1.40996253E-05
   6.13320017      -1.57096620E-05
   6.14519978      -1.68542883E-05
   6.15719986      -1.74827983E-05
   6.16919994      -1.75606510E-05
   6.18120003      -1.70703770E-05
   6.19320011      -1.60118980E-05
   6.20520020      -1.44022506E-05
   6.21719980      -1.22747942E-05
   6.22919989      -9.67787855E-06
   6.24119997      -6.67307586E-06
   6.25320005      -3.33305547E-06
   6.26520014       2.60842626E-07
   6.27720022       4.02122078E-06
   6.28919983       7.85734028E-06
   6.30119991       1.16778565E-05
   6.31320000       1.53934725E-05
   6.32520008       1.89194598E-05
   6.33720016       2.21779610E-05
   6.34919977       2.51000238E-05
   6.36119986       2.76273422E-05
   6.37319994       2.97136485E-05
   6.38520002       3.13257515E-05
   6.39720011       3.24442044E-05
   6.40920019       3.30636103E-05
   6.42119980       3.31925221E-05
   6.43319988       3.28530296E-05
   6.44519997       3.20799300E-05
   6.45720005       3.09196221E-05
   6.46920013       2.94286256E-05
   6.48120022       2.76718583E-05
   6.49319983       2.57206502E-05
   6.50519991       2.36505621E-05
   6.51719999       2.15390501E-05
   6.52920008       1.94630720E-05
   6.54120016       1.74966626E-05
   6.55319977       1.57085924E-05
   6.56519985       1.41601613E-05
   6.57719994       1.29032351E-05
   6.58920002       1.19785764E-05
   6.60120010       1.14145532E-05
   6.61320019       1.12262824E-05
   6.62519979       1.14152463E-05
   6.63719988       1.19694059E-05
   6.64919996       1.28638121E-05
   6.66120005       1.40616903E-05
   6.67320013       1.55159632E-05
   6.68520021       1.71711254E-05
   6.69719982       1.89653947E-05
   6.70919991       2.08330530E-05
   6.72119999       2.27068376E-05
   6.73320007       2.45203391E-05
   6.74520016       2.62102094E-05
   6.75719976       2.77182044E-05
   6.76919985       2.89928903E-05
   6.78119993       2.99910207E-05
   6.79320002       3.06785259E-05
   6.80520010       3.10311152E-05
   6.81720018       3.10344840E-05
   6.82919979       3.06841794E-05
   6.84119987       2.99851472E-05
   6.85319996       2.89510408E-05
   6.86520004       2.76033097E-05
   6.87720013       2.59701792E-05
   6.88920021       2.40855552E-05
   6.90119982       2.19879039E-05
   6.91319990       1.97191493E-05
   6.92519999       1.73236331E-05
   6.93720007       1.48471217E-05
   6.94920015       1.23359041E-05
   6.96120024       9.83592963E-06
   6.97319984       7.39202460E-06
   6.98519993       5.04713216E-06
   6.99720001       2.84159000E-06
   7.00920010       8.12432518E-07
   7.02120018      -1.00730347E-06
   7.03319979      -2.58923887E-06
   7.04519987      -3.91028652E-06
   7.05719995      -4.95322547E-06
   7.06920004      -5.70720340E-06
   7.08120012      -6.16812122E-06
   7.09320021      -6.33888112E-06
   7.10519981      -6.22945026E-06
   7.11719990      -5.85672706E-06
   7.12919998      -5.24418056E-06
   7.14120007      -4.42125020E-06
   7.15320015      -3.42251928E-06
   7.16520023      -2.28666681E-06
   7.17719984      -1.05523770E-06
   7.18919992       2.28729093E-07
   7.20120001       1.52216023E-06
   7.21320009       2.78343032E-06
   7.22520018       3.97380290E-06
   7.23719978       5.05876415E-06
   7.24919987       6.00918293E-06
   7.26119995       6.80224866E-06
   7.27320004       7.42213206E-06
   7.28520012       7.86034798E-06
   7.29720020       8.11578866E-06
   7.30919981       8.19444631E-06
   7.32119989       8.10882011E-06
   7.33319998       7.87705449E-06
   7.34520006       7.52185542E-06
   7.35720015       7.06922992E-06
   7.36920023       6.54714222E-06
   7.38119984       5.98412998E-06
   7.39319992       5.40797146E-06
   7.40520000       4.84446082E-06
   7.41720009       4.31634044E-06
   7.42920017       3.84244413E-06
   7.44119978       3.43707211E-06
   7.45319986       3.10961809E-06
   7.46519995       2.86444697E-06
   7.47720003       2.70100986E-06
   7.48920012       2.61417472E-06
   7.50120020       2.59474109E-06
   7.51319981       2.63009520E-06
   7.52519989       2.70496139E-06
   7.53719997       2.80220843E-06
   7.54920006       2.90367075E-06
   7.56120014       2.99093949E-06
   7.57320023       3.04610626E-06
   7.58519983       3.05242975E-06
   7.59719992       2.99492399E-06
   7.60920000       2.86085356E-06
   7.62120008       2.64014989E-06
   7.63320017       2.32574257E-06
   7.64519978       1.91381969E-06
   7.65719986       1.40401357E-06
   7.66919994       7.99516215E-07
   7.68120003       1.07121231E-07
   7.69320011      -6.62821151E-07
   7.70520020      -1.49653727E-06
   7.71719980      -2.37706990E-06
   7.72919989      -3.28463284E-06
   7.74119997      -4.19708567E-06
   7.75320005      -5.09053461E-06
   7.76520014      -5.94005405E-06
   7.77720022      -6.72051056E-06
   7.78919983      -7.40747873E-06
   7.80119991      -7.97819939E-06
   7.81320000      -8.41255678E-06
   7.82520008      -8.69401902E-06
   7.83720016      -8.81048709E-06
   7.84919977      -8.75500973E-06
   7.86119986      -8.52631638E-06
   7.87319994      -8.12911549E-06
   7.88520002      -7.57415592E-06
   7.89720011      -6.87800821E-06
   7.90920019      -6.06259300E-06
   7.92119980      -5.15445208E-06
   7.93319988      -4.18381205E-06
   7.94519997      -3.18347224E-06
   7.95720005      -2.18757395E-06
   7.96920013      -1.23031975E-06
   7.98120022      -3.44696787E-07
   7.99319983       4.38725039E-07
   8.00520039       1.09286600E-06
   8.01720047       1.59503247E-06
   8.02919960       1.92759990E-06
   8.04119968       2.07846097E-06
   8.05319977       2.04122875E-06
   8.06519985       1.81521284E-06
   8.07719994       1.40517966E-06
   8.08920002       8.20931234E-07
   8.10120010       7.67422463E-08
   8.11320019      -8.09307096E-07
   8.12520027      -1.81605776E-06
   8.13720036      -2.92002233E-06
   8.14920044      -4.09612085E-06
   8.16119957      -5.31837577E-06
   8.17319965      -6.56054590E-06
   8.18519974      -7.79668881E-06
   8.19719982      -9.00163923E-06
   8.20919991      -1.01514224E-05
   8.22119999      -1.12235921E-05
   8.23320007      -1.21975281E-05
   8.24520016      -1.30546841E-05
   8.25720024      -1.37788311E-05
   8.26920033      -1.43562820E-05
   8.28120041      -1.47761166E-05
   8.29319954      -1.50304149E-05
   8.30519962      -1.51144868E-05
   8.31719971      -1.50270907E-05
   8.32919979      -1.47706278E-05
   8.34119987      -1.43512789E-05
   8.35319996      -1.37790876E-05
   8.36520004      -1.30679427E-05
   8.37720013      -1.22354541E-05
   8.38920021      -1.13027072E-05
   8.40120029      -1.02938820E-05
   8.41320038      -9.23572679E-06
   8.42520046      -8.15690782E-06
   8.43719959      -7.08723883E-06
   8.44919968      -6.05680179E-06
   8.46119976      -5.09500433E-06
   8.47319984      -4.22960011E-06
   8.48519993      -3.48570961E-06
   8.49720001      -2.88488604E-06
   8.50920010      -2.44427088E-06
   8.52120018      -2.17587331E-06
   8.53320026      -2.08601796E-06
   8.54520035      -2.17498223E-06
   8.55720043      -2.43685440E-06
   8.56919956      -2.85961983E-06
   8.58119965      -3.42548333E-06
   8.59319973      -4.11142446E-06
   8.60519981      -4.88996693E-06
   8.61719990      -5.73014404E-06
   8.62919998      -6.59862371E-06
   8.64120007      -7.46095475E-06
   8.65320015      -8.28289740E-06
   8.66520023      -9.03176988E-06
   8.67720032      -9.67778396E-06
   8.68920040      -1.01952864E-05
   8.70119953      -1.05638683E-05
   8.71319962      -1.07692958E-05
   8.72519970      -1.08041950E-05
   8.73719978      -1.06684702E-05
   8.74919987      -1.03694210E-05
   8.76119995      -9.92154582E-06
   8.77320004      -9.34602394E-06
   8.78520012      -8.66990922E-06
   8.79720020      -7.92504852E-06
   8.80920029      -7.14678117E-06
   8.82120037      -6.37248149E-06
   8.83320045      -5.64000629E-06
   8.84519958      -4.98610962E-06
   8.85719967      -4.44493662E-06
   8.86919975      -4.04662114E-06
   8.88119984      -3.81608879E-06
   8.89319992      -3.77210290E-06
   8.90520000      -3.92659649E-06
   8.91720009      -4.28432213E-06
   8.92920017      -4.84282236E-06
   8.94120026      -5.59270984E-06
   8.95320034      -6.51823802E-06
   8.96520042      -7.59811201E-06
   8.97719955      -8.80648349E-06
   8.98919964      -1.01140813E-05
   9.00119972      -1.14893901E-05
   9.01319981      -1.28998354E-05
   9.02519989      -1.43128927E-05
   9.03719997      -1.56971055E-05
   9.04920006      -1.70229414E-05
   9.06120014      -1.82634922E-05
   9.07320023      -1.93949982E-05
   9.08520031      -2.03971995E-05
   9.09720039      -2.12535306E-05
   9.10919952      -2.19511749E-05
   9.12119961      -2.24810283E-05
   9.13319969      -2.28375447E-05
   9.14519978      -2.30185506E-05
   9.15719986      -2.30250153E-05
   9.16919994      -2.28608114E-05
   9.18120003      -2.25324620E-05
   9.19320011      -2.20489073E-05
   9.20520020      -2.14212687E-05
   9.21720028      -2.06626228E-05
   9.22920036      -1.97877634E-05
   9.24120045      -1.88129543E-05
   9.25319958      -1.77556594E-05
   9.26519966      -1.66342616E-05
   9.27719975      -1.54677400E-05
   9.28919983      -1.42753388E-05
   9.30119991      -1.30762246E-05
   9.31320000      -1.18891476E-05
   9.32520008      -1.07321221E-05
   9.33720016      -9.62212926E-06
   9.34920025      -8.57486975E-06
   9.36120033      -7.60454350E-06
   9.37320042      -6.72368697E-06
   9.38519955      -5.94303538E-06
   9.39719963      -5.27142402E-06
   9.40919971      -4.71570138E-06
   9.42119980      -4.28065687E-06
   9.43319988      -3.96895211E-06
   9.44519997      -3.78104528E-06
