 -0.622799993       0.00000000    
 -0.610800028       0.00000000    
 -0.598800004       0.00000000    
 -0.586799979       2.24932776E-16
 -0.574800014       9.60021001E-16
 -0.562799990       1.31284802E-15
 -0.550800025      -2.81534101E-15
 -0.538800001      -1.97907283E-14
 -0.526799977      -5.98695830E-14
 -0.514800012      -1.28149715E-13
 -0.502799988      -2.14911937E-13
 -0.490799993      -2.89289263E-13
 -0.478799999      -3.04080220E-13
 -0.466800004      -2.17076940E-13
 -0.454800010      -2.70482946E-14
 -0.442799985       1.87150154E-13
 -0.430799991       2.43328903E-13
 -0.418799996      -1.32238215E-13
 -0.406800002      -1.24859519E-12
 -0.394800007      -3.35824792E-12
 -0.382800013      -6.55869196E-12
 -0.370799989      -1.07296680E-11
 -0.358799994      -1.55471191E-11
 -0.346799999      -2.05958549E-11
 -0.334800005      -2.55709690E-11
 -0.322800010      -3.05236808E-11
 -0.310799986      -3.60846873E-11
 -0.298799992      -4.35967859E-11
 -0.286799997      -5.51123869E-11
 -0.274800003      -7.32526401E-11
 -0.262800008      -1.00969344E-10
 -0.250800014      -1.41281722E-10
 -0.238800004      -1.97065600E-10
 -0.226799995      -2.70949874E-10
 -0.214800000      -3.65336567E-10
 -0.202800006      -4.82515417E-10
 -0.190799996      -6.24814755E-10
 -0.178800002      -7.94723898E-10
 -0.166800007      -9.94934246E-10
 -0.154799998      -1.22827160E-09
 -0.142800003      -1.49751145E-09
 -0.130799994      -1.80507509E-09
 -0.118799999      -2.15259766E-09
 -0.106799997      -2.54034194E-09
  -9.48000029E-02  -2.96644509E-09
  -8.28000009E-02  -3.42601369E-09
  -7.07999989E-02  -3.91015442E-09
  -5.88000007E-02  -4.40510517E-09
  -4.67999987E-02  -4.89171681E-09
  -3.48000005E-02  -5.34555022E-09
  -2.28000004E-02  -5.73781600E-09
  -1.08000003E-02  -6.03727157E-09
   1.20000006E-03  -6.21303098E-09
   1.31999999E-02  -6.23807939E-09
   2.52000000E-02  -6.09315665E-09
   3.72000001E-02  -5.77065373E-09
   4.91999984E-02  -5.27818056E-09
   6.12000003E-02  -4.64156269E-09
   7.32000023E-02  -3.90708266E-09
   8.51999968E-02  -3.14277182E-09
   9.71999988E-02  -2.43850695E-09
  0.109200001      -1.90440397E-09
  0.121200003      -1.66692815E-09
  0.133200005      -1.86195026E-09
  0.145199999      -2.62416200E-09
  0.157199994      -4.07262357E-09
  0.169200003      -6.29285335E-09
  0.181199998      -9.31675181E-09
  0.193200007      -1.31024667E-08
  0.205200002      -1.75170758E-08
  0.217199996      -2.23252901E-08
  0.229200006      -2.71872818E-08
  0.241200000      -3.16682112E-08
  0.253199995      -3.52609462E-08
  0.265199989      -3.74221436E-08
  0.277200013      -3.76204596E-08
  0.289200008      -3.53940734E-08
  0.301200002      -3.04135490E-08
  0.313199997      -2.25448211E-08
  0.325199991      -1.19062786E-08
  0.337199986       1.08656906E-09
  0.349200010       1.56957771E-08
  0.361200005       3.08614680E-08
  0.373199999       4.52339428E-08
  0.385199994       5.72415289E-08
  0.397199988       6.51958629E-08
  0.409200013       6.74330281E-08
  0.421200007       6.24850003E-08
  0.433200002       4.92712822E-08
  0.445199996       2.72968848E-08
  0.457199991      -3.16155679E-09
  0.469199985      -4.09008827E-08
  0.481200010      -8.36884695E-08
  0.493200004      -1.28229473E-07
  0.505200028      -1.70218698E-07
  0.517199993      -2.04485147E-07
  0.529200017      -2.25228533E-07
  0.541199982      -2.26338713E-07
  0.553200006      -2.01778306E-07
  0.565199971      -1.46000133E-07
  0.577199996      -5.43631664E-08
  0.589200020       7.64957520E-08
  0.601199985       2.48376949E-07
  0.613200009       4.61363868E-07
  0.625199974       7.13835334E-07
  0.637199998       1.00267130E-06
  0.649200022       1.32366529E-06
  0.661199987       1.67213705E-06
  0.673200011       2.04372304E-06
  0.685199976       2.43530303E-06
  0.697200000       2.84599741E-06
  0.709200025       3.27816224E-06
  0.721199989       3.73829448E-06
  0.733200014       4.23775555E-06
  0.745199978       4.79323535E-06
  0.757200003       5.42686439E-06
  0.769200027       6.16593934E-06
  0.781199992       7.04221338E-06
  0.793200016       8.09075482E-06
  0.805199981       9.34840227E-06
  0.817200005       1.08518834E-05
  0.829200029       1.26356827E-05
  0.841199994       1.47297687E-05
  0.853200018       1.71573411E-05
  0.865199983       1.99327096E-05
  0.877200007       2.30594742E-05
  0.889199972       2.65291237E-05
  0.901199996       3.03201796E-05
  0.913200021       3.43979627E-05
  0.925199986       3.87150285E-05
  0.937200010       4.32122943E-05
  0.949199975       4.78208203E-05
  0.961199999       5.24641582E-05
  0.973200023       5.70611883E-05
  0.985199988       6.15293320E-05
  0.997200012       6.57879500E-05
   1.00919998       6.97617506E-05
   1.02119994       7.33840789E-05
   1.03320003       7.65999939E-05
   1.04519999       7.93687868E-05
   1.05719995       8.16661195E-05
   1.06920004       8.34853126E-05
   1.08120000       8.48381533E-05
   1.09319997       8.57548148E-05
   1.10520005       8.62831148E-05
   1.11720002       8.64870817E-05
   1.12919998       8.64448521E-05
   1.14119995       8.62459856E-05
   1.15320003       8.59883585E-05
   1.16520000       8.57746491E-05
   1.17719996       8.57086488E-05
   1.18920004       8.58913336E-05
   1.20120001       8.64171234E-05
   1.21319997       8.73700774E-05
   1.22520006       8.88205541E-05
   1.23720002       9.08220900E-05
   1.24919999       9.34089185E-05
   1.26119995       9.65939616E-05
   1.27320004       1.00367557E-04
   1.28520000       1.04696912E-04
   1.29719996       1.09526256E-04
   1.30920005       1.14777817E-04
   1.32120001       1.20353579E-04
   1.33319998       1.26137718E-04
   1.34519994       1.31999725E-04
   1.35720003       1.37798052E-04
   1.36919999       1.43384284E-04
   1.38119996       1.48607549E-04
   1.39320004       1.53319037E-04
   1.40520000       1.57376708E-04
   1.41719997       1.60649593E-04
   1.42920005       1.63021890E-04
   1.44120002       1.64396522E-04
   1.45319998       1.64698125E-04
   1.46519995       1.63875215E-04
   1.47720003       1.61901684E-04
   1.48920000       1.58777388E-04
   1.50119996       1.54527908E-04
   1.51320004       1.49203493E-04
   1.52520001       1.42877150E-04
   1.53719997       1.35642273E-04
   1.54920006       1.27609397E-04
   1.56120002       1.18902768E-04
   1.57319999       1.09656452E-04
   1.58519995       1.00010453E-04
   1.59720004       9.01067324E-05
   1.60920000       8.00854104E-05
   1.62119997       7.00813180E-05
   1.63320005       6.02208165E-05
   1.64520001       5.06192737E-05
   1.65719998       4.13789494E-05
   1.66919994       3.25875735E-05
   1.68120003       2.43175527E-05
   1.69319999       1.66257469E-05
   1.70519996       9.55385349E-06
   1.71720004       3.12933435E-06
   1.72920001      -2.63324546E-06
   1.74119997      -7.73052125E-06
   1.75320005      -1.21684152E-05
   1.76520002      -1.59600986E-05
   1.77719998      -1.91239760E-05
   1.78919995      -2.16817771E-05
   1.80120003      -2.36568812E-05
   1.81320000      -2.50729445E-05
   1.82519996      -2.59528970E-05
   1.83720005      -2.63183592E-05
   1.84920001      -2.61895020E-05
   1.86119998      -2.55853047E-05
   1.87320006      -2.45242081E-05
   1.88520002      -2.30250498E-05
   1.89719999      -2.11081842E-05
   1.90919995      -1.87967453E-05
   1.92120004      -1.61178214E-05
   1.93320000      -1.31035413E-05
   1.94519997      -9.79186188E-06
   1.95720005      -6.22704738E-06
   1.96920002      -2.45974456E-06
   1.98119998       1.45341073E-06
   1.99319994       5.45062039E-06
   2.00519991       9.46618275E-06
   2.01719999       1.34321426E-05
   2.02920008       1.72802429E-05
   2.04119992       2.09440641E-05
   2.05320001       2.43612321E-05
   2.06520009       2.74755748E-05
   2.07719994       3.02390818E-05
   2.08920002       3.26135887E-05
   2.10120010       3.45720437E-05
   2.11319995       3.60993618E-05
   2.12520003       3.71927599E-05
   2.13720012       3.78616278E-05
   2.14919996       3.81269601E-05
   2.16120005       3.80203455E-05
   2.17319989       3.75826276E-05
   2.18519998       3.68622495E-05
   2.19720006       3.59134319E-05
   2.20919991       3.47942369E-05
   2.22119999       3.35645491E-05
   2.23320007       3.22841479E-05
   2.24519992       3.10108662E-05
   2.25720000       2.97989282E-05
   2.26920009       2.86974991E-05
   2.28119993       2.77494328E-05
   2.29320002       2.69902830E-05
   2.30520010       2.64475202E-05
   2.31719995       2.61399728E-05
   2.32920003       2.60774686E-05
   2.34120011       2.62606809E-05
   2.35319996       2.66812021E-05
   2.36520004       2.73218011E-05
   2.37719989       2.81569774E-05
   2.38919997       2.91537053E-05
   2.40120006       3.02724784E-05
   2.41319990       3.14685603E-05
   2.42519999       3.26934569E-05
   2.43720007       3.38965765E-05
   2.44919991       3.50270166E-05
   2.46120000       3.60354534E-05
   2.47320008       3.68760848E-05
   2.48519993       3.75084746E-05
   2.49720001       3.78993973E-05
   2.50920010       3.80244201E-05
   2.52119994       3.78692930E-05
   2.53320003       3.74309384E-05
   2.54520011       3.67180655E-05
   2.55719995       3.57512945E-05
   2.56920004       3.45627304E-05
   2.58119988       3.31950505E-05
   2.59319997       3.17000231E-05
   2.60520005       3.01365926E-05
   2.61719990       2.85685619E-05
   2.62919998       2.70619876E-05
   2.64120007       2.56823896E-05
   2.65319991       2.44918938E-05
   2.66520000       2.35464649E-05
   2.67720008       2.28933532E-05
   2.68919992       2.25688582E-05
   2.70120001       2.25965996E-05
   2.71320009       2.29863235E-05
   2.72519994       2.37333861E-05
   2.73720002       2.48188917E-05
   2.74920011       2.62105605E-05
   2.76119995       2.78642183E-05
   2.77320004       2.97258521E-05
   2.78520012       3.17341510E-05
   2.79719996       3.38233222E-05
   2.80920005       3.59260703E-05
   2.82119989       3.79766207E-05
   2.83319998       3.99134842E-05
   2.84520006       4.16820258E-05
   2.85719991       4.32364941E-05
   2.86919999       4.45415462E-05
   2.88120008       4.55731897E-05
   2.89319992       4.63190190E-05
   2.90520000       4.67778991E-05
   2.91720009       4.69589831E-05
   2.92919993       4.68802900E-05
   2.94120002       4.65669109E-05
   2.95320010       4.60489828E-05
   2.96519995       4.53595712E-05
   2.97720003       4.45326186E-05
   2.98920012       4.36010814E-05
   3.00119996       4.25953476E-05
   3.01320004       4.15420254E-05
   3.02519989       4.04630919E-05
   3.03719997       3.93755290E-05
   3.04920006       3.82912913E-05
   3.06119990       3.72176437E-05
   3.07319999       3.61578241E-05
   3.08520007       3.51118833E-05
   3.09719992       3.40776969E-05
   3.10920000       3.30520124E-05
   3.12120008       3.20314321E-05
   3.13319993       3.10133728E-05
   3.14520001       2.99968124E-05
   3.15720010       2.89828949E-05
   3.16919994       2.79753385E-05
   3.18120003       2.69806678E-05
   3.19320011       2.60082688E-05
   3.20519996       2.50702942E-05
   3.21720004       2.41814614E-05
   3.22919989       2.33587052E-05
   3.24119997       2.26207630E-05
   3.25320005       2.19876656E-05
   3.26519990       2.14801476E-05
   3.27719998       2.11189890E-05
   3.28920007       2.09243135E-05
   3.30119991       2.09148020E-05
   3.31320000       2.11068800E-05
   3.32520008       2.15138953E-05
   3.33719993       2.21452501E-05
   3.34920001       2.30055975E-05
   3.36120009       2.40940608E-05
   3.37319994       2.54035713E-05
   3.38520002       2.69203283E-05
   3.39720011       2.86234863E-05
   3.40919995       3.04850619E-05
   3.42120004       3.24701323E-05
   3.43319988       3.45373410E-05
   3.44519997       3.66397217E-05
   3.45720005       3.87258551E-05
   3.46919990       4.07413063E-05
   3.48119998       4.26302831E-05
   3.49320006       4.43375029E-05
   3.50519991       4.58101676E-05
   3.51719999       4.69999432E-05
   3.52920008       4.78648617E-05
   3.54119992       4.83711046E-05
   3.55320001       4.84945413E-05
   3.56520009       4.82219293E-05
   3.57719994       4.75517591E-05
   3.58920002       4.64947007E-05
   3.60120010       4.50735861E-05
   3.61319995       4.33229579E-05
   3.62520003       4.12882000E-05
   3.63720012       3.90242421E-05
   3.64919996       3.65939195E-05
   3.66120005       3.40660663E-05
   3.67319989       3.15133293E-05
   3.68519998       2.90098669E-05
   3.69720006       2.66289462E-05
   3.70919991       2.44405492E-05
   3.72119999       2.25090662E-05
   3.73320007       2.08911679E-05
   3.74519992       1.96338951E-05
   3.75720000       1.87730748E-05
   3.76920009       1.83320972E-05
   3.78119993       1.83210923E-05
   3.79320002       1.87365695E-05
   3.80520010       1.95614703E-05
   3.81719995       2.07657013E-05
   3.82920003       2.23070929E-05
   3.84120011       2.41327634E-05
   3.85319996       2.61808582E-05
   3.86520004       2.83826103E-05
   3.87719989       3.06646543E-05
   3.88919997       3.29515315E-05
   3.90120006       3.51682720E-05
   3.91319990       3.72429931E-05
   3.92519999       3.91094400E-05
   3.93720007       4.07092957E-05
   3.94919991       4.19942480E-05
   3.96120000       4.29276988E-05
   3.97320008       4.34860631E-05
   3.98519993       4.36596129E-05
   3.99720001       4.34527792E-05
   4.00920010       4.28839667E-05
   4.02120018       4.19847820E-05
   4.03319979       4.07987827E-05
   4.04519987       3.93797018E-05
   4.05719995       3.77892720E-05
   4.06920004       3.60946760E-05
   4.08120012       3.43657593E-05
   4.09320021       3.26721311E-05
   4.10519981       3.10802352E-05
   4.11719990       2.96505823E-05
   4.12919998       2.84352336E-05
   4.14120007       2.74756512E-05
   4.15320015       2.68010590E-05
   4.16520023       2.64273167E-05
   4.17719984       2.63564725E-05
   4.18919992       2.65769322E-05
   4.20120001       2.70643377E-05
   4.21320009       2.77830313E-05
   4.22520018       2.86881732E-05
   4.23719978       2.97282713E-05
   4.24919987       3.08481031E-05
   4.26119995       3.19918108E-05
   4.27320004       3.31060073E-05
   4.28520012       3.41427221E-05
   4.29720020       3.50619775E-05
   4.30919981       3.58339130E-05
   4.32119989       3.64402513E-05
   4.33319998       3.68750989E-05
   4.34520006       3.71450078E-05
   4.35720015       3.72682916E-05
   4.36920023       3.72736904E-05
   4.38119984       3.71983551E-05
   4.39319992       3.70853959E-05
   4.40520000       3.69810296E-05
   4.41720009       3.69315967E-05
   4.42920017       3.69804984E-05
   4.44119978       3.71653914E-05
   4.45319986       3.75157178E-05
   4.46519995       3.80507445E-05
   4.47720003       3.87782748E-05
   4.48920012       3.96940741E-05
   4.50120020       4.07820153E-05
   4.51319981       4.20149445E-05
   4.52519989       4.33561981E-05
   4.53719997       4.47616403E-05
   4.54920006       4.61820891E-05
   4.56120014       4.75660017E-05
   4.57320023       4.88621990E-05
   4.58519983       5.00225797E-05
   4.59719992       5.10045247E-05
   4.60920000       5.17730477E-05
   4.62120008       5.23023955E-05
   4.63320017       5.25771538E-05
   4.64519978       5.25928190E-05
   4.65719986       5.23557319E-05
   4.66919994       5.18825218E-05
   4.68120003       5.11990620E-05
   4.69320011       5.03390693E-05
   4.70520020       4.93423940E-05
   4.71719980       4.82531614E-05
   4.72919989       4.71178646E-05
   4.74119997       4.59834810E-05
   4.75320005       4.48957326E-05
   4.76520014       4.38974894E-05
   4.77720022       4.30274049E-05
   4.78919983       4.23188394E-05
   4.80119991       4.17989977E-05
   4.81320000       4.14883543E-05
   4.82520008       4.14003225E-05
   4.83720016       4.15411232E-05
   4.84919977       4.19098651E-05
   4.86119986       4.24987738E-05
   4.87319994       4.32935849E-05
   4.88520002       4.42740129E-05
   4.89720011       4.54143774E-05
   4.90920019       4.66842976E-05
   4.92119980       4.80495219E-05
   4.93319988       4.94728010E-05
   4.94519997       5.09149249E-05
   4.95720005       5.23357885E-05
   4.96920013       5.36955376E-05
   4.98120022       5.49557590E-05
   4.99319983       5.60806511E-05
   5.00519991       5.70381490E-05
   5.01719999       5.78010113E-05
   5.02920008       5.83476904E-05
   5.04120016       5.86631431E-05
   5.05319977       5.87393588E-05
   5.06519985       5.85756898E-05
   5.07719994       5.81789318E-05
   5.08920002       5.75631420E-05
   5.10120010       5.67491843E-05
   5.11320019       5.57640960E-05
   5.12519979       5.46402225E-05
   5.13719988       5.34141982E-05
   5.14919996       5.21257898E-05
   5.16120005       5.08166740E-05
   5.17320013       4.95291679E-05
   5.18520021       4.83049516E-05
   5.19719982       4.71838284E-05
   5.20919991       4.62025419E-05
   5.22119999       4.53936627E-05
   5.23320007       4.47846614E-05
   5.24520016       4.43970457E-05
   5.25719976       4.42457131E-05
   5.26919985       4.43384524E-05
   5.28119993       4.46756785E-05
   5.29320002       4.52502718E-05
   5.30520010       4.60476622E-05
   5.31720018       4.70460873E-05
   5.32919979       4.82170253E-05
   5.34119987       4.95258428E-05
   5.35319996       5.09325946E-05
   5.36520004       5.23930175E-05
   5.37720013       5.38597706E-05
   5.38920021       5.52836900E-05
   5.40119982       5.66153030E-05
   5.41319990       5.78063118E-05
   5.42519999       5.88111325E-05
   5.43720007       5.95883794E-05
   5.44920015       6.01022366E-05
   5.46120024       6.03236622E-05
   5.47319984       6.02313958E-05
   5.48519993       5.98127262E-05
   5.49720001       5.90640302E-05
   5.50920010       5.79909611E-05
   5.52120018       5.66084273E-05
   5.53319979       5.49401666E-05
   5.54519987       5.30181496E-05
   5.55719995       5.08816120E-05
   5.56920004       4.85758683E-05
   5.58120012       4.61509553E-05
   5.59320021       4.36600822E-05
   5.60519981       4.11580440E-05
   5.61719990       3.86995853E-05
   5.62919998       3.63378458E-05
   5.64120007       3.41228442E-05
   5.65320015       3.21001935E-05
   5.66520023       3.03099059E-05
   5.67719984       2.87854818E-05
   5.68919992       2.75531747E-05
   5.70120001       2.66315274E-05
   5.71320009       2.60311135E-05
   5.72520018       2.57545780E-05
   5.73719978       2.57968513E-05
   5.74919987       2.61456171E-05
   5.76119995       2.67819505E-05
   5.77320004       2.76811061E-05
   5.78520012       2.88134288E-05
   5.79720020       3.01453438E-05
   5.80919981       3.16403748E-05
   5.82119989       3.32601594E-05
   5.83319998       3.49654438E-05
   5.84520006       3.67170360E-05
   5.85720015       3.84766790E-05
   5.86920023       4.02078513E-05
   5.88119984       4.18764685E-05
   5.89319992       4.34514513E-05
   5.90520000       4.49052532E-05
   5.91720009       4.62142052E-05
   5.92920017       4.73587679E-05
   5.94119978       4.83236436E-05
   5.95319986       4.90977654E-05
   5.96519995       4.96741377E-05
   5.97720003       5.00495516E-05
   5.98920012       5.02242037E-05
   6.00120020       5.02012263E-05
   6.01319981       4.99861271E-05
   6.02519989       4.95862078E-05
   6.03719997       4.90099992E-05
   6.04920006       4.82667056E-05
   6.06120014       4.73657128E-05
   6.07320023       4.63162251E-05
   6.08519983       4.51269625E-05
   6.09719992       4.38060451E-05
   6.10920000       4.23609599E-05
   6.12120008       4.07987063E-05
   6.13320017       3.91260255E-05
   6.14519978       3.73497896E-05
   6.15719986       3.54774056E-05
   6.16919994       3.35173281E-05
   6.18120003       3.14795398E-05
   6.19320011       2.93759913E-05
   6.20520020       2.72209381E-05
   6.21719980       2.50311386E-05
   6.22919989       2.28258668E-05
   6.24119997       2.06267596E-05
   6.25320005       1.84574365E-05
   6.26520014       1.63429850E-05
   6.27720022       1.43093303E-05
   6.28919983       1.23825112E-05
   6.30119991       1.05879863E-05
   6.31320000       8.94995264E-06
   6.32520008       7.49075934E-06
   6.33720016       6.23045980E-06
   6.34919977       5.18647130E-06
   6.36119986       4.37337758E-06
   6.37319994       3.80287383E-06
   6.38520002       3.48381946E-06
   6.39720011       3.42238377E-06
   6.40920019       3.62224682E-06
   6.42119980       4.08484857E-06
   6.43319988       4.80959716E-06
   6.44519997       5.79404696E-06
   6.45720005       7.03394835E-06
   6.46920013       8.52319772E-06
   6.48120022       1.02536105E-05
   6.49319983       1.22145966E-05
   6.50519991       1.43926954E-05
   6.51719999       1.67710950E-05
   6.52920008       1.93291489E-05
   6.54120016       2.20420043E-05
   6.55319977       2.48804026E-05
   6.56519985       2.78107273E-05
   6.57719994       3.07953014E-05
   6.58920002       3.37929778E-05
   6.60120010       3.67600151E-05
   6.61320019       3.96511859E-05
   6.62519979       4.24210921E-05
   6.63719988       4.50256011E-05
   6.64919996       4.74233566E-05
   6.66120005       4.95772510E-05
   6.67320013       5.14558196E-05
   6.68520021       5.30343896E-05
   6.69719982       5.42960079E-05
   6.70919991       5.52319070E-05
   6.72119999       5.58416396E-05
   6.73320007       5.61327433E-05
   6.74520016       5.61199777E-05
   6.75719976       5.58241882E-05
   6.76919985       5.52708952E-05
   6.78119993       5.44887262E-05
   6.79320002       5.35077852E-05
   6.80520010       5.23580711E-05
   6.81720018       5.10681275E-05
   6.82919979       4.96639332E-05
   6.84119987       4.81681382E-05
   6.85319996       4.65996709E-05
   6.86520004       4.49737599E-05
   6.87720013       4.33022688E-05
   6.88920021       4.15944160E-05
   6.90119982       3.98577286E-05
   6.91319990       3.80991696E-05
   6.92519999       3.63263280E-05
   6.93720007       3.45485678E-05
   6.94920015       3.27780108E-05
   6.96120024       3.10302639E-05
   6.97319984       2.93248304E-05
   6.98519993       2.76851224E-05
   6.99720001       2.61381065E-05
   7.00920010       2.47135886E-05
   7.02120018       2.34431718E-05
   7.03319979       2.23590032E-05
   7.04519987       2.14923366E-05
   7.05719995       2.08720739E-05
   7.06920004       2.05232973E-05
   7.08120012       2.04659646E-05
   7.09320021       2.07137655E-05
   7.10519981       2.12732484E-05
   7.11719990       2.21432601E-05
   7.12919998       2.33146802E-05
   7.14120007       2.47705029E-05
   7.15320015       2.64861992E-05
   7.16520023       2.84303678E-05
   7.17719984       3.05655849E-05
   7.18919992       3.28494243E-05
   7.20120001       3.52355819E-05
   7.21320009       3.76751050E-05
   7.22520018       4.01176003E-05
   7.23719978       4.25124817E-05
   7.24919987       4.48101637E-05
   7.26119995       4.69632323E-05
   7.27320004       4.89275044E-05
   7.28520012       5.06630531E-05
   7.29720020       5.21351139E-05
   7.30919981       5.33148668E-05
   7.32119989       5.41801710E-05
   7.33319998       5.47161289E-05
   7.34520006       5.49155666E-05
   7.35720015       5.47794189E-05
   7.36920023       5.43169117E-05
   7.38119984       5.35456165E-05
   7.39319992       5.24912939E-05
   7.40520000       5.11874750E-05
   7.41720009       4.96747743E-05
   7.42920017       4.79999617E-05
   7.44119978       4.62147400E-05
   7.45319986       4.43743083E-05
   7.46519995       4.25357321E-05
   7.47720003       4.07562402E-05
   7.48920012       3.90914283E-05
   7.50120020       3.75935488E-05
   7.51319981       3.63098152E-05
   7.52519989       3.52809075E-05
   7.53719997       3.45396365E-05
   7.54920006       3.41098748E-05
   7.56120014       3.40057704E-05
   7.57320023       3.42313106E-05
   7.58519983       3.47802015E-05
   7.59719992       3.56361779E-05
   7.60920000       3.67736175E-05
   7.62120008       3.81584978E-05
   7.63320017       3.97496515E-05
   7.64519978       4.15001850E-05
   7.65719986       4.33590867E-05
   7.66919994       4.52728527E-05
   7.68120003       4.71871499E-05
   7.69320011       4.90484163E-05
   7.70520020       5.08053854E-05
   7.71719980       5.24104544E-05
   7.72919989       5.38208915E-05
   7.74119997       5.49999131E-05
   7.75320005       5.59174805E-05
   7.76520014       5.65509181E-05
   7.77720022       5.68852629E-05
   7.78919983       5.69134536E-05
   7.80119991       5.66362141E-05
   7.81320000       5.60617773E-05
   7.82520008       5.52054225E-05
   7.83720016       5.40888650E-05
   7.84919977       5.27394695E-05
   7.86119986       5.11894068E-05
   7.87319994       4.94746600E-05
   7.88520002       4.76339992E-05
   7.89720011       4.57079004E-05
   7.90920019       4.37374947E-05
   7.92119980       4.17634983E-05
   7.93319988       3.98252268E-05
   7.94519997       3.79597623E-05
   7.95720005       3.62011779E-05
   7.96920013       3.45799599E-05
   7.98120022       3.31225601E-05
   7.99319983       3.18511156E-05
   8.00520039       3.07832852E-05
   8.01720047       2.99322091E-05
   8.02919960       2.93065768E-05
   8.04119968       2.89107775E-05
   8.05319977       2.87451094E-05
   8.06519985       2.88060328E-05
   8.07719994       2.90864573E-05
   8.08920002       2.95760674E-05
   8.10120010       3.02616081E-05
   8.11320019       3.11271833E-05
   8.12520027       3.21545413E-05
   8.13720036       3.33233183E-05
   8.14920044       3.46113120E-05
   8.16119957       3.59947553E-05
   8.17319965       3.74485935E-05
   8.18519974       3.89468623E-05
   8.19719982       4.04630919E-05
   8.20919991       4.19708231E-05
   8.22119999       4.34441608E-05
   8.23320007       4.48584215E-05
   8.24520016       4.61907948E-05
   8.25720024       4.74209737E-05
   8.26920033       4.85318014E-05
   8.28120041       4.95097338E-05
   8.29319954       5.03452502E-05
   8.30519962       5.10330356E-05
   8.31719971       5.15720021E-05
   8.32919979       5.19651112E-05
   8.34119987       5.22190021E-05
   8.35319996       5.23434901E-05
   8.36520004       5.23508534E-05
   8.37720013       5.22550908E-05
   8.38920021       5.20710564E-05
   8.40120029       5.18136258E-05
   8.41320038       5.14968888E-05
   8.42520046       5.11334074E-05
   8.43719959       5.07336481E-05
   8.44919968       5.03055962E-05
   8.46119976       4.98545560E-05
   8.47319984       4.93832267E-05
   8.48519993       4.88920014E-05
   8.49720001       4.83794611E-05
   8.50920010       4.78430411E-05
   8.52120018       4.72797947E-05
   8.53320026       4.66872370E-05
   8.54520035       4.60640877E-05
   8.55720043       4.54109868E-05
   8.56919956       4.47310340E-05
   8.58119965       4.40301956E-05
   8.59319973       4.33174500E-05
   8.60519981       4.26047955E-05
   8.61719990       4.19069547E-05
   8.62919998       4.12409136E-05
   8.64120007       4.06252075E-05
   8.65320015       4.00790341E-05
   8.66520023       3.96212054E-05
   8.67720032       3.92690417E-05
   8.68920040       3.90371824E-05
   8.70119953       3.89365123E-05
   8.71319962       3.89731831E-05
   8.72519970       3.91478679E-05
   8.73719978       3.94552553E-05
   8.74919987       3.98838456E-05
   8.76119995       4.04160164E-05
   8.77320004       4.10284556E-05
   8.78520012       4.16928160E-05
   8.79720020       4.23766687E-05
   8.80920029       4.30447071E-05
   8.82120037       4.36601331E-05
   8.83320045       4.41862430E-05
   8.84519958       4.45880687E-05
   8.85719967       4.48340725E-05
   8.86919975       4.48977880E-05
   8.88119984       4.47592611E-05
   8.89319992       4.44063080E-05
   8.90520000       4.38353964E-05
   8.91720009       4.30521432E-05
   8.92920017       4.20713877E-05
   8.94120026       4.09168606E-05
   8.95320034       3.96203905E-05
   8.96520042       3.82207363E-05
   8.97719955       3.67621324E-05
   8.98919964       3.52925163E-05
   9.00119972       3.38616301E-05
   9.01319981       3.25189685E-05
   9.02519989       3.13117671E-05
   9.03719997       3.02830667E-05
   9.04920006       2.94699767E-05
   9.06120014       2.89022082E-05
   9.07320023       2.86009745E-05
   9.08520031       2.85782880E-05
   9.09720039       2.88366755E-05
   9.10919952       2.93693447E-05
   9.12119961       3.01607288E-05
   9.13319969       3.11873919E-05
   9.14519978       3.24191897E-05
   9.15719986       3.38206773E-05
   9.16919994       3.53525720E-05
   9.18120003       3.69733207E-05
   9.19320011       3.86405773E-05
   9.20520020       4.03126105E-05
   9.21720028       4.19495227E-05
   9.22920036       4.35142829E-05
   9.24120045       4.49734835E-05
   9.25319958       4.62979078E-05
   9.26519966       4.74628032E-05
   9.27719975       4.84479970E-05
   9.28919983       4.92378022E-05
   9.30119991       4.98208356E-05
   9.31320000       5.01897484E-05
   9.32520008       5.03409537E-05
   9.33720016       5.02743314E-05
   9.34920025       4.99930175E-05
   9.36120033       4.95031964E-05
   9.37320042       4.88139922E-05
   9.38519955       4.79373884E-05
   9.39719963       4.68882245E-05
   9.40919971       4.56841371E-05
   9.42119980       4.43455683E-05
   9.43319988       4.28956591E-05
   9.44519997       4.13601265E-05
