 -0.622799993       0.00000000    
 -0.610800028       0.00000000    
 -0.598800004       0.00000000    
 -0.586799979       0.00000000    
 -0.574800014       2.79755296E-25
 -0.562799990      -1.25172810E-24
 -0.550800025      -2.09506831E-23
 -0.538800001      -1.10640279E-22
 -0.526799977      -3.76298996E-22
 -0.514800012      -9.92711853E-22
 -0.502799988      -2.27533072E-21
 -0.490799993      -4.96252468E-21
 -0.478799999      -1.08613217E-20
 -0.466800004      -2.37422646E-20
 -0.454800010      -4.97768115E-20
 -0.442799985      -9.61824291E-20
 -0.430799991      -1.66789300E-19
 -0.418799996      -2.54798564E-19
 -0.406800002      -3.36269237E-19
 -0.394800007      -3.71570203E-19
 -0.382800013      -3.23165016E-19
 -0.370799989      -1.93028166E-19
 -0.358799994      -7.00836723E-20
 -0.346799999      -1.60743062E-19
 -0.334800005      -7.63837551E-19
 -0.322800010      -2.15878155E-18
 -0.310799986      -4.41272485E-18
 -0.298799992      -7.17478348E-18
 -0.286799997      -9.58801261E-18
 -0.274800003      -1.04692693E-17
 -0.262800008      -8.83989475E-18
 -0.250800014      -4.72154487E-18
 -0.238800004       1.15845133E-19
 -0.226799995       1.94565908E-18
 -0.214800000      -4.10484698E-18
 -0.202800006      -2.20576081E-17
 -0.190799996      -5.23328024E-17
 -0.178800002      -8.93724712E-17
 -0.166800007      -1.21205505E-16
 -0.154799998      -1.32306268E-16
 -0.142800003      -1.10005585E-16
 -0.130799994      -5.28948054E-17
 -0.118799999       2.22411330E-17
 -0.106799997       7.94177562E-17
  -9.48000029E-02   7.19290386E-17
  -8.28000009E-02  -3.93510629E-17
  -7.07999989E-02  -2.62427562E-16
  -5.88000007E-02  -5.54841944E-16
  -4.67999987E-02  -8.20226896E-16
  -3.48000005E-02  -9.29842382E-16
  -2.28000004E-02  -7.69902656E-16
  -1.08000003E-02  -3.03282132E-16
   1.20000006E-03   3.77630846E-16
   1.31999999E-02   1.03572404E-15
   2.52000000E-02   1.33456987E-15
   3.72000001E-02   9.48607232E-16
   4.91999984E-02  -2.85707787E-16
   6.12000003E-02  -2.22921686E-15
   7.32000023E-02  -4.37592467E-15
   8.51999968E-02  -5.92212741E-15
   9.71999988E-02  -5.98813034E-15
  0.109200001      -3.95355296E-15
  0.121200003       1.93640731E-16
  0.133200005       5.63255649E-15
  0.145199999       1.07403837E-14
  0.157199994       1.34475781E-14
  0.169200003       1.18776576E-14
  0.181199998       5.10974277E-15
  0.193200007      -6.18952470E-15
  0.205200002      -1.95352835E-14
  0.217199996      -3.09841738E-14
  0.229200006      -3.61026584E-14
  0.241200000      -3.13468124E-14
  0.253199995      -1.54681277E-14
  0.265199989       9.52761633E-15
  0.277200013       3.82781507E-14
  0.289200008       6.30135186E-14
  0.301200002       7.54354668E-14
  0.313199997       6.90887235E-14
  0.325199991       4.15717469E-14
  0.337199986      -4.09245747E-15
  0.349200010      -5.94206013E-14
  0.361200005      -1.11914052E-13
  0.373199999      -1.47719619E-13
  0.385199994      -1.54896549E-13
  0.397199988      -1.26505875E-13
  0.409200013      -6.27799136E-14
  0.421200007       2.81388529E-14
  0.433200002       1.31065582E-13
  0.445199996       2.26091403E-13
  0.457199991       2.91949706E-13
  0.469199985       3.09899404E-13
  0.481200010       2.67558030E-13
  0.493200004       1.62124505E-13
  0.505200028       2.43798465E-15
  0.517199993      -1.90660083E-13
  0.529200017      -3.86102961E-13
  0.541199982      -5.46708566E-13
  0.553200006      -6.35367356E-13
  0.565199971      -6.22450821E-13
  0.577199996      -4.92995835E-13
  0.589200020      -2.51887243E-13
  0.601199985       7.45796315E-14
  0.613200009       4.41635986E-13
  0.625199974       7.93157532E-13
  0.637199998       1.07135362E-12
  0.649200022       1.22652517E-12
  0.661199987       1.22433682E-12
  0.673200011       1.04899076E-12
  0.685199976       7.02409702E-13
  0.697200000       2.01347592E-13
  0.709200025      -4.24558663E-13
  0.721199989      -1.13114726E-12
  0.733200014      -1.85386840E-12
  0.745199978      -2.50022962E-12
  0.757200003      -2.94616003E-12
  0.769200027      -3.04337588E-12
  0.781199992      -2.64336990E-12
  0.793200016      -1.63886179E-12
  0.805199981      -1.63074883E-14
  0.817200005       2.09446089E-12
  0.829200029       4.39231550E-12
  0.841199994       6.41706176E-12
  0.853200018       7.61316184E-12
  0.865199983       7.44316674E-12
  0.877200007       5.53297382E-12
  0.889199972       1.81648793E-12
  0.901199996      -3.36043346E-12
  0.913200021      -9.21434977E-12
  0.925199986      -1.46004823E-11
  0.937200010      -1.81914744E-11
  0.949199975      -1.87329458E-11
  0.961199999      -1.53275032E-11
  0.973200023      -7.68653977E-12
  0.985199988       3.70871042E-12
  0.997200012       1.75786555E-11
   1.00919998       3.19640356E-11
   1.02119994       4.44757564E-11
   1.03320003       5.26332831E-11
   1.04519999       5.42330764E-11
   1.05719995       4.76856540E-11
   1.06920004       3.22685802E-11
   1.08120000       8.25800105E-12
   1.09319997      -2.30831205E-11
   1.10520005      -5.96710181E-11
   1.11720002      -9.89299198E-11
   1.12919998      -1.38293488E-10
   1.14119995      -1.75892134E-10
   1.15320003      -2.11435411E-10
   1.16520000      -2.47283471E-10
   1.17719996      -2.89671870E-10
   1.18920004      -3.50014101E-10
   1.20120001      -4.46164522E-10
   1.21319997      -6.03497197E-10
   1.22520006      -8.55656712E-10
   1.23720002      -1.24486099E-09
   1.24919999      -1.82174908E-09
   1.26119995      -2.64488431E-09
   1.27320004      -3.78022103E-09
   1.28520000      -5.30113553E-09
   1.29719996      -7.28976834E-09
   1.30920005      -9.84083659E-09
   1.32120001      -1.30692781E-08
   1.33319998      -1.71232362E-08
   1.34519994      -2.22040839E-08
   1.35720003      -2.85951760E-08
   1.36919999      -3.67007118E-08
   1.38119996      -4.70958419E-08
   1.39320004      -6.05884267E-08
   1.40520000      -7.82919969E-08
   1.41719997      -1.01708288E-07
   1.42920005      -1.32816638E-07
   1.44120002      -1.74166374E-07
   1.45319998      -2.28966400E-07
   1.46519995      -3.01165045E-07
   1.47720003      -3.95513155E-07
   1.48920000      -5.17601848E-07
   1.50119996      -6.73865884E-07
   1.51320004      -8.71545808E-07
   1.52520001      -1.11860015E-06
   1.53719997      -1.42356441E-06
   1.54920006      -1.79535004E-06
   1.56120002      -2.24298651E-06
   1.57319999      -2.77530421E-06
   1.58519995      -3.40056545E-06
   1.59720004      -4.12605368E-06
   1.60920000      -4.95762470E-06
   1.62119997      -5.89924230E-06
   1.63320005      -6.95250765E-06
   1.64520001      -8.11620885E-06
   1.65719998      -9.38590256E-06
   1.66919994      -1.07535543E-05
   1.68120003      -1.22072588E-05
   1.69319999      -1.37310672E-05
   1.70519996      -1.53049186E-05
   1.71720004      -1.69047325E-05
   1.72920001      -1.85026438E-05
   1.74119997      -2.00673967E-05
   1.75320005      -2.15649179E-05
   1.76520002      -2.29590514E-05
   1.77719998      -2.42124534E-05
   1.78919995      -2.52876180E-05
   1.80120003      -2.61480254E-05
   1.81320000      -2.67593805E-05
   1.82519996      -2.70908695E-05
   1.83720005      -2.71164135E-05
   1.84920001      -2.68158783E-05
   1.86119998      -2.61761179E-05
   1.87320006      -2.51918718E-05
   1.88520002      -2.38664015E-05
   1.89719999      -2.22118397E-05
   1.90919995      -2.02492138E-05
   1.92120004      -1.80080879E-05
   1.93320000      -1.55258567E-05
   1.94519997      -1.28466572E-05
   1.95720005      -1.00199513E-05
   1.96920002      -7.09883125E-06
   1.98119998      -4.13809084E-06
   1.99319994      -1.19218328E-06
   2.00519991       1.68685915E-06
   2.01719999       4.45142450E-06
   2.02920008       7.06013452E-06
   2.04119992       9.47937497E-06
   2.05320001       1.16844421E-05
   2.06520009       1.36602384E-05
   2.07719994       1.54014779E-05
   2.08920002       1.69123759E-05
   2.10120010       1.82058266E-05
   2.11319995       1.93021406E-05
   2.12520003       2.02273950E-05
   2.13720012       2.10114922E-05
   2.14919996       2.16860681E-05
   2.16120005       2.22823583E-05
   2.17319989       2.28291610E-05
   2.18519998       2.33510345E-05
   2.19720006       2.38668254E-05
   2.20919991       2.43886479E-05
   2.22119999       2.49213354E-05
   2.23320007       2.54624301E-05
   2.24519992       2.60026973E-05
   2.25720000       2.65271210E-05
   2.26920009       2.70163109E-05
   2.28119993       2.74482118E-05
   2.29320002       2.78000225E-05
   2.30520010       2.80501772E-05
   2.31719995       2.81802368E-05
   2.32920003       2.81766024E-05
   2.34120011       2.80319018E-05
   2.35319996       2.77459731E-05
   2.36520004       2.73263868E-05
   2.37719989       2.67884516E-05
   2.38919997       2.61547411E-05
   2.40120006       2.54541446E-05
   2.41319990       2.47205171E-05
   2.42519999       2.39910223E-05
   2.43720007       2.33042738E-05
   2.44919991       2.26983720E-05
   2.46120000       2.22089857E-05
   2.47320008       2.18675541E-05
   2.48519993       2.16997378E-05
   2.49720001       2.17241704E-05
   2.50920010       2.19515641E-05
   2.52119994       2.23842271E-05
   2.53320003       2.30159421E-05
   2.54520011       2.38322300E-05
   2.55719995       2.48109045E-05
   2.56920004       2.59229273E-05
   2.58119988       2.71334229E-05
   2.59319997       2.84028411E-05
   2.60520005       2.96881735E-05
   2.61719990       3.09441712E-05
   2.62919998       3.21245461E-05
   2.64120007       3.31830670E-05
   2.65319991       3.40746374E-05
   2.66520000       3.47562236E-05
   2.67720008       3.51877716E-05
   2.68919992       3.53330470E-05
   2.70120001       3.51604176E-05
   2.71320009       3.46436136E-05
   2.72519994       3.37624333E-05
   2.73720002       3.25033725E-05
   2.74920011       3.08601266E-05
   2.76119995       2.88339561E-05
   2.77320004       2.64337650E-05
   2.78520012       2.36759024E-05
   2.79719996       2.05835859E-05
   2.80920005       1.71858792E-05
   2.82119989       1.35162327E-05
   2.83319998       9.61053956E-06
   2.84520006       5.50480945E-06
   2.85719991       1.23248026E-06
   2.86919999      -3.17846639E-06
   2.88120008      -7.70846418E-06
   2.89319992      -1.23491563E-05
   2.90520000      -1.71058582E-05
   2.91720009      -2.19994727E-05
   2.92919993      -2.70675773E-05
   2.94120002      -3.23646636E-05
   2.95320010      -3.79612029E-05
   2.96519995      -4.39416181E-05
   2.97720003      -5.04010786E-05
   2.98920012      -5.74411788E-05
   3.00119996      -6.51646988E-05
   3.01320004      -7.36696020E-05
   3.02519989      -8.30425706E-05
   3.03719997      -9.33523988E-05
   3.04920006      -1.04643659E-04
   3.06119990      -1.16930772E-04
   3.07319999      -1.30193177E-04
   3.08520007      -1.44371617E-04
   3.09719992      -1.59365998E-04
   3.10920000      -1.75034744E-04
   3.12120008      -1.91196101E-04
   3.13319993      -2.07631048E-04
   3.14520001      -2.24088086E-04
   3.15720010      -2.40289373E-04
   3.16919994      -2.55938212E-04
   3.18120003      -2.70727469E-04
   3.19320011      -2.84348760E-04
   3.20519996      -2.96501647E-04
   3.21720004      -3.06902948E-04
   3.22919989      -3.15295387E-04
   3.24119997      -3.21455562E-04
   3.25320005      -3.25200905E-04
   3.26519990      -3.26395064E-04
   3.27719998      -3.24952212E-04
   3.28920007      -3.20839783E-04
   3.30119991      -3.14079341E-04
   3.31320000      -3.04746529E-04
   3.32520008      -2.92969053E-04
   3.33719993      -2.78923661E-04
   3.34920001      -2.62831978E-04
   3.36120009      -2.44955008E-04
   3.37319994      -2.25587311E-04
   3.38520002      -2.05049873E-04
   3.39720011      -1.83682903E-04
   3.40919995      -1.61838019E-04
   3.42120004      -1.39870259E-04
   3.43319988      -1.18130069E-04
   3.44519997      -9.69553585E-05
   3.45720005      -7.66638404E-05
   3.46919990      -5.75458434E-05
   3.48119998      -3.98577358E-05
   3.49320006      -2.38162611E-05
   3.50519991      -9.59381850E-06
   3.51719999       2.68503368E-06
   3.52920008       1.29457540E-05
   3.54119992       2.11645383E-05
   3.55320001       2.73675560E-05
   3.56520009       3.16286532E-05
   3.57719994       3.40656115E-05
   3.58920002       3.48350550E-05
   3.60120010       3.41261839E-05
   3.61319995       3.21535881E-05
   3.62520003       2.91493870E-05
   3.63720012       2.53550534E-05
   3.64919996       2.10132021E-05
   3.66120005       1.63596997E-05
   3.67319989       1.16163974E-05
   3.68519998       6.98475560E-06
   3.69720006       2.64056598E-06
   3.70919991      -1.27003989E-06
   3.72119999      -4.63322749E-06
   3.73320007      -7.36870697E-06
   3.74519992      -9.42964198E-06
   3.75720000      -1.08013037E-05
   3.76920009      -1.14986360E-05
   3.78119993      -1.15629091E-05
   3.79320002      -1.10576721E-05
   3.80520010      -1.00642274E-05
   3.81719995      -8.67685048E-06
   3.82920003      -6.99794464E-06
   3.84120011      -5.13333134E-06
   3.85319996      -3.18781554E-06
   3.86520004      -1.26116629E-06
   3.87719989       5.55410111E-07
   3.88919997       2.18223090E-06
   3.90120006       3.55349744E-06
   3.91319990       4.61903892E-06
   3.92519999       5.34543597E-06
   3.93720007       5.71653163E-06
   3.94919991       5.73335365E-06
   3.96120000       5.41345207E-06
   3.97320008       4.78970196E-06
   3.98519993       3.90857531E-06
   3.99720001       2.82794190E-06
   4.00920010       1.61443063E-06
   4.02120018       3.40409969E-07
   4.03319979      -9.19324123E-07
   4.04519987      -2.09107702E-06
   4.05719995      -3.10588121E-06
   4.06920004      -3.90309515E-06
   4.08120012      -4.43382396E-06
   4.09320021      -4.66402253E-06
   4.10519981      -4.57709939E-06
   4.11719990      -4.17589126E-06
   4.12919998      -3.48385515E-06
   4.14120007      -2.54536076E-06
   4.15320015      -1.42500915E-06
   4.16520023      -2.05937567E-07
   4.17719984       1.01288856E-06
   4.18919992       2.12032455E-06
   4.20120001       2.99752605E-06
   4.21320009       3.52308598E-06
   4.22520018       3.57862768E-06
   4.23719978       3.05459548E-06
   4.24919987       1.85597469E-06
   4.26119995      -9.23442514E-08
   4.27320004      -2.84083490E-06
   4.28520012      -6.41149063E-06
   4.29720020      -1.07951037E-05
   4.30919981      -1.59498231E-05
   4.32119989      -2.18011119E-05
   4.33319998      -2.82431447E-05
   4.34520006      -3.51416165E-05
   4.35720015      -4.23378733E-05
   4.36920023      -4.96541725E-05
   4.38119984      -5.68998839E-05
   4.39319992      -6.38783822E-05
   4.40520000      -7.03942424E-05
   4.41720009      -7.62605341E-05
   4.42920017      -8.13058577E-05
   4.44119978      -8.53808160E-05
   4.45319986      -8.83637040E-05
   4.46519995      -9.01651292E-05
   4.47720003      -9.07314970E-05
   4.48920012      -9.00471059E-05
   4.50120020      -8.81349624E-05
   4.51319981      -8.50562210E-05
   4.52519989      -8.09082994E-05
   4.53719997      -7.58218448E-05
   4.54920006      -6.99566517E-05
   4.56120014      -6.34966709E-05
   4.57320023      -5.66443487E-05
   4.58519983      -4.96144785E-05
   4.59719992      -4.26277584E-05
   4.60920000      -3.59041733E-05
   4.62120008      -2.96565504E-05
   4.63320017      -2.40842892E-05
   4.64519978      -1.93675078E-05
   4.65719986      -1.56617516E-05
   4.66919994      -1.30933477E-05
   4.68120003      -1.17555592E-05
   4.69320011      -1.17056397E-05
   4.70520020      -1.29628497E-05
   4.71719980      -1.55075304E-05
   4.72919989      -1.92812913E-05
   4.74119997      -2.41883208E-05
   4.75320005      -3.00978318E-05
   4.76520014      -3.68476431E-05
   4.77720022      -4.42487508E-05
   4.78919983      -5.20908798E-05
   4.80119991      -6.01487991E-05
   4.81320000      -6.81892197E-05
   4.82520008      -7.59781178E-05
   4.83720016      -8.32881342E-05
   4.84919977      -8.99058723E-05
   4.86119986      -9.56388103E-05
   4.87319994      -1.00321478E-04
   4.88520002      -1.03820792E-04
   4.89720011      -1.06040192E-04
   4.90920019      -1.06922518E-04
   4.92119980      -1.06451465E-04
   4.93319988      -1.04651546E-04
   4.94519997      -1.01586571E-04
   4.95720005      -9.73568094E-05
   4.96920013      -9.20948951E-05
   4.98120022      -8.59606007E-05
   4.99319983      -7.91349157E-05
   5.00519991      -7.18135270E-05
   5.01719999      -6.42000450E-05
   5.02920008      -5.64992806E-05
   5.04120016      -4.89107333E-05
   5.05319977      -4.16227122E-05
   5.06519985      -3.48070935E-05
   5.07719994      -2.86149916E-05
   5.08920002      -2.31733902E-05
   5.10120010      -1.85828121E-05
   5.11320019      -1.49160205E-05
   5.12519979      -1.22177053E-05
   5.13719988      -1.05050694E-05
   5.14919996      -9.76922092E-06
   5.16120005      -9.97724146E-06
   5.17320013      -1.10747551E-05
   5.18520021      -1.29889140E-05
   5.19719982      -1.56316109E-05
   5.20919991      -1.89028488E-05
   5.22119999      -2.26940974E-05
   5.23320007      -2.68916174E-05
   5.24520016      -3.13796154E-05
   5.25719976      -3.60432241E-05
   5.26919985      -4.07711850E-05
   5.28119993      -4.54582951E-05
   5.29320002      -5.00074966E-05
   5.30520010      -5.43316310E-05
   5.31720018      -5.83548390E-05
   5.32919979      -6.20135470E-05
   5.34119987      -6.52571325E-05
   5.35319996      -6.80481171E-05
   5.36520004      -7.03620753E-05
   5.37720013      -7.21871111E-05
   5.38920021      -7.35230569E-05
   5.40119982      -7.43804121E-05
   5.41319990      -7.47790327E-05
   5.42519999      -7.47466693E-05
   5.43720007      -7.43174533E-05
   5.44920015      -7.35303984E-05
   5.46120024      -7.24278725E-05
   5.47319984      -7.10543027E-05
   5.48519993      -6.94549526E-05
   5.49720001      -6.76749551E-05
   5.50920010      -6.57585260E-05
   5.52120018      -6.37484045E-05
   5.53319979      -6.16854741E-05
   5.54519987      -5.96085592E-05
   5.55719995      -5.75543381E-05
   5.56920004      -5.55573570E-05
   5.58120012      -5.36500775E-05
   5.59320021      -5.18629495E-05
   5.60519981      -5.02244438E-05
   5.61719990      -4.87610523E-05
   5.62919998      -4.74972367E-05
   5.64120007      -4.64553268E-05
   5.65320015      -4.56553717E-05
   5.66520023      -4.51149754E-05
   5.67719984      -4.48491373E-05
   5.68919992      -4.48700484E-05
   5.70120001      -4.51869855E-05
   5.71320009      -4.58061550E-05
   5.72520018      -4.67305981E-05
   5.73719978      -4.79600894E-05
   5.74919987      -4.94910637E-05
   5.76119995      -5.13164596E-05
   5.77320004      -5.34256069E-05
   5.78520012      -5.58039901E-05
   5.79720020      -5.84330592E-05
   5.80919981      -6.12898875E-05
   5.82119989      -6.43469102E-05
   5.83319998      -6.75715783E-05
   5.84520006      -7.09261003E-05
   5.85720015      -7.43672499E-05
   5.86920023      -7.78463000E-05
   5.88119984      -8.13092047E-05
   5.89319992      -8.46968906E-05
   5.90520000      -8.79459767E-05
   5.91720009      -9.09896553E-05
   5.92920017      -9.37589939E-05
   5.94119978      -9.61843762E-05
   5.95319986      -9.81973644E-05
   5.96519995      -9.97325697E-05
   5.97720003      -1.00729791E-04
   5.98920012      -1.01136051E-04
   6.00120020      -1.00907666E-04
   6.01319981      -1.00012039E-04
   6.02519989      -9.84293147E-05
   6.03719997      -9.61535843E-05
   6.04920006      -9.31937393E-05
   6.06120014      -8.95738485E-05
   6.07320023      -8.53330494E-05
   6.08519983      -8.05249365E-05
   6.09719992      -7.52165433E-05
   6.10920000      -6.94867704E-05
   6.12120008      -6.34246026E-05
   6.13320017      -5.71269811E-05
   6.14519978      -5.06965080E-05
   6.15719986      -4.42391029E-05
   6.16919994      -3.78616387E-05
   6.18120003      -3.16697260E-05
   6.19320011      -2.57656720E-05
   6.20520020      -2.02466454E-05
   6.21719980      -1.52031453E-05
   6.22919989      -1.07177248E-05
   6.24119997      -6.86399198E-06
   6.25320005      -3.70584576E-06
   6.26520014      -1.29691705E-06
   6.27720022       3.19832992E-07
   6.28919983       1.11242889E-06
   6.30119991       1.06012703E-06
   6.31320000       1.53670797E-07
   6.32520008      -1.60445256E-06
   6.33720016      -4.19971957E-06
   6.34919977      -7.60525654E-06
   6.36119986      -1.17815525E-05
   6.37319994      -1.66762256E-05
   6.38520002      -2.22239069E-05
   6.39720011      -2.83463596E-05
   6.40920019      -3.49528345E-05
   6.42119980      -4.19408098E-05
   6.43319988      -4.91971514E-05
   6.44519997      -5.65997216E-05
   6.45720005      -6.40194994E-05
   6.46920013      -7.13231129E-05
   6.48120022      -7.83758733E-05
   6.49319983      -8.50451033E-05
   6.50519991      -9.12037067E-05
   6.51719999      -9.67338347E-05
   6.52920008      -1.01530452E-04
   6.54120016      -1.05504740E-04
   6.55319977      -1.08586974E-04
   6.56519985      -1.10728899E-04
   6.57719994      -1.11905385E-04
   6.58920002      -1.12115304E-04
   6.60120010      -1.11381458E-04
   6.61320019      -1.09749708E-04
   6.62519979      -1.07287255E-04
   6.63719988      -1.04080107E-04
   6.64919996      -1.00229969E-04
   6.66120005      -9.58506062E-05
   6.67320013      -9.10639792E-05
   6.68520021      -8.59961874E-05
   6.69719982      -8.07736214E-05
   6.70919991      -7.55192159E-05
   6.72119999      -7.03493133E-05
   6.73320007      -6.53708776E-05
   6.74520016      -6.06794092E-05
   6.75719976      -5.63574977E-05
   6.76919985      -5.24739116E-05
   6.78119993      -4.90833227E-05
   6.79320002      -4.62264543E-05
   6.80520010      -4.39306204E-05
   6.81720018      -4.22104822E-05
   6.82919979      -4.10689936E-05
   6.84119987      -4.04983439E-05
   6.85319996      -4.04808998E-05
   6.86520004      -4.09900422E-05
   6.87720013      -4.19909593E-05
   6.88920021      -4.34413269E-05
   6.90119982      -4.52920031E-05
   6.91319990      -4.74877634E-05
   6.92519999      -4.99681446E-05
   6.93720007      -5.26685071E-05
   6.94920015      -5.55213264E-05
   6.96120024      -5.84577683E-05
   6.97319984      -6.14095843E-05
   6.98519993      -6.43111998E-05
   6.99720001      -6.71020098E-05
   7.00920010      -6.97286960E-05
   7.02120018      -7.21474353E-05
   7.03319979      -7.43259152E-05
   7.04519987      -7.62448399E-05
   7.05719995      -7.78989197E-05
   7.06920004      -7.92971041E-05
   7.08120012      -8.04621013E-05
   7.09320021      -8.14289742E-05
   7.10519981      -8.22430447E-05
   7.11719990      -8.29569908E-05
   7.12919998      -8.36275212E-05
   7.14120007      -8.43115340E-05
   7.15320015      -8.50622891E-05
   7.16520023      -8.59256397E-05
   7.17719984      -8.69366777E-05
   7.18919992      -8.81170054E-05
   7.20120001      -8.94727928E-05
   7.21320009      -9.09938390E-05
   7.22520018      -9.26535940E-05
   7.23719978      -9.44102430E-05
   7.24919987      -9.62087579E-05
   7.26119995      -9.79836914E-05
   7.27320004      -9.96626404E-05
   7.28520012      -1.01170001E-04
   7.29720020      -1.02430968E-04
   7.30919981      -1.03375249E-04
   7.32119989      -1.03940525E-04
   7.33319998      -1.04075240E-04
   7.34520006      -1.03740771E-04
   7.35720015      -1.02912716E-04
   7.36920023      -1.01581412E-04
   7.38119984      -9.97516690E-05
   7.39319992      -9.74418435E-05
   7.40520000      -9.46823420E-05
   7.41720009      -9.15138517E-05
   7.42920017      -8.79853542E-05
   7.44119978      -8.41520887E-05
   7.45319986      -8.00737689E-05
   7.46519995      -7.58129754E-05
   7.47720003      -7.14339185E-05
   7.48920012      -6.70014924E-05
   7.50120020      -6.25806933E-05
   7.51319981      -5.82362409E-05
   7.52519989      -5.40323563E-05
   7.53719997      -5.00325732E-05
   7.54920006      -4.62994140E-05
   7.56120014      -4.28939311E-05
   7.57320023      -3.98749035E-05
   7.58519983      -3.72977447E-05
   7.59719992      -3.52131101E-05
   7.60920000      -3.36651683E-05
   7.62120008      -3.26897389E-05
   7.63320017      -3.23123204E-05
   7.64519978      -3.25462461E-05
   7.65719986      -3.33910430E-05
   7.66919994      -3.48312205E-05
   7.68120003      -3.68356268E-05
   7.69320011      -3.93573973E-05
   7.70520020      -4.23346974E-05
   7.71719980      -4.56921625E-05
   7.72919989      -4.93430598E-05
   7.74119997      -5.31920596E-05
   7.75320005      -5.71384953E-05
   7.76520014      -6.10799252E-05
   7.77720022      -6.49158392E-05
   7.78919983      -6.85512277E-05
   7.80119991      -7.18999581E-05
   7.81320000      -7.48875755E-05
   7.82520008      -7.74535802E-05
   7.83720016      -7.95529777E-05
   7.84919977      -8.11570353E-05
   7.86119986      -8.22532747E-05
   7.87319994      -8.28448174E-05
   7.88520002      -8.29489727E-05
   7.89720011      -8.25954558E-05
   7.90920019      -8.18241679E-05
   7.92119980      -8.06828248E-05
   7.93319988      -7.92245337E-05
   7.94519997      -7.75055232E-05
   7.95720005      -7.55830770E-05
   7.96920013      -7.35138092E-05
   7.98120022      -7.13522895E-05
   7.99319983      -6.91501336E-05
   8.00520039      -6.69554065E-05
   8.01720047      -6.48123823E-05
   8.02919960      -6.27615664E-05
   8.04119968      -6.08398623E-05
   8.05319977      -5.90808522E-05
   8.06519985      -5.75150552E-05
   8.07719994      -5.61700435E-05
   8.08920002      -5.50705081E-05
   8.10120010      -5.42380440E-05
   8.11320019      -5.36907755E-05
   8.12520027      -5.34428109E-05
   8.13720036      -5.35035178E-05
   8.14920044      -5.38767963E-05
   8.16119957      -5.45602379E-05
   8.17319965      -5.55444640E-05
   8.18519974      -5.68125906E-05
   8.19719982      -5.83399269E-05
   8.20919991      -6.00940039E-05
   8.22119999      -6.20349165E-05
   8.23320007      -6.41160877E-05
   8.24520016      -6.62853490E-05
   8.25720024      -6.84864062E-05
   8.26920033      -7.06605424E-05
   8.28120041      -7.27486695E-05
   8.29319954      -7.46934020E-05
   8.30519962      -7.64412107E-05
   8.31719971      -7.79445691E-05
   8.32919979      -7.91638377E-05
   8.34119987      -8.00690032E-05
   8.35319996      -8.06408862E-05
   8.36520004      -8.08720652E-05
   8.37720013      -8.07671604E-05
   8.38920021      -8.03426592E-05
   8.40120029      -7.96261957E-05
   8.41320038      -7.86552409E-05
   8.42520046      -7.74754008E-05
   8.43719959      -7.61382980E-05
   8.44919968      -7.46991063E-05
   8.46119976      -7.32140543E-05
   8.47319984      -7.17377407E-05
   8.48519993      -7.03207043E-05
   8.49720001      -6.90071902E-05
   8.50920010      -6.78333017E-05
   8.52120018      -6.68256325E-05
   8.53320026      -6.60005753E-05
   8.54520035      -6.53641473E-05
   8.55720043      -6.49124777E-05
   8.56919956      -6.46329136E-05
   8.58119965      -6.45055479E-05
   8.59319973      -6.45052423E-05
   8.60519981      -6.46037806E-05
   8.61719990      -6.47721245E-05
   8.62919998      -6.49826325E-05
   8.64120007      -6.52109593E-05
   8.65320015      -6.54375617E-05
   8.66520023      -6.56487828E-05
   8.67720032      -6.58372810E-05
   8.68920040      -6.60019286E-05
   8.70119953      -6.61471786E-05
   8.71319962      -6.62819002E-05
   8.72519970      -6.64179024E-05
   8.73719978      -6.65681946E-05
   8.74919987      -6.67452841E-05
   8.76119995      -6.69594665E-05
   8.77320004      -6.72175011E-05
   8.78520012      -6.75216288E-05
   8.79720020      -6.78690994E-05
   8.80920029      -6.82522004E-05
   8.82120037      -6.86588392E-05
   8.83320045      -6.90735542E-05
   8.84519958      -6.94789196E-05
   8.85719967      -6.98571457E-05
   8.86919975      -7.01917597E-05
   8.88119984      -7.04692357E-05
   8.89319992      -7.06802894E-05
   8.90520000      -7.08209045E-05
   8.91720009      -7.08928565E-05
   8.92920017      -7.09036613E-05
   8.94120026      -7.08661173E-05
   8.95320034      -7.07972649E-05
   8.96520042      -7.07170402E-05
   8.97719955      -7.06466017E-05
   8.98919964      -7.06065985E-05
   9.00119972      -7.06154242E-05
   9.01319981      -7.06877108E-05
   9.02519989      -7.08331063E-05
   9.03719997      -7.10555323E-05
   9.04920006      -7.13528934E-05
   9.06120014      -7.17173098E-05
   9.07320023      -7.21358301E-05
   9.08520031      -7.25915670E-05
   9.09720039      -7.30651154E-05
   9.10919952      -7.35361173E-05
   9.12119961      -7.39848983E-05
   9.13319969      -7.43939090E-05
   9.14519978      -7.47489830E-05
   9.15719986      -7.50401159E-05
   9.16919994      -7.52619089E-05
   9.18120003      -7.54135253E-05
   9.19320011      -7.54981738E-05
   9.20520020      -7.55222427E-05
   9.21720028      -7.54941429E-05
   9.22920036      -7.54230132E-05
   9.24120045      -7.53173663E-05
   9.25319958      -7.51838888E-05
   9.26519966      -7.50264953E-05
   9.27719975      -7.48456732E-05
   9.28919983      -7.46383230E-05
   9.30119991      -7.43979617E-05
   9.31320000      -7.41154290E-05
   9.32520008      -7.37799201E-05
   9.33720016      -7.33802663E-05
   9.34920025      -7.29064850E-05
   9.36120033      -7.23511766E-05
   9.37320042      -7.17109870E-05
   9.38519955      -7.09876185E-05
   9.39719963      -7.01886456E-05
   9.40919971      -6.93277179E-05
   9.42119980      -6.84244369E-05
   9.43319988      -6.75035772E-05
   9.44519997      -6.65940242E-05
