 -0.622799993       0.00000000    
 -0.610800028       0.00000000    
 -0.598800004       0.00000000    
 -0.586799979       0.00000000    
 -0.574800014       0.00000000    
 -0.562799990       0.00000000    
 -0.550800025       0.00000000    
 -0.538800001       0.00000000    
 -0.526799977       0.00000000    
 -0.514800012       6.89465567E-33
 -0.502799988       2.56778113E-31
 -0.490799993       3.13336991E-30
 -0.478799999       2.18107519E-29
 -0.466800004       1.02934058E-28
 -0.454800010       3.51669873E-28
 -0.442799985       8.66613393E-28
 -0.430799991       1.33271752E-27
 -0.418799996      -7.87478689E-29
 -0.406800002      -8.44410117E-27
 -0.394800007      -3.28110577E-26
 -0.382800013      -8.13890476E-26
 -0.370799989      -1.44474266E-25
 -0.358799994      -1.62222306E-25
 -0.346799999       8.34042682E-27
 -0.334800005       5.79753157E-25
 -0.322800010       1.69399636E-24
 -0.310799986       3.08814471E-24
 -0.298799992       3.62076190E-24
 -0.286799997       9.85223767E-25
 -0.274800003      -7.72030163E-24
 -0.262800008      -2.37572120E-23
 -0.250800014      -4.25650696E-23
 -0.238800004      -4.89738860E-23
 -0.226799995      -1.57531058E-23
 -0.214800000       8.81921059E-23
 -0.202800006       2.74105764E-22
 -0.190799996       4.94706210E-22
 -0.178800002       6.05187025E-22
 -0.166800007       3.57166910E-22
 -0.154799998      -5.28429067E-22
 -0.142800003      -2.17400190E-21
 -0.130799994      -4.25850189E-21
 -0.118799999      -5.74043069E-21
 -0.106799997      -4.81053792E-21
  -9.48000029E-02   6.44612451E-22
  -8.28000009E-02   1.18689682E-20
  -7.07999989E-02   2.74581893E-20
  -5.88000007E-02   4.16022960E-20
  -4.67999987E-02   4.35556475E-20
  -3.48000005E-02   1.98381531E-20
  -2.28000004E-02  -3.97544359E-20
  -1.08000003E-02  -1.32742920E-19
   1.20000006E-03  -2.34061094E-19
   1.31999999E-02  -2.91299356E-19
   2.52000000E-02  -2.32246467E-19
   3.72000001E-02   9.71999905E-21
   4.91999984E-02   4.52962191E-19
   6.12000003E-02   1.01860416E-18
   7.32000023E-02   1.49803784E-18
   8.51999968E-02   1.56720307E-18
   9.71999988E-02   8.73914249E-19
  0.109200001      -7.96686341E-19
  0.121200003      -3.31177516E-18
  0.133200005      -6.01490131E-18
  0.145199999      -7.69816712E-18
  0.157199994      -6.83371293E-18
  0.169200003      -2.11471350E-18
  0.181199998       6.76748967E-18
  0.193200007       1.83445995E-17
  0.205200002       2.89657177E-17
  0.217199996       3.31785783E-17
  0.229200006       2.51735495E-17
  0.241200000       1.22156223E-18
  0.253199995      -3.74622258E-17
  0.265199989      -8.24976011E-17
  0.277200013      -1.18100983E-16
  0.289200008      -1.23970511E-16
  0.301200002      -8.16267850E-17
  0.313199997       1.68109885E-17
  0.325199991       1.59984367E-16
  0.337199986       3.12524320E-16
  0.349200010       4.17973596E-16
  0.361200005       4.11732657E-16
  0.373199999       2.43223843E-16
  0.385199994      -9.76792902E-17
  0.397199988      -5.58765824E-16
  0.409200013      -1.01879058E-15
  0.421200007      -1.30488697E-15
  0.433200002      -1.23701613E-15
  0.445199996      -6.92914297E-16
  0.457199991       3.23455783E-16
  0.469199985       1.63462504E-15
  0.481200010       2.88907607E-15
  0.493200004       3.62441925E-15
  0.505200028       3.39326947E-15
  0.517199993       1.92720917E-15
  0.529200017      -7.07906197E-16
  0.541199982      -4.02384145E-15
  0.553200006      -7.14159821E-15
  0.565199971      -8.96831708E-15
  0.577199996      -8.50095056E-15
  0.589200020      -5.18826273E-15
  0.601199985       7.56659985E-16
  0.613200009       8.21309319E-15
  0.625199974       1.52713738E-14
  0.637199998       1.96406154E-14
  0.649200022       1.92814565E-14
  0.661199987       1.31094806E-14
  0.673200011       1.55665703E-15
  0.685199976      -1.32212543E-14
  0.697200000      -2.76317597E-14
  0.709200025      -3.74353292E-14
  0.721199989      -3.88858325E-14
  0.733200014      -2.99305834E-14
  0.745199978      -1.11103101E-14
  0.757200003       1.41644475E-14
  0.769200027       4.01387467E-14
  0.781199992       5.99960687E-14
  0.793200016       6.76162075E-14
  0.805199981       5.93474786E-14
  0.817200005       3.52780515E-14
  0.829200029      -4.08955210E-16
  0.841199994      -4.01753080E-14
  0.853200018      -7.48308615E-14
  0.865199983      -9.57787452E-14
  0.877200007      -9.72040577E-14
  0.889199972      -7.76048740E-14
  0.901199996      -4.02428301E-14
  0.913200021       7.60147357E-15
  0.925199986       5.63432527E-14
  0.937200010       9.62896755E-14
  0.949199975       1.19723160E-13
  0.961199999       1.22359954E-13
  0.973200023       1.03902808E-13
  0.985199988       6.76981664E-14
  0.997200012       1.97536571E-14
   1.00919998      -3.25108965E-14
   1.02119994      -8.14439662E-14
   1.03320003      -1.20092657E-13
   1.04519999      -1.42884999E-13
   1.05719995      -1.46180824E-13
   1.06920004      -1.28795981E-13
   1.08120000      -9.24710409E-14
   1.09319997      -4.20765853E-14
   1.10520005       1.47600607E-14
   1.11720002       6.88589268E-14
   1.12919998       1.11508161E-13
   1.14119995       1.36888669E-13
   1.15320003       1.44117560E-13
   1.16520000       1.37975379E-13
   1.17719996       1.27601190E-13
   1.18920004       1.23048314E-13
   1.20120001       1.30445500E-13
   1.21319997       1.47314168E-13
   1.22520006       1.60008386E-13
   1.23720002       1.45002025E-13
   1.24919999       7.47756417E-14
   1.26119995      -7.24488693E-14
   1.27320004      -3.01478325E-13
   1.28520000      -5.90913169E-13
   1.29719996      -8.89580510E-13
   1.30920005      -1.12129685E-12
   1.32120001      -1.19855590E-12
   1.33319998      -1.04312717E-12
   1.34519994      -6.09165550E-13
   1.35720003       9.69719503E-14
   1.36919999       1.00588841E-12
   1.38119996       1.98725932E-12
   1.39320004       2.86595856E-12
   1.40520000       3.44994411E-12
   1.41719997       3.56483484E-12
   1.42920005       3.08858689E-12
   1.44120002       1.97973322E-12
   1.45319998       2.94201919E-13
   1.46519995      -1.81186966E-12
   1.47720003      -4.09341224E-12
   1.48920000      -6.23996514E-12
   1.50119996      -7.90867545E-12
   1.51320004      -8.76378744E-12
   1.52520001      -8.51985930E-12
   1.53719997      -6.98590448E-12
   1.54920006      -4.10703936E-12
   1.56120002       1.05007871E-15
   1.57319999       5.03089020E-12
   1.58519995       1.04820510E-11
   1.59720004       1.56861676E-11
   1.60920000       1.98616974E-11
   1.62119997       2.21976448E-11
   1.63320005       2.19602045E-11
   1.64520001       1.86110346E-11
   1.65719998       1.19221282E-11
   1.66919994       2.07067501E-12
   1.68120003      -1.03018644E-11
   1.69319999      -2.40792542E-11
   1.70519996      -3.77171419E-11
   1.71720004      -4.93507665E-11
   1.72920001      -5.69627748E-11
   1.74119997      -5.86051971E-11
   1.75320005      -5.26637206E-11
   1.76520002      -3.81450496E-11
   1.77719998      -1.49590583E-11
   1.78919995       1.58418452E-11
   1.80120003       5.19118255E-11
   1.81320000       8.95978222E-11
   1.82519996       1.24106739E-10
   1.83720005       1.49882259E-10
   1.84920001       1.61194044E-10
   1.86119998       1.52907340E-10
   1.87320006       1.21362601E-10
   1.88520002       6.52584653E-11
   1.89719999      -1.35946436E-11
   1.90919995      -1.09793077E-10
   1.92120004      -2.14263371E-10
   1.93320000      -3.14689635E-10
   1.94519997      -3.96491895E-10
   1.95720005      -4.44334070E-10
   1.96920002      -4.44064008E-10
   1.98119998      -3.84913046E-10
   1.99319994      -2.61718175E-10
   2.00519991      -7.68844710E-11
   2.01719999       1.58210903E-10
   2.02920008       4.22656049E-10
   2.04119992       6.86510515E-10
   2.05320001       9.12519782E-10
   2.06520009       1.05905507E-09
   2.07719994       1.08415432E-09
   2.08920002       9.50393875E-10
   2.10120010       6.30180685E-10
   2.11319995       1.10948362E-10
   2.12520003      -6.00327843E-10
   2.13720012      -1.47388901E-09
   2.14919996      -2.45576581E-09
   2.16120005      -3.46859297E-09
   2.17319989      -4.41491865E-09
   2.18519998      -5.18304599E-09
   2.19720006      -5.65518210E-09
   2.20919991      -5.71741143E-09
   2.22119999      -5.27073096E-09
   2.23320007      -4.24213642E-09
   2.24519992      -2.59455102E-09
   2.25720000      -3.34247269E-10
   2.26920009       2.48562926E-09
   2.28119993       5.76676307E-09
   2.29320002       9.37376132E-09
   2.30520010       1.31495135E-08
   2.31719995       1.69383032E-08
   2.32920003       2.06167403E-08
   2.34120011       2.41320652E-08
   2.35319996       2.75469976E-08
   2.36520004       3.10898329E-08
   2.37719989       3.52081386E-08
   2.38919997       4.06241973E-08
   2.40120006       4.83901310E-08
   2.41319990       5.99406249E-08
   2.42519999       7.71408892E-08
   2.43720007       1.02327824E-07
   2.44919991       1.38341719E-07
   2.46120000       1.88546352E-07
   2.47320008       2.56834937E-07
   2.48519993       3.47618993E-07
   2.49720001       4.65797683E-07
   2.50920010       6.16704938E-07
   2.52119994       8.06031210E-07
   2.53320003       1.03971797E-06
   2.54520011       1.32382252E-06
   2.55719995       1.66435279E-06
   2.56920004       2.06707045E-06
   2.58119988       2.53726489E-06
   2.59319997       3.07950359E-06
   2.60520005       3.69735881E-06
   2.61719990       4.39312407E-06
   2.62919998       5.16752652E-06
   2.64120007       6.01945158E-06
   2.65319991       6.94568780E-06
   2.66520000       7.94071548E-06
   2.67720008       8.99654879E-06
   2.68919992       1.01026508E-05
   2.70120001       1.12459311E-05
   2.71320009       1.24108474E-05
   2.72519994       1.35796063E-05
   2.73720002       1.47324745E-05
   2.74920011       1.58481980E-05
   2.76119995       1.69045215E-05
   2.77320004       1.78787868E-05
   2.78520012       1.87486021E-05
   2.79719996       1.94925506E-05
   2.80920005       2.00908980E-05
   2.82119989       2.05262986E-05
   2.83319998       2.07844296E-05
   2.84520006       2.08545443E-05
   2.85719991       2.07299181E-05
   2.86919999       2.04081462E-05
   2.88120008       1.98912858E-05
   2.89319992       1.91858435E-05
   2.90520000       1.83025950E-05
   2.91720009       1.72562286E-05
   2.92919993       1.60648724E-05
   2.94120002       1.47494929E-05
   2.95320010       1.33331860E-05
   2.96519995       1.18404423E-05
   2.97720003       1.02963595E-05
   2.98920012       8.72589408E-06
   3.00119996       7.15313809E-06
   3.01320004       5.60069020E-06
   3.02519989       4.08911001E-06
   3.03719997       2.63650077E-06
   3.04920006       1.25820975E-06
   3.06119990      -3.33399086E-08
   3.07319999      -1.22870335E-06
   3.08520007      -2.32135267E-06
   3.09719992      -3.30752800E-06
   3.10920000      -4.18601485E-06
   3.12120008      -4.95786981E-06
   3.13319993      -5.62611876E-06
   3.14520001      -6.19544289E-06
   3.15720010      -6.67186987E-06
   3.16919994      -7.06248511E-06
   3.18120003      -7.37516939E-06
   3.19320011      -7.61836645E-06
   3.20519996      -7.80087976E-06
   3.21720004      -7.93169966E-06
   3.22919989      -8.01984788E-06
   3.24119997      -8.07424021E-06
   3.25320005      -8.10355323E-06
   3.26519990      -8.11609880E-06
   3.27719998      -8.11969403E-06
   3.28920007      -8.12152302E-06
   3.30119991      -8.12800954E-06
   3.31320000      -8.14467876E-06
   3.32520008      -8.17603905E-06
   3.33719993      -8.22547827E-06
   3.34920001      -8.29518194E-06
   3.36120009      -8.38608412E-06
   3.37319994      -8.49787193E-06
   3.38520002      -8.62901925E-06
   3.39720011      -8.77688217E-06
   3.40919995      -8.93784454E-06
   3.42120004      -9.10749986E-06
   3.43319988      -9.28088684E-06
   3.44519997      -9.45275133E-06
   3.45720005      -9.61782280E-06
   3.46919990      -9.77110903E-06
   3.48119998      -9.90816534E-06
   3.49320006      -1.00253601E-05
   3.50519991      -1.01200922E-05
   3.51719999      -1.01909691E-05
   3.52920008      -1.02379217E-05
   3.54119992      -1.02622625E-05
   3.55320001      -1.02666727E-05
   3.56520009      -1.02551194E-05
   3.57719994      -1.02327076E-05
   3.58920002      -1.02054610E-05
   3.60120010      -1.01800424E-05
   3.61319995      -1.01634369E-05
   3.62520003      -1.01625756E-05
   3.63720012      -1.01839496E-05
   3.64919996      -1.02332060E-05
   3.66120005      -1.03147577E-05
   3.67319989      -1.04314076E-05
   3.68519998      -1.05840300E-05
   3.69720006      -1.07712976E-05
   3.70919991      -1.09895072E-05
   3.72119999      -1.12324860E-05
   3.73320007      -1.14916174E-05
   3.74519992      -1.17559839E-05
   3.75720000      -1.20126360E-05
   3.76920009      -1.22469992E-05
   3.78119993      -1.24433955E-05
   3.79320002      -1.25856777E-05
   3.80520010      -1.26579662E-05
   3.81719995      -1.26454352E-05
   3.82920003      -1.25351489E-05
   3.84120011      -1.23168766E-05
   3.85319996      -1.19838733E-05
   3.86520004      -1.15335642E-05
   3.87719989      -1.09680996E-05
   3.88919997      -1.02947433E-05
   3.90120006      -9.52604660E-06
   3.91319990      -8.67980361E-06
   3.92519999      -7.77875812E-06
   3.93720007      -6.85005625E-06
   3.94919991      -5.92446941E-06
   3.96120000      -5.03539650E-06
   3.97320008      -4.21769346E-06
   3.98519993      -3.50636969E-06
   3.99720001      -2.93521180E-06
   4.00920010      -2.53539747E-06
   4.02120018      -2.33416745E-06
   4.03319979      -2.35360972E-06
   4.04519987      -2.60962065E-06
   4.05719995      -3.11109443E-06
   4.06920004      -3.85937847E-06
   4.08120012      -4.84801876E-06
   4.09320021      -6.06280810E-06
   4.10519981      -7.48214779E-06
   4.11719990      -9.07768663E-06
   4.12919998      -1.08152408E-05
   4.14120007      -1.26559135E-05
   4.15320015      -1.45574240E-05
   4.16520023      -1.64755402E-05
   4.17719984      -1.83656102E-05
   4.18919992      -2.01841031E-05
   4.20120001      -2.18901332E-05
   4.21320009      -2.34469244E-05
   4.22520018      -2.48231408E-05
   4.23719978      -2.59941044E-05
   4.24919987      -2.69427856E-05
   4.26119995      -2.76606224E-05
   4.27320004      -2.81480570E-05
   4.28520012      -2.84148318E-05
   4.29720020      -2.84799444E-05
   4.30919981      -2.83713034E-05
   4.32119989      -2.81250141E-05
   4.33319998      -2.77843101E-05
   4.34520006      -2.73980950E-05
   4.35720015      -2.70191194E-05
   4.36920023      -2.67018058E-05
   4.38119984      -2.64997379E-05
   4.39319992      -2.64629107E-05
   4.40520000      -2.66347706E-05
   4.41720009      -2.70491782E-05
   4.42920017      -2.77273812E-05
   4.44119978      -2.86751620E-05
   4.45319986      -2.98802606E-05
   4.46519995      -3.13102464E-05
   4.47720003      -3.29109389E-05
   4.48920012      -3.46055458E-05
   4.50120020      -3.62945575E-05
   4.51319981      -3.78565201E-05
   4.52519989      -3.91496869E-05
   4.53719997      -4.00145618E-05
   4.54920006      -4.02772966E-05
   4.56120014      -3.97538024E-05
   4.57320023      -3.82545659E-05
   4.58519983      -3.55898883E-05
   4.59719992      -3.15754842E-05
   4.60920000      -2.60381676E-05
   4.62120008      -1.88215054E-05
   4.63320017      -9.79119432E-06
   4.64519978       1.16000399E-06
   4.65719986       1.41078845E-05
   4.66919994       2.90931512E-05
   4.68120003       4.61185482E-05
   4.69320011       6.51468654E-05
   4.70520020       8.60998261E-05
   4.71719980       1.08857901E-04
   4.72919989       1.33260954E-04
   4.74119997       1.59109753E-04
   4.75320005       1.86168341E-04
   4.76520014       2.14166983E-04
   4.77720022       2.42805938E-04
   4.78919983       2.71759782E-04
   4.80119991       3.00682237E-04
   4.81320000       3.29211587E-04
   4.82520008       3.56976379E-04
   4.83720016       3.83601582E-04
   4.84919977       4.08714957E-04
   4.86119986       4.31953522E-04
   4.87319994       4.52970417E-04
   4.88520002       4.71441366E-04
   4.89720011       4.87071200E-04
   4.90920019       4.99599846E-04
   4.92119980       5.08808356E-04
   4.93319988       5.14523592E-04
   4.94519997       5.16622851E-04
   4.95720005       5.15036809E-04
   4.96920013       5.09752135E-04
   4.98120022       5.00812603E-04
   4.99319983       4.88318736E-04
   5.00519991       4.72426618E-04
   5.01719999       4.53344925E-04
   5.02920008       4.31331369E-04
   5.04120016       4.06687468E-04
   5.05319977       3.79752630E-04
   5.06519985       3.50897317E-04
   5.07719994       3.20515654E-04
   5.08920002       2.89017422E-04
   5.10120010       2.56820291E-04
   5.11320019       2.24341653E-04
   5.12519979       1.91990883E-04
   5.13719988       1.60162032E-04
   5.14919996       1.29227061E-04
   5.16120005       9.95297451E-05
   5.17320013       7.13804620E-05
   5.18520021       4.50518091E-05
   5.19719982       2.07752419E-05
   5.20919991      -1.26144994E-06
   5.22119999      -2.09156115E-05
   5.23320007      -3.80903148E-05
   5.24520016      -5.27340162E-05
   5.25719976      -6.48393761E-05
   5.26919985      -7.44412682E-05
   5.28119993      -8.16140309E-05
   5.29320002      -8.64680769E-05
   5.30520010      -8.91458767E-05
   5.31720018      -8.98174330E-05
   5.32919979      -8.86754060E-05
   5.34119987      -8.59298889E-05
   5.35319996      -8.18030385E-05
   5.36520004      -7.65236618E-05
   5.37720013      -7.03219412E-05
   5.38920021      -6.34243188E-05
   5.40119982      -5.60488697E-05
   5.41319990      -4.84010307E-05
   5.42519999      -4.06700601E-05
   5.43720007      -3.30261391E-05
   5.44920015      -2.56181938E-05
   5.46120024      -1.85725512E-05
   5.47319984      -1.19923470E-05
   5.48519993      -5.95766687E-06
   5.49720001      -5.26386316E-07
   5.50920010       4.26441056E-06
   5.52120018       8.39655240E-06
   5.53319979       1.18685248E-05
   5.54519987       1.46930206E-05
   5.55719995       1.68943843E-05
   5.56920004       1.85060853E-05
   5.58120012       1.95683206E-05
   5.59320021       2.01258445E-05
   5.60519981       2.02260471E-05
   5.61719990       1.99173628E-05
   5.62919998       1.92479947E-05
   5.64120007       1.82649692E-05
   5.65320015       1.70134499E-05
   5.66520023       1.55363687E-05
   5.67719984       1.38742107E-05
   5.68919992       1.20650229E-05
   5.70120001       1.01445130E-05
   5.71320009       8.14624400E-06
   5.72520018       6.10187180E-06
   5.73719978       4.04140110E-06
   5.74919987       1.99343822E-06
   5.76119995      -1.45807038E-08
   5.77320004      -1.95619009E-06
   5.78520012      -3.80573488E-06
   5.79720020      -5.53825066E-06
   5.80919981      -7.12939345E-06
   5.82119989      -8.55542658E-06
   5.83319998      -9.79325796E-06
   5.84520006      -1.08205550E-05
   5.85720015      -1.16159190E-05
   5.86920023      -1.21591484E-05
   5.88119984      -1.24315739E-05
   5.89319992      -1.24164799E-05
   5.90520000      -1.20996056E-05
   5.91720009      -1.14697013E-05
   5.92920017      -1.05191511E-05
   5.94119978      -9.24460801E-06
   5.95319986      -7.64763081E-06
   5.96519995      -5.73528450E-06
   5.97720003      -3.52066058E-06
   5.98920012      -1.02328261E-06
   6.00120020       1.73064120E-06
   6.01319981       4.70814621E-06
   6.02519989       7.86964665E-06
   6.03719997       1.11692843E-05
   6.04920006       1.45555114E-05
   6.06120014       1.79718791E-05
   6.07320023       2.13580279E-05
   6.08519983       2.46508534E-05
   6.09719992       2.77858235E-05
   6.10920000       3.06983929E-05
   6.12120008       3.33254902E-05
   6.13320017       3.56070341E-05
   6.14519978       3.74874326E-05
   6.15719986       3.89170564E-05
   6.16919994       3.98535849E-05
   6.18120003       4.02632832E-05
   6.19320011       4.01221223E-05
   6.20520020       3.94167437E-05
   6.21719980       3.81452483E-05
   6.22919989       3.63178042E-05
   6.24119997       3.39570324E-05
   6.25320005       3.10981632E-05
   6.26520014       2.77889521E-05
   6.27720022       2.40893078E-05
   6.28919983       2.00706345E-05
   6.30119991       1.58148578E-05
   6.31320000       1.14131062E-05
   6.32520008       6.96408460E-06
   6.33720016       2.57210399E-06
   6.34919977      -1.65518577E-06
   6.36119986      -5.60934222E-06
   6.37319994      -9.18387650E-06
   6.38520002      -1.22771717E-05
   6.39720011      -1.47954579E-05
   6.40920019      -1.66557656E-05
   6.42119980      -1.77887450E-05
   6.43319988      -1.81412652E-05
   6.44519997      -1.76786434E-05
   6.45720005      -1.63864388E-05
   6.46920013      -1.42716990E-05
   6.48120022      -1.13635861E-05
   6.49319983      -7.71333725E-06
   6.50519991      -3.39352846E-06
   6.51719999       1.50336723E-06
   6.52920008       6.86708245E-06
   6.54120016       1.25722854E-05
   6.55319977       1.84818418E-05
   6.56519985       2.44505281E-05
   6.57719994       3.03290471E-05
   6.58920002       3.59682526E-05
   6.60120010       4.12234149E-05
   6.61320019       4.59584007E-05
   6.62519979       5.00496171E-05
   6.63719988       5.33895691E-05
   6.64919996       5.58899628E-05
   6.66120005       5.74842015E-05
   6.67320013       5.81292152E-05
   6.68520021       5.78065883E-05
   6.69719982       5.65229420E-05
   6.70919991       5.43095593E-05
   6.72119999       5.12213192E-05
   6.73320007       4.73349464E-05
   6.74520016       4.27466621E-05
   6.75719976       3.75693198E-05
   6.76919985       3.19291030E-05
   6.78119993       2.59619192E-05
   6.79320002       1.98095804E-05
   6.80520010       1.36158833E-05
   6.81720018       7.52271080E-06
   6.82919979       1.66624227E-06
   6.84119987      -3.82659073E-06
   6.85319996      -8.84135352E-06
   6.86520004      -1.32789564E-05
   6.87720013      -1.70580279E-05
   6.88920021      -2.01167804E-05
   6.90119982      -2.24142805E-05
   6.91319990      -2.39311285E-05
   6.92519999      -2.46694999E-05
   6.93720007      -2.46525597E-05
   6.94920015      -2.39232486E-05
   6.96120024      -2.25424683E-05
   6.97319984      -2.05867473E-05
   6.98519993      -1.81454016E-05
   6.99720001      -1.53173351E-05
   7.00920010      -1.22075371E-05
   7.02120018      -8.92343269E-06
   7.03319979      -5.57119256E-06
   7.04519987      -2.25213671E-06
   7.05719995       9.40619259E-07
   7.06920004       3.92516631E-06
   7.08120012       6.63332912E-06
   7.09320021       9.01261774E-06
   7.10519981       1.10275287E-05
   7.11719990       1.26601535E-05
   7.12919998       1.39100630E-05
   7.14120007       1.47934898E-05
   7.15320015       1.53418550E-05
   7.16520023       1.55997004E-05
   7.17719984       1.56221413E-05
   7.18919992       1.54719473E-05
   7.20120001       1.52163911E-05
   7.21320009       1.49240077E-05
   7.22520018       1.46613811E-05
   7.23719978       1.44901314E-05
   7.24919987       1.44641817E-05
   7.26119995       1.46274351E-05
   7.27320004       1.50119458E-05
   7.28520012       1.56366423E-05
   7.29720020       1.65066285E-05
   7.30919981       1.76131070E-05
   7.32119989       1.89338753E-05
   7.33319998       2.04343851E-05
   7.34520006       2.20692746E-05
   7.35720015       2.37843142E-05
   7.36920023       2.55186678E-05
   7.38119984       2.72073685E-05
   7.39319992       2.87838775E-05
   7.40520000       3.01826676E-05
   7.41720009       3.13416895E-05
   7.42920017       3.22046435E-05
   7.44119978       3.27230009E-05
   7.45319986       3.28576825E-05
   7.46519995       3.25803667E-05
   7.47720003       3.18744169E-05
   7.48920012       3.07353585E-05
   7.50120020       2.91710185E-05
   7.51319981       2.72012312E-05
   7.52519989       2.48572305E-05
   7.53719997       2.21807513E-05
   7.54920006       1.92228654E-05
   7.56120014       1.60426243E-05
   7.57320023       1.27055555E-05
   7.58519983       9.28204008E-06
   7.59719992       5.84563395E-06
   7.60920000       2.47134517E-06
   7.62120008      -7.66097173E-07
   7.63320017      -3.79395055E-06
   7.64519978      -6.54312680E-06
   7.65719986      -8.94979257E-06
   7.66919994      -1.09568791E-05
   7.68120003      -1.25154775E-05
   7.69320011      -1.35860837E-05
   7.70520020      -1.41396604E-05
   7.71719980      -1.41584842E-05
   7.72919989      -1.36367398E-05
   7.74119997      -1.25808147E-05
   7.75320005      -1.10092769E-05
   7.76520014      -8.95250923E-06
   7.77720022      -6.45197133E-06
   7.78919983      -3.55912471E-06
   7.80119991      -3.34011219E-07
   7.81320000       3.15645184E-06
   7.82520008       6.84041788E-06
   7.83720016       1.06432099E-05
   7.84919977       1.44894993E-05
   7.86119986       1.83054599E-05
   7.87319994       2.20208076E-05
   7.88520002       2.55706291E-05
   7.89720011       2.88969295E-05
   7.90920019       3.19498249E-05
   7.92119980       3.46883317E-05
   7.93319988       3.70807466E-05
   7.94519997       3.91046196E-05
   7.95720005       4.07463303E-05
   7.96920013       4.20003453E-05
   7.98120022       4.28682324E-05
   7.99319983       4.33575151E-05
   8.00520039       4.34804642E-05
   8.01720047       4.32529050E-05
   8.02919960       4.26931729E-05
   8.04119968       4.18212439E-05
   8.05319977       4.06581239E-05
   8.06519985       3.92254769E-05
   8.07719994       3.75455675E-05
   8.08920002       3.56413875E-05
   8.10120010       3.35370205E-05
   8.11320019       3.12580887E-05
   8.12520027       2.88322808E-05
   8.13720036       2.62898157E-05
   8.14920044       2.36637752E-05
   8.16119957       2.09902737E-05
   8.17319965       1.83083757E-05
   8.18519974       1.56597307E-05
   8.19719982       1.30879553E-05
   8.20919991       1.06377302E-05
   8.22119999       8.35370702E-06
   8.23320007       6.27924101E-06
   8.24520016       4.45505293E-06
   8.25720024       2.91788274E-06
   8.26920033       1.69922964E-06
   8.28120041       8.24244353E-07
   8.29319954       3.10841870E-07
   8.30519962       1.69084899E-07
   8.31719971       4.00863115E-07
   8.32919979       9.99883014E-07
   8.34119987       1.95195207E-06
   8.35319996       3.23553149E-06
   8.36520004       4.82251062E-06
   8.37720013       6.67915083E-06
   8.38920021       8.76713148E-06
   8.40120029       1.10446463E-05
   8.41320038       1.34674829E-05
   8.42520046       1.59900501E-05
   8.43719959       1.85663102E-05
   8.44919968       2.11505903E-05
   8.46119976       2.36982632E-05
   8.47319984       2.61663299E-05
   8.48519993       2.85138485E-05
   8.49720001       3.07023147E-05
   8.50920010       3.26959598E-05
   8.52120018       3.44620166E-05
   8.53320026       3.59709702E-05
   8.54520035       3.71968454E-05
   8.55720043       3.81174868E-05
   8.56919956       3.87149194E-05
   8.58119965       3.89757042E-05
   8.59319973       3.88913468E-05
   8.60519981       3.84586674E-05
   8.61719990       3.76801872E-05
   8.62919998       3.65644119E-05
   8.64120007       3.51260605E-05
   8.65320015       3.33861171E-05
   8.66520023       3.13717792E-05
   8.67720032       2.91162087E-05
   8.68920040       2.66580882E-05
   8.70119953       2.40410027E-05
   8.71319962       2.13126023E-05
   8.72519970       1.85236240E-05
   8.73719978       1.57267405E-05
   8.74919987       1.29752980E-05
   8.76119995       1.03219991E-05
   8.77320004       7.81754443E-06
   8.78520012       5.50933510E-06
   8.79720020       3.44024124E-06
   8.80920029       1.64753453E-06
   8.82120037       1.61990613E-07
   8.83320045      -9.92777132E-07
   8.84519958      -1.80074528E-06
   8.85719967      -2.25364670E-06
   8.86919975      -2.35088146E-06
   8.88119984      -2.09918016E-06
   8.89319992      -1.51203812E-06
   8.90520000      -6.08956498E-07
   8.91720009       5.85479427E-07
   8.92920017       2.04263370E-06
   8.94120026       3.73091802E-06
   8.95320034       5.61690467E-06
   8.96520042       7.66640005E-06
   8.97719955       9.84544295E-06
   8.98919964       1.21211779E-05
   9.00119972       1.44625847E-05
   9.01319981       1.68410406E-05
   9.02519989       1.92307161E-05
   9.03719997       2.16087938E-05
   9.04920006       2.39555520E-05
   9.06120014       2.62542781E-05
   9.07320023       2.84910948E-05
   9.08520031       3.06546754E-05
   9.09720039       3.27359085E-05
   9.10919952       3.47274836E-05
   9.12119961       3.66235072E-05
   9.13319969       3.84190826E-05
   9.14519978       4.01099205E-05
   9.15719986       4.16919611E-05
   9.16919994       4.31610824E-05
   9.18120003       4.45128026E-05
   9.19320011       4.57420683E-05
   9.20520020       4.68430662E-05
   9.21720028       4.78091242E-05
   9.22920036       4.86326207E-05
   9.24120045       4.93050211E-05
   9.25319958       4.98169138E-05
   9.26519966       5.01582035E-05
   9.27719975       5.03183182E-05
   9.28919983       5.02865660E-05
   9.30119991       5.00525603E-05
   9.31320000       4.96067260E-05
   9.32520008       4.89409176E-05
   9.33720016       4.80490635E-05
   9.34920025       4.69278602E-05
   9.36120033       4.55775080E-05
   9.37320042       4.40023796E-05
   9.38519955       4.22116427E-05
   9.39719963       4.02197766E-05
   9.40919971       3.80469392E-05
   9.42119980       3.57190875E-05
   9.43319988       3.32679410E-05
   9.44519997       3.07305818E-05
