   0.00000000       0.00000000    
   2.49999994E-03   0.00000000    
   4.99999989E-03   0.00000000    
   7.49999983E-03   0.00000000    
   9.99999978E-03   0.00000000    
   1.25000002E-02   0.00000000    
   1.49999997E-02   0.00000000    
   1.75000001E-02   0.00000000    
   1.99999996E-02   0.00000000    
   2.25000009E-02   0.00000000    
   2.50000004E-02   0.00000000    
   2.74999999E-02   0.00000000    
   2.99999993E-02   0.00000000    
   3.24999988E-02   0.00000000    
   3.50000001E-02  -2.51078852E-37
   3.75000015E-02   1.72472694E-36
   3.99999991E-02  -1.83650563E-36
   4.25000004E-02  -5.76133486E-35
   4.50000018E-02  -8.12377516E-36
   4.74999994E-02   6.66804543E-34
   5.00000007E-02   6.31418719E-34
   5.24999984E-02  -4.20380326E-33
   5.49999997E-02  -6.97124721E-33
   5.75000010E-02   1.50556538E-32
   5.99999987E-02   3.32946638E-32
   6.25000000E-02  -5.35643447E-32
   6.49999976E-02  -1.15875331E-31
   6.75000027E-02   3.33725244E-31
   7.00000003E-02   8.28166521E-31
   7.24999979E-02  -1.16643609E-30
   7.50000030E-02  -5.62715164E-30
   7.75000006E-02  -2.42166093E-30
   7.99999982E-02   1.88731986E-29
   8.25000033E-02   3.59124937E-29
   8.50000009E-02  -8.70763709E-30
   8.74999985E-02  -1.19160259E-28
   9.00000036E-02  -1.51228942E-28
   9.25000012E-02   7.85435518E-29
   9.49999988E-02   4.72098729E-28
   9.74999964E-02   5.31843965E-28
  0.100000001      -1.69111238E-28
  0.102499999      -1.28939469E-27
  0.104999997      -1.71458821E-27
  0.107500002      -5.20310004E-28
  0.109999999       2.04511573E-27
  0.112499997       4.56483877E-27
  0.115000002       5.14172142E-27
  0.117500000       1.84200370E-27
  0.119999997      -6.70455657E-27
  0.122500002      -1.89155225E-26
  0.125000000      -2.64148934E-26
  0.127499998      -1.37242954E-26
  0.129999995       3.15089689E-26
  0.132499993       9.73762383E-26
  0.135000005       1.30823435E-25
  0.137500003       5.34065735E-26
  0.140000001      -1.72021807E-25
  0.142499998      -4.51610740E-25
  0.144999996      -5.33984729E-25
  0.147499993      -1.38397116E-25
  0.150000006       7.71635141E-25
  0.152500004       1.74614973E-24
  0.155000001       1.90567831E-24
  0.157499999       4.40407288E-25
  0.159999996      -2.62439173E-24
  0.162499994      -5.87831615E-24
  0.165000007      -6.72817021E-24
  0.167500004      -2.61802464E-24
  0.170000002       6.97127742E-24
  0.172499999       1.85938113E-23
  0.174999997       2.44204483E-23
  0.177499995       1.49454085E-23
  0.180000007      -1.45812640E-23
  0.182500005      -5.61526780E-23
  0.185000002      -8.51671525E-23
  0.187500000      -6.78319909E-23
  0.189999998       1.75447367E-23
  0.192499995       1.53332510E-22
  0.194999993       2.68525374E-22
  0.197500005       2.58653733E-22
  0.200000003       4.54044009E-23
  0.202500001      -3.46739002E-22
  0.204999998      -7.45266962E-22
  0.207499996      -8.66453617E-22
  0.209999993      -4.51797225E-22
  0.212500006       5.38120368E-22
  0.215000004       1.77285626E-21
  0.217500001       2.56529569E-21
  0.219999999       2.12508536E-21
  0.222499996       1.67887681E-23
  0.224999994      -3.35882443E-21
  0.227500007      -6.55361871E-21
  0.230000004      -7.41397702E-21
  0.232500002      -4.06213374E-21
  0.234999999       3.76001571E-21
  0.237499997       1.36464542E-20
  0.239999995       2.06049172E-20
  0.242500007       1.87902186E-20
  0.245000005       4.64788343E-21
  0.247500002      -1.97749222E-20
  0.250000000      -4.52788295E-20
  0.252499998      -5.74653616E-20
  0.254999995      -4.26375126E-20
  0.257499993       4.00074668E-21
  0.259999990       7.14942866E-20
  0.262499988       1.32046150E-19
  0.264999986       1.48749524E-19
  0.267500013       9.16817587E-20
  0.270000011      -4.27606526E-20
  0.272500008      -2.18204249E-19
  0.275000006      -3.59873714E-19
  0.277500004      -3.76914178E-19
  0.280000001      -2.02545888E-19
  0.282499999       1.61028542E-19
  0.284999996       6.13532475E-19
  0.287499994       9.64134735E-19
  0.289999992       9.86753162E-19
  0.292499989       5.16002711E-19
  0.294999987      -4.45057291E-19
  0.297500014      -1.65107235E-18
  0.300000012      -2.62320334E-18
  0.302500010      -2.77221745E-18
  0.305000007      -1.62906894E-18
  0.307500005       8.76187755E-19
  0.310000002       4.19581121E-18
  0.312500000       7.13695072E-18
  0.314999998       8.12655652E-18
  0.317499995       5.77701327E-18
  0.319999993      -3.80156054E-19
  0.322499990      -9.26580177E-18
  0.324999988      -1.80726837E-17
  0.327499986      -2.28080049E-17
  0.330000013      -1.96048555E-17
  0.332500011      -6.50738769E-18
  0.335000008       1.48988811E-17
  0.337500006       3.88047300E-17
  0.340000004       5.60981782E-17
  0.342500001       5.70627502E-17
  0.344999999       3.53033241E-17
  0.347499996      -8.37937600E-18
  0.349999994      -6.38586411E-17
  0.352499992      -1.12802316E-16
  0.354999989      -1.33639578E-16
  0.357499987      -1.09492700E-16
  0.360000014      -3.66124135E-17
  0.362500012       7.01467556E-17
  0.365000010       1.78063094E-16
  0.367500007       2.45023709E-16
  0.370000005       2.34347547E-16
  0.372500002       1.31415004E-16
  0.375000000      -4.44689617E-17
  0.377499998      -2.39260550E-16
  0.379999995      -3.77629681E-16
  0.382499993      -3.88709481E-16
  0.384999990      -2.36583714E-16
  0.387499988       5.57955028E-17
  0.389999986       4.00566169E-16
  0.392500013       6.63563599E-16
  0.395000011       7.06187568E-16
  0.397500008       4.39768574E-16
  0.400000006      -1.25519390E-16
  0.402500004      -8.57077752E-16
  0.405000001      -1.51638485E-15
  0.407499999      -1.81880950E-15
  0.409999996      -1.52506429E-15
  0.412499994      -5.39197563E-16
  0.414999992       1.01910028E-15
  0.417499989       2.79759672E-15
  0.419999987       4.26729354E-15
  0.422500014       4.84863894E-15
  0.425000012       4.08404940E-15
  0.427500010       1.81421074E-15
  0.430000007      -1.69467597E-15
  0.432500005      -5.72342915E-15
  0.435000002      -9.20645870E-15
  0.437500000      -1.09750965E-14
  0.439999998      -1.00976780E-14
  0.442499995      -6.23181621E-15
  0.444999993       1.26524091E-16
  0.447499990       7.61188360E-15
  0.449999988       1.42461133E-14
  0.452499986       1.79659940E-14
  0.455000013       1.72972242E-14
  0.457500011       1.19610962E-14
  0.460000008       3.17278171E-15
  0.462500006      -6.54693364E-15
  0.465000004      -1.40749830E-14
  0.467500001      -1.67380910E-14
  0.469999999      -1.33781349E-14
  0.472499996      -5.02583061E-15
  0.474999994       5.14434915E-15
  0.477499992       1.26850875E-14
  0.479999989       1.33818255E-14
  0.482499987       4.92972286E-15
  0.485000014      -1.18145316E-14
  0.487500012      -3.25301377E-14
  0.490000010      -5.03208654E-14
  0.492500007      -5.76360113E-14
  0.495000005      -4.86806606E-14
  0.497500002      -2.15511829E-14
  0.500000000       2.06300126E-14
  0.502499998       7.00165972E-14
  0.504999995       1.15758829E-13
  0.507499993       1.46672849E-13
  0.509999990       1.54087301E-13
  0.512499988       1.34047612E-13
  0.514999986       8.82656917E-14
  0.517499983       2.35851462E-14
  0.519999981      -4.98371486E-14
  0.522499979      -1.21083346E-13
  0.524999976      -1.81026675E-13
  0.527499974      -2.24172026E-13
  0.529999971      -2.49272987E-13
  0.532500029      -2.58548445E-13
  0.535000026      -2.55695936E-13
  0.537500024      -2.43266995E-13
  0.540000021      -2.20202220E-13
  0.542500019      -1.80435229E-13
  0.545000017      -1.13316142E-13
  0.547500014      -6.25524599E-15
  0.550000012       1.50585436E-13
  0.552500010       3.58430516E-13
  0.555000007       6.04379177E-13
  0.557500005       8.58173721E-13
  0.560000002       1.07303088E-12
  0.562500000       1.19159261E-12
  0.564999998       1.15668803E-12
  0.567499995       9.25000528E-13
  0.569999993       4.80388678E-13
  0.572499990      -1.56916160E-13
  0.574999988      -9.28406440E-13
  0.577499986      -1.74381820E-12
  0.579999983      -2.49458223E-12
  0.582499981      -3.07038292E-12
  0.584999979      -3.37333438E-12
  0.587499976      -3.32489223E-12
  0.589999974      -2.86313443E-12
  0.592499971      -1.93080773E-12
  0.595000029      -4.59096628E-13
  0.597500026       1.64702269E-12
  0.600000024       4.51440274E-12
  0.602500021       8.29568705E-12
  0.605000019       1.31520411E-11
  0.607500017       1.92287523E-11
  0.610000014       2.66328088E-11
  0.612500012       3.54185917E-11
  0.615000010       4.55815906E-11
  0.617500007       5.70598499E-11
  0.620000005       6.97285840E-11
  0.622500002       8.33801223E-11
  0.625000000       9.76730710E-11
  0.627499998       1.12034722E-10
  0.629999995       1.25526894E-10
  0.632499993       1.36665887E-10
  0.634999990       1.43173987E-10
  0.637499988       1.41668940E-10
  0.639999986       1.27288624E-10
  0.642499983       9.32045136E-11
  0.644999981       2.99889141E-11
  0.647499979      -7.51765317E-11
  0.649999976      -2.39543885E-10
  0.652499974      -4.86068741E-10
  0.654999971      -8.45141568E-10
  0.657500029      -1.35671618E-09
  0.660000026      -2.07309814E-09
  0.662500024      -3.06241965E-09
  0.665000021      -4.41312320E-09
  0.667500019      -6.23951646E-09
  0.670000017      -8.68860006E-09
  0.672500014      -1.19484804E-08
  0.675000012      -1.62588432E-08
  0.677500010      -2.19234320E-08
  0.680000007      -2.93251308E-08
  0.682500005      -3.89441404E-08
  0.685000002      -5.13784641E-08
  0.687500000      -6.73687168E-08
  0.689999998      -8.78256330E-08
  0.692499995      -1.13861944E-07
  0.694999993      -1.46827986E-07
  0.697499990      -1.88352416E-07
  0.699999988      -2.40384679E-07
  0.702499986      -3.05242310E-07
  0.704999983      -3.85659774E-07
  0.707499981      -4.84838949E-07
  0.709999979      -6.06502510E-07
  0.712499976      -7.54948530E-07
  0.714999974      -9.35104140E-07
  0.717499971      -1.15257512E-06
  0.720000029      -1.41368810E-06
  0.722500026      -1.72553359E-06
  0.725000024      -2.09599352E-06
  0.727500021      -2.53376265E-06
  0.730000019      -3.04836249E-06
  0.732500017      -3.65013170E-06
  0.735000014      -4.35021593E-06
  0.737500012      -5.16051796E-06
  0.740000010      -6.09364770E-06
  0.742500007      -7.16283284E-06
  0.745000005      -8.38183951E-06
  0.747500002      -9.76484625E-06
  0.750000000      -1.13263131E-05
  0.752499998      -1.30808367E-05
  0.754999995      -1.50429851E-05
  0.757499993      -1.72270502E-05
  0.759999990      -1.96469264E-05
  0.762499988      -2.23158677E-05
  0.764999986      -2.52462814E-05
  0.767499983      -2.84495381E-05
  0.769999981      -3.19357969E-05
  0.772499979      -3.57138379E-05
  0.774999976      -3.97908516E-05
  0.777499974      -4.41722914E-05
  0.779999971      -4.88616533E-05
  0.782500029      -5.38604836E-05
  0.785000026      -5.91684075E-05
  0.787500024      -6.47829875E-05
  0.790000021      -7.06997962E-05
  0.792500019      -7.69124817E-05
  0.795000017      -8.34127713E-05
  0.797500014      -9.01905223E-05
  0.800000012      -9.72339767E-05
  0.802500010      -1.04529834E-04
  0.805000007      -1.12063433E-04
  0.807500005      -1.19819029E-04
  0.810000002      -1.27780004E-04
  0.812500000      -1.35928771E-04
  0.814999998      -1.44247417E-04
  0.817499995      -1.52717243E-04
  0.819999993      -1.61319331E-04
  0.822499990      -1.70033862E-04
  0.824999988      -1.78840957E-04
  0.827499986      -1.87719954E-04
  0.829999983      -1.96649533E-04
  0.832499981      -2.05607634E-04
  0.834999979      -2.14571133E-04
  0.837499976      -2.23515541E-04
  0.839999974      -2.32414866E-04
  0.842499971      -2.41240676E-04
  0.845000029      -2.49962206E-04
  0.847500026      -2.58545508E-04
  0.850000024      -2.66953808E-04
  0.852500021      -2.75147147E-04
  0.855000019      -2.83081521E-04
  0.857500017      -2.90709111E-04
  0.860000014      -2.97978579E-04
  0.862500012      -3.04834306E-04
  0.865000010      -3.11217475E-04
  0.867500007      -3.17065889E-04
  0.870000005      -3.22315143E-04
  0.872500002      -3.26898444E-04
  0.875000000      -3.30747891E-04
  0.877499998      -3.33795731E-04
  0.879999995      -3.35974270E-04
  0.882499993      -3.37218575E-04
  0.884999990      -3.37466976E-04
  0.887499988      -3.36662488E-04
  0.889999986      -3.34754761E-04
  0.892499983      -3.31701740E-04
  0.894999981      -3.27470014E-04
  0.897499979      -3.22035688E-04
  0.899999976      -3.15384270E-04
  0.902499974      -3.07514274E-04
  0.904999971      -2.98436702E-04
  0.907500029      -2.88176729E-04
  0.910000026      -2.76771782E-04
  0.912500024      -2.64273724E-04
  0.915000021      -2.50746001E-04
  0.917500019      -2.36265259E-04
  0.920000017      -2.20916772E-04
  0.922500014      -2.04795841E-04
  0.925000012      -1.88008824E-04
  0.927500010      -1.70668951E-04
  0.930000007      -1.52893874E-04
  0.932500005      -1.34804563E-04
  0.935000002      -1.16525473E-04
  0.937500000      -9.81775956E-05
  0.939999998      -7.98805049E-05
  0.942499995      -6.17536280E-05
  0.944999993      -4.39046598E-05
  0.947499990      -2.64392129E-05
  0.949999988      -9.45028569E-06
  0.952499986       6.97790665E-06
  0.954999983       2.27700039E-05
  0.957499981       3.78584955E-05
  0.959999979       5.21935362E-05
  0.962499976       6.57324999E-05
  0.964999974       7.84461954E-05
  0.967499971       9.03198234E-05
  0.970000029       1.01344856E-04
  0.972500026       1.11525100E-04
  0.975000024       1.20871031E-04
  0.977500021       1.29399748E-04
  0.980000019       1.37138530E-04
  0.982500017       1.44116028E-04
  0.985000014       1.50369888E-04
  0.987500012       1.55941947E-04
  0.990000010       1.60874537E-04
  0.992500007       1.65211168E-04
  0.995000005       1.68995597E-04
  0.997500002       1.72271393E-04
   1.00000000       1.75080291E-04
   1.00250006       1.77464171E-04
   1.00500000       1.79464740E-04
   1.00750005       1.81118856E-04
   1.00999999       1.82462958E-04
   1.01250005       1.83529279E-04
   1.01499999       1.84349599E-04
   1.01750004       1.84951088E-04
   1.01999998       1.85361045E-04
   1.02250004       1.85602301E-04
   1.02499998       1.85695550E-04
   1.02750003       1.85661193E-04
   1.02999997       1.85517609E-04
   1.03250003       1.85281329E-04
   1.03499997       1.84967284E-04
   1.03750002       1.84592078E-04
   1.03999996       1.84169039E-04
   1.04250002       1.83709228E-04
   1.04499996       1.83223965E-04
   1.04750001       1.82722302E-04
   1.04999995       1.82217875E-04
   1.05250001       1.81717405E-04
   1.05499995       1.81230833E-04
   1.05750000       1.80762130E-04
   1.05999994       1.80316856E-04
   1.06250000       1.79898852E-04
   1.06500006       1.79515016E-04
   1.06750000       1.79171038E-04
   1.07000005       1.78871938E-04
   1.07249999       1.78618211E-04
   1.07500005       1.78409871E-04
   1.07749999       1.78245187E-04
   1.08000004       1.78120885E-04
   1.08249998       1.78034767E-04
   1.08500004       1.77984592E-04
   1.08749998       1.77968701E-04
   1.09000003       1.77988026E-04
   1.09249997       1.78040355E-04
   1.09500003       1.78123155E-04
   1.09749997       1.78231028E-04
   1.10000002       1.78359900E-04
   1.10249996       1.78504240E-04
   1.10500002       1.78660179E-04
   1.10749996       1.78821370E-04
   1.11000001       1.78984657E-04
   1.11249995       1.79146955E-04
   1.11500001       1.79310649E-04
   1.11749995       1.79474504E-04
   1.12000000       1.79637995E-04
   1.12249994       1.79797629E-04
   1.12500000       1.79946408E-04
   1.12750006       1.80079252E-04
   1.13000000       1.80191142E-04
   1.13250005       1.80281422E-04
   1.13499999       1.80351824E-04
   1.13750005       1.80404910E-04
   1.13999999       1.80439849E-04
   1.14250004       1.80454110E-04
   1.14499998       1.80445932E-04
   1.14750004       1.80411604E-04
   1.14999998       1.80348827E-04
   1.15250003       1.80259129E-04
   1.15499997       1.80142306E-04
   1.15750003       1.79998809E-04
   1.15999997       1.79826166E-04
   1.16250002       1.79624782E-04
   1.16499996       1.79392446E-04
   1.16750002       1.79133203E-04
   1.16999996       1.78847782E-04
   1.17250001       1.78540751E-04
   1.17499995       1.78213129E-04
   1.17750001       1.77865324E-04
   1.17999995       1.77495982E-04
   1.18250000       1.77102920E-04
   1.18499994       1.76687114E-04
   1.18750000       1.76251691E-04
   1.19000006       1.75798763E-04
   1.19250000       1.75332752E-04
   1.19500005       1.74855275E-04
   1.19749999       1.74369095E-04
   1.20000005       1.73875276E-04
   1.20249999       1.73374749E-04
   1.20500004       1.72868065E-04
   1.20749998       1.72353612E-04
   1.21000004       1.71829437E-04
   1.21249998       1.71294436E-04
   1.21500003       1.70751911E-04
   1.21749997       1.70205079E-04
   1.22000003       1.69657418E-04
   1.22249997       1.69110892E-04
   1.22500002       1.68562532E-04
   1.22749996       1.68008803E-04
   1.23000002       1.67445993E-04
   1.23249996       1.66870945E-04
   1.23500001       1.66286365E-04
   1.23749995       1.65697595E-04
   1.24000001       1.65107776E-04
   1.24249995       1.64516678E-04
   1.24500000       1.63922101E-04
   1.24749994       1.63319623E-04
   1.25000000       1.62705837E-04
   1.25250006       1.62081924E-04
   1.25500000       1.61453529E-04
   1.25750005       1.60824988E-04
   1.25999999       1.60200900E-04
   1.26250005       1.59580377E-04
   1.26499999       1.58958792E-04
   1.26750004       1.58333656E-04
   1.26999998       1.57701186E-04
   1.27250004       1.57063565E-04
   1.27499998       1.56424634E-04
   1.27750003       1.55788410E-04
   1.27999997       1.55156420E-04
   1.28250003       1.54528272E-04
   1.28499997       1.53902249E-04
   1.28750002       1.53275265E-04
   1.28999996       1.52647874E-04
   1.29250002       1.52018765E-04
   1.29499996       1.51389730E-04
   1.29750001       1.50760796E-04
   1.29999995       1.50131644E-04
   1.30250001       1.49500949E-04
   1.30499995       1.48869905E-04
   1.30750000       1.48237639E-04
   1.30999994       1.47604369E-04
   1.31250000       1.46969076E-04
   1.31500006       1.46332692E-04
   1.31750000       1.45694692E-04
   1.32000005       1.45055266E-04
   1.32249999       1.44414036E-04
   1.32500005       1.43771686E-04
   1.32749999       1.43125886E-04
   1.33000004       1.42474688E-04
   1.33249998       1.41818498E-04
   1.33500004       1.41157769E-04
   1.33749998       1.40496573E-04
   1.34000003       1.39837503E-04
   1.34249997       1.39183161E-04
   1.34500003       1.38532414E-04
   1.34749997       1.37881725E-04
   1.35000002       1.37226147E-04
   1.35249996       1.36561561E-04
   1.35500002       1.35890004E-04
   1.35749996       1.35215552E-04
   1.36000001       1.34544694E-04
   1.36249995       1.33879861E-04
   1.36500001       1.33223730E-04
   1.36749995       1.32572735E-04
   1.37000000       1.31924549E-04
   1.37249994       1.31275287E-04
   1.37500000       1.30622604E-04
   1.37750006       1.29966473E-04
   1.38000000       1.29308566E-04
   1.38250005       1.28651373E-04
   1.38499999       1.27996260E-04
   1.38750005       1.27345047E-04
   1.38999999       1.26698680E-04
   1.39250004       1.26056140E-04
   1.39499998       1.25414663E-04
   1.39750004       1.24772167E-04
   1.39999998       1.24125800E-04
   1.40250003       1.23475707E-04
   1.40499997       1.22824058E-04
   1.40750003       1.22173660E-04
   1.40999997       1.21526624E-04
   1.41250002       1.20882651E-04
   1.41499996       1.20241493E-04
   1.41750002       1.19601813E-04
   1.41999996       1.18962700E-04
   1.42250001       1.18325021E-04
   1.42499995       1.17690426E-04
   1.42750001       1.17059564E-04
   1.42999995       1.16431635E-04
   1.43250000       1.15802985E-04
   1.43499994       1.15172435E-04
   1.43750000       1.14538780E-04
   1.44000006       1.13903261E-04
   1.44250000       1.13269969E-04
   1.44500005       1.12640751E-04
   1.44749999       1.12017144E-04
   1.45000005       1.11396621E-04
   1.45249999       1.10776797E-04
   1.45500004       1.10153400E-04
   1.45749998       1.09525477E-04
   1.46000004       1.08892622E-04
   1.46249998       1.08257940E-04
   1.46500003       1.07623360E-04
   1.46749997       1.06991210E-04
   1.47000003       1.06362284E-04
   1.47249997       1.05737250E-04
   1.47500002       1.05114013E-04
   1.47749996       1.04491766E-04
   1.48000002       1.03868239E-04
   1.48249996       1.03241749E-04
   1.48500001       1.02613129E-04
   1.48749995       1.01984850E-04
   1.49000001       1.01360929E-04
   1.49249995       1.00746118E-04
   1.49500000       1.00139834E-04
   1.49749994       9.95405499E-05
   1.50000000       9.89431064E-05
   1.50250006       9.83435748E-05
   1.50500000       9.77411109E-05
   1.50750005       9.71394475E-05
   1.50999999       9.65426807E-05
   1.51250005       9.59554236E-05
   1.51499999       9.53768467E-05
   1.51750004       9.48034940E-05
   1.51999998       9.42293118E-05
   1.52250004       9.36509459E-05
   1.52499998       9.30687529E-05
   1.52750003       9.24867927E-05
   1.52999997       9.19105078E-05
   1.53250003       9.13416006E-05
   1.53499997       9.07786380E-05
   1.53750002       9.02176253E-05
   1.53999996       8.96564306E-05
   1.54250002       8.90935553E-05
   1.54499996       8.85320842E-05
   1.54750001       8.79749205E-05
   1.54999995       8.74243196E-05
   1.55250001       8.68794159E-05
   1.55499995       8.63378446E-05
   1.55750000       8.57974956E-05
   1.55999994       8.52579542E-05
   1.56250000       8.47205083E-05
   1.56500006       8.41887304E-05
   1.56750000       8.36648178E-05
   1.57000005       8.31491634E-05
   1.57249999       8.26400137E-05
   1.57500005       8.21347130E-05
   1.57749999       8.16324828E-05
   1.58000004       8.11329519E-05
   1.58249998       8.06359967E-05
   1.58500004       8.01419301E-05
   1.58749998       7.96510285E-05
   1.59000003       7.91638740E-05
   1.59249997       7.86819946E-05
   1.59500003       7.82065254E-05
   1.59749997       7.77377427E-05
   1.60000002       7.72747226E-05
   1.60249996       7.68153914E-05
   1.60500002       7.63569915E-05
   1.60749996       7.58984606E-05
   1.61000001       7.54417852E-05
   1.61249995       7.49907922E-05
   1.61500001       7.45499201E-05
   1.61749995       7.41187541E-05
   1.62000000       7.36939401E-05
   1.62249994       7.32709668E-05
   1.62500000       7.28465529E-05
   1.62750006       7.24212150E-05
   1.63000000       7.19990712E-05
   1.63250005       7.15858114E-05
   1.63499999       7.11836765E-05
   1.63750005       7.07910949E-05
   1.63999999       7.04035629E-05
   1.64250004       7.00161472E-05
   1.64499998       6.96283169E-05
   1.64750004       6.92425965E-05
   1.64999998       6.88634536E-05
   1.65250003       6.84938786E-05
   1.65499997       6.81327074E-05
   1.65750003       6.77761200E-05
   1.65999997       6.74202165E-05
   1.66250002       6.70651425E-05
   1.66499996       6.67123677E-05
   1.66750002       6.63653700E-05
   1.66999996       6.60252699E-05
   1.67250001       6.56901466E-05
   1.67499995       6.53568277E-05
   1.67750001       6.50222501E-05
   1.67999995       6.46884073E-05
   1.68250000       6.43593230E-05
   1.68499994       6.40402359E-05
   1.68750000       6.37321282E-05
   1.69000006       6.34317039E-05
   1.69250000       6.31334697E-05
   1.69500005       6.28330672E-05
   1.69749999       6.25309403E-05
   1.70000005       6.22315565E-05
   1.70249999       6.19413477E-05
   1.70500004       6.16630496E-05
   1.70749998       6.13954544E-05
   1.71000004       6.11330397E-05
   1.71249998       6.08705013E-05
   1.71500003       6.06062895E-05
   1.71749997       6.03425215E-05
   1.72000003       6.00839339E-05
   1.72249997       5.98336119E-05
   1.72500002       5.95911042E-05
   1.72749996       5.93538534E-05
   1.73000002       5.91185853E-05
   1.73249996       5.88847506E-05
   1.73500001       5.86530805E-05
   1.73749995       5.84261070E-05
   1.74000001       5.82045432E-05
   1.74249995       5.79875741E-05
   1.74500000       5.77728206E-05
   1.74749994       5.75587364E-05
   1.75000000       5.73459220E-05
   1.75250006       5.71373712E-05
   1.75500000       5.69356271E-05
   1.75750005       5.67416791E-05
   1.75999999       5.65535593E-05
   1.76250005       5.63684152E-05
   1.76499999       5.61834968E-05
   1.76750004       5.59988184E-05
   1.76999998       5.58163883E-05
   1.77250004       5.56370869E-05
   1.77499998       5.54615763E-05
   1.77750003       5.52883066E-05
   1.77999997       5.51168123E-05
   1.78250003       5.49487304E-05
   1.78499997       5.47866221E-05
   1.78750002       5.46324009E-05
   1.78999996       5.44848735E-05
   1.79250002       5.43390561E-05
   1.79499996       5.41891641E-05
   1.79750001       5.40315414E-05
   1.79999995       5.38687200E-05
   1.80250001       5.37078340E-05
   1.80499995       5.35578511E-05
   1.80750000       5.34229475E-05
   1.80999994       5.33009661E-05
   1.81250000       5.31831538E-05
   1.81500006       5.30603975E-05
   1.81750000       5.29282806E-05
   1.82000005       5.27902594E-05
   1.82249999       5.26539989E-05
   1.82500005       5.25277537E-05
   1.82749999       5.24139468E-05
   1.83000004       5.23088420E-05
   1.83249998       5.22052360E-05
   1.83500004       5.20983340E-05
   1.83749998       5.19876412E-05
   1.84000003       5.18778979E-05
   1.84249997       5.17743938E-05
   1.84500003       5.16794280E-05
   1.84749997       5.15903994E-05
   1.85000002       5.15021929E-05
   1.85249996       5.14108833E-05
   1.85500002       5.13161285E-05
   1.85749996       5.12216320E-05
   1.86000001       5.11317594E-05
   1.86249995       5.10492682E-05
   1.86500001       5.09738929E-05
   1.86749995       5.09027923E-05
   1.87000000       5.08325575E-05
   1.87249994       5.07617551E-05
   1.87500000       5.06903234E-05
   1.87750006       5.06190700E-05
   1.88000000       5.05485477E-05
   1.88250005       5.04791642E-05
   1.88499999       5.04119344E-05
   1.88750005       5.03486226E-05
   1.88999999       5.02913572E-05
   1.89250004       5.02412004E-05
   1.89499998       5.01968352E-05
   1.89750004       5.01544928E-05
   1.89999998       5.01095565E-05
   1.90250003       5.00604474E-05
   1.90499997       5.00093665E-05
   1.90750003       4.99612215E-05
   1.90999997       4.99207854E-05
   1.91250002       4.98890840E-05
   1.91499996       4.98627705E-05
   1.91750002       4.98360241E-05
   1.91999996       4.98045956E-05
   1.92250001       4.97687397E-05
   1.92499995       4.97329456E-05
   1.92750001       4.97023757E-05
   1.92999995       4.96795874E-05
   1.93250000       4.96623361E-05
   1.93499994       4.96454049E-05
   1.93750000       4.96239263E-05
   1.94000006       4.95969871E-05
   1.94250000       4.95679269E-05
   1.94500005       4.95424065E-05
   1.94749999       4.95241693E-05
   1.95000005       4.95130189E-05
   1.95249999       4.95049353E-05
   1.95500004       4.94952583E-05
   1.95749998       4.94810592E-05
   1.96000004       4.94630331E-05
   1.96249998       4.94446067E-05
   1.96500003       4.94288142E-05
   1.96749997       4.94167143E-05
   1.97000003       4.94076121E-05
   1.97249997       4.94003543E-05
   1.97500002       4.93943990E-05
   1.97749996       4.93900116E-05
   1.98000002       4.93874140E-05
   1.98249996       4.93853913E-05
   1.98500001       4.93819316E-05
   1.98749995       4.93758307E-05
   1.99000001       4.93681546E-05
   1.99249995       4.93623193E-05
   1.99500000       4.93623666E-05
   1.99749994       4.93701955E-05
   2.00000000       4.93837397E-05
   2.00250006       4.93982370E-05
   2.00500011       4.94093365E-05
   2.00749993       4.94163942E-05
   2.00999999       4.94233245E-05
   2.01250005       4.94361848E-05
   2.01500010       4.94592496E-05
   2.01749992       4.94913875E-05
   2.01999998       4.95269123E-05
   2.02250004       4.95588101E-05
   2.02500010       4.95835739E-05
   2.02749991       4.96037101E-05
   2.02999997       4.96261819E-05
   2.03250003       4.96579414E-05
   2.03500009       4.97014771E-05
   2.03749990       4.97527944E-05
   2.03999996       4.98039444E-05
   2.04250002       4.98475347E-05
   2.04500008       4.98813206E-05
   2.04749990       4.99089947E-05
   2.04999995       4.99378220E-05
   2.05250001       4.99741291E-05
   2.05500007       5.00202295E-05
   2.05749989       5.00731876E-05
   2.05999994       5.01267969E-05
   2.06250000       5.01748109E-05
   2.06500006       5.02135663E-05
   2.06750011       5.02430194E-05
   2.06999993       5.02662406E-05
   2.07249999       5.02879811E-05
   2.07500005       5.03126284E-05
   2.07750010       5.03428855E-05
   2.07999992       5.03783012E-05
   2.08249998       5.04156415E-05
   2.08500004       5.04494164E-05
   2.08750010       5.04749805E-05
   2.08999991       5.04906457E-05
   2.09249997       5.04993113E-05
   2.09500003       5.05072712E-05
   2.09750009       5.05211356E-05
   2.09999990       5.05441203E-05
   2.10249996       5.05740754E-05
   2.10500002       5.06050346E-05
   2.10750008       5.06308388E-05
   2.10999990       5.06492870E-05
   2.11249995       5.06639808E-05
   2.11500001       5.06817341E-05
   2.11750007       5.07082877E-05
   2.11999989       5.07442310E-05
   2.12249994       5.07847253E-05
   2.12500000       5.08227895E-05
   2.12750006       5.08543635E-05
   2.13000011       5.08813682E-05
   2.13249993       5.09106394E-05
   2.13499999       5.09495585E-05
   2.13750005       5.10009413E-05
   2.14000010       5.10607206E-05