   0.00000000       0.00000000    
   2.49999994E-03   0.00000000    
   4.99999989E-03   0.00000000    
   7.49999983E-03   0.00000000    
   9.99999978E-03   0.00000000    
   1.25000002E-02   0.00000000    
   1.49999997E-02   0.00000000    
   1.75000001E-02   0.00000000    
   1.99999996E-02   0.00000000    
   2.25000009E-02   0.00000000    
   2.50000004E-02   0.00000000    
   2.74999999E-02   0.00000000    
   2.99999993E-02   0.00000000    
   3.24999988E-02   0.00000000    
   3.50000001E-02   0.00000000    
   3.75000015E-02  -4.38438264E-41
   3.99999991E-02   4.99533475E-40
   4.25000004E-02  -4.18296700E-39
   4.50000018E-02  -1.96069205E-38
   4.74999994E-02   7.96562899E-38
   5.00000007E-02   3.21946708E-37
   5.24999984E-02  -7.51162253E-37
   5.49999997E-02  -3.77167773E-36
   5.75000010E-02   2.73653618E-36
   5.99999987E-02   2.94920340E-35
   6.25000000E-02   1.37949313E-35
   6.49999976E-02  -1.44754013E-34
   6.75000027E-02  -2.17769811E-34
   7.00000003E-02   3.94303509E-34
   7.24999979E-02   1.22894004E-33
   7.50000030E-02  -2.01262908E-34
   7.75000006E-02  -4.05588750E-33
   7.99999982E-02  -2.68579447E-33
   8.25000033E-02   9.02753507E-33
   8.50000009E-02   1.21490596E-32
   8.74999985E-02  -1.79114306E-32
   9.00000036E-02  -4.07437715E-32
   9.25000012E-02   3.73884522E-32
   9.49999988E-02   1.58961654E-31
   9.74999964E-02   7.27827898E-33
  0.100000001      -5.18309596E-31
  0.102499999      -6.20873076E-31
  0.104999997       7.77704476E-31
  0.107500002       2.75095094E-30
  0.109999999       1.56781061E-30
  0.112499997      -4.85097178E-30
  0.115000002      -1.03907103E-29
  0.117500000      -3.11676139E-30
  0.119999997       1.85949996E-29
  0.122500002       3.24600987E-29
  0.125000000       7.50749987E-30
  0.127499998      -5.31133803E-29
  0.129999995      -8.89993413E-29
  0.132499993      -2.87631167E-29
  0.135000005       1.16483337E-28
  0.137500003       2.15499909E-28
  0.140000001       1.16200742E-28
  0.142499998      -1.79002682E-28
  0.144999996      -4.43784478E-28
  0.147499993      -3.83461463E-28
  0.150000006       8.78543458E-29
  0.152500004       7.03221589E-28
  0.155000001       9.82714132E-28
  0.157499999       5.53084998E-28
  0.159999996      -5.75044066E-28
  0.162499994      -1.88401921E-27
  0.165000007      -2.39999009E-27
  0.167500004      -1.07034626E-27
  0.170000002       2.31921004E-27
  0.172499999       6.02547521E-27
  0.174999997       6.34251525E-27
  0.177499995       9.64308489E-29
  0.180000007      -1.10529690E-26
  0.182500005      -1.84122785E-26
  0.185000002      -1.08005851E-26
  0.187500000       1.43159010E-26
  0.189999998       4.15103415E-26
  0.192499995       4.21003201E-26
  0.194999993      -3.06724585E-27
  0.197500005      -7.65070031E-26
  0.200000003      -1.19332542E-25
  0.202500001      -6.67954351E-26
  0.204999998       8.98705102E-26
  0.207499996       2.62611721E-25
  0.209999993       2.96285112E-25
  0.212500006       7.49939741E-26
  0.215000004      -3.55082169E-25
  0.217500001      -7.44225035E-25
  0.219999999      -7.45548547E-25
  0.222499996      -1.41977855E-25
  0.224999994       9.31661394E-25
  0.227500007       1.92923251E-24
  0.230000004       2.08874137E-24
  0.232500002       8.41772370E-25
  0.234999999      -1.73416811E-24
  0.237499997      -4.65630908E-24
  0.239999995      -6.18225006E-24
  0.242500007      -4.46596838E-24
  0.245000005       1.35705306E-24
  0.247500002       1.00066651E-23
  0.250000000       1.74758912E-23
  0.252499998       1.78545981E-23
  0.254999995       6.09309221E-24
  0.257499993      -1.77649472E-23
  0.259999990      -4.49150862E-23
  0.262499988      -5.79740632E-23
  0.264999986      -3.78440463E-23
  0.267500013       2.31116524E-23
  0.270000011       1.07321080E-22
  0.272500008       1.67987753E-22
  0.275000006       1.44497066E-22
  0.277500004      -1.79986701E-24
  0.280000001      -2.45379968E-22
  0.282499999      -4.74863973E-22
  0.284999996      -5.18915783E-22
  0.287499994      -2.27477470E-22
  0.289999992       4.17805247E-22
  0.292499989       1.22094373E-21
  0.294999987       1.77969221E-21
  0.297500014       1.61623963E-21
  0.300000012       4.03171991E-22
  0.302500010      -1.80094668E-21
  0.305000007      -4.41657255E-21
  0.307500005      -6.39293928E-21
  0.310000002      -6.46284533E-21
  0.312500000      -3.55405582E-21
  0.314999998       2.73364411E-21
  0.317499995       1.16893852E-20
  0.319999993       2.11999024E-20
  0.322499990       2.77427362E-20
  0.324999988       2.68467946E-20
  0.327499986       1.42063488E-20
  0.330000013      -1.24939339E-20
  0.332500011      -5.13105239E-20
  0.335000008      -9.40675156E-20
  0.337500006      -1.25836453E-19
  0.340000004      -1.27079434E-19
  0.342500001      -7.90848578E-20
  0.344999999       2.79237951E-20
  0.347499996       1.86183299E-19
  0.349999994       3.64649674E-19
  0.352499992       5.09554941E-19
  0.354999989       5.53301112E-19
  0.357499987       4.31256765E-19
  0.360000014       1.03392969E-19
  0.362500012      -4.24015677E-19
  0.365000010      -1.08182909E-18
  0.367500007      -1.73144546E-18
  0.370000005      -2.17282128E-18
  0.372500002      -2.17190001E-18
  0.375000000      -1.51143982E-18
  0.377499998      -6.47067398E-20
  0.379999995       2.11842857E-18
  0.382499993       4.73715046E-18
  0.384999990       7.21248141E-18
  0.387499988       8.74250664E-18
  0.389999986       8.45767361E-18
  0.392500013       5.66042092E-18
  0.395000011       9.57547767E-20
  0.397500008      -7.82545202E-18
  0.400000006      -1.69273976E-17
  0.402500004      -2.53424565E-17
  0.405000001      -3.07605772E-17
  0.407499999      -3.08201011E-17
  0.409999996      -2.35849243E-17
  0.412499994      -8.05280344E-18
  0.414999992       1.53581863E-17
  0.417499989       4.44098249E-17
  0.419999987       7.48283729E-17
  0.422500014       1.00410469E-16
  0.425000012       1.13598288E-16
  0.427500010       1.06621695E-16
  0.430000007       7.31808408E-17
  0.432500005       1.04674752E-17
  0.435000002      -7.88600512E-17
  0.437500000      -1.85248911E-16
  0.439999998      -2.91891312E-16
  0.442499995      -3.75846280E-16
  0.444999993      -4.10860531E-16
  0.447499990      -3.71830285E-16
  0.449999988      -2.40542534E-16
  0.452499986      -1.19749606E-17
  0.455000013       2.99939608E-16
  0.457500011       6.58589081E-16
  0.460000008       1.00473788E-15
  0.462500006       1.26198814E-15
  0.465000004       1.34849413E-15
  0.467500001       1.19421524E-15
  0.469999999       7.60865238E-16
  0.472499996       5.96289026E-17
  0.474999994      -8.39278731E-16
  0.477499992      -1.81024578E-15
  0.479999989      -2.69085723E-15
  0.482499987      -3.31242758E-15
  0.485000014      -3.53469009E-15
  0.487500012      -3.27423190E-15
  0.490000010      -2.51756805E-15
  0.492500007      -1.31488545E-15
  0.495000005       2.41845774E-16
  0.497500002       2.04575461E-15
  0.500000000       3.99318775E-15
  0.502499998       5.98199443E-15
  0.504999995       7.88723707E-15
  0.507499993       9.52266288E-15
  0.509999990       1.06061883E-14
  0.512499988       1.07517458E-14
  0.514999986       9.50629481E-15
  0.517499983       6.43855747E-15
  0.519999981       1.26923821E-15
  0.522499979      -5.98522163E-15
  0.524999976      -1.48946712E-14
  0.527499974      -2.45640469E-14
  0.529999971      -3.36782502E-14
  0.532500029      -4.06506494E-14
  0.535000026      -4.38548124E-14
  0.537500024      -4.18948256E-14
  0.540000021      -3.38561678E-14
  0.542500019      -1.94838855E-14
  0.545000017       7.43780902E-16
  0.547500014       2.56459486E-14
  0.550000012       5.34420700E-14
  0.552500010       8.18767390E-14
  0.555000007       1.08319888E-13
  0.557500005       1.29823168E-13
  0.560000002       1.43153217E-13
  0.562500000       1.44863559E-13
  0.564999998       1.31485345E-13
  0.567499995       9.99059708E-14
  0.569999993       4.79515075E-14
  0.572499990      -2.48796531E-14
  0.574999988      -1.16667662E-13
  0.577499986      -2.22492136E-13
  0.579999983      -3.34217219E-13
  0.582499981      -4.40781716E-13
  0.584999979      -5.29033794E-13
  0.587499976      -5.85023241E-13
  0.589999974      -5.95553771E-13
  0.592499971      -5.49731539E-13
  0.595000029      -4.40256365E-13
  0.597500026      -2.64288401E-13
  0.600000024      -2.38316447E-14
  0.602500021       2.74279568E-13
  0.605000019       6.18647820E-13
  0.607500017       9.93675628E-13
  0.610000014       1.37996363E-12
  0.612500012       1.75481277E-12
  0.615000010       2.09306183E-12
  0.617500007       2.36854720E-12
  0.620000005       2.55643597E-12
  0.622500002       2.63649389E-12
  0.625000000       2.59712304E-12
  0.627499998       2.43970772E-12
  0.629999995       2.18274400E-12
  0.632499993       1.86521957E-12
  0.634999990       1.54908497E-12
  0.637499988       1.32095571E-12
  0.639999986       1.29365117E-12
  0.642499983       1.60841869E-12
  0.644999981       2.43858145E-12
  0.647499979       3.99532881E-12
  0.649999976       6.53547398E-12
  0.652499974       1.03708353E-11
  0.654999971       1.58779361E-11
  0.657500029       2.35062716E-11
  0.660000026       3.37835246E-11
  0.662500024       4.73142359E-11
  0.665000021       6.47705223E-11
  0.667500019       8.68703859E-11
  0.670000017       1.14340364E-10
  0.672500014       1.47857560E-10
  0.675000012       1.87965601E-10
  0.677500010       2.34959080E-10
  0.680000007       2.88728097E-10
  0.682500005       3.48560597E-10
  0.685000002       4.12886558E-10
  0.687500000       4.78963036E-10
  0.689999998       5.42491718E-10
  0.692499995       5.97157379E-10
  0.694999993       6.34080066E-10
  0.697499990       6.41181441E-10
  0.699999988       6.02408512E-10
  0.702499986       4.96830188E-10
  0.704999983       2.97513736E-10
  0.707499981      -2.98657002E-11
  0.709999979      -5.28755095E-10
  0.712499976      -1.25399258E-09
  0.714999974      -2.27467223E-09
  0.717499971      -3.67785313E-09
  0.720000029      -5.57338797E-09
  0.722500026      -8.10020317E-09
  0.725000024      -1.14341967E-08
  0.727500021      -1.57984257E-08
  0.730000019      -2.14759712E-08
  0.732500017      -2.88261077E-08
  0.735000014      -3.83040835E-08
  0.737500012      -5.04855251E-08
  0.740000010      -6.60958648E-08
  0.742500007      -8.60450555E-08
  0.745000005      -1.11468950E-07
  0.747500002      -1.43776774E-07
  0.750000000      -1.84706579E-07
  0.752499998      -2.36387450E-07
  0.754999995      -3.01409244E-07
  0.757499993      -3.82899913E-07
  0.759999990      -4.84607824E-07
  0.762499988      -6.10990810E-07
  0.764999986      -7.67309302E-07
  0.767499983      -9.59722684E-07
  0.769999981      -1.19538504E-06
  0.772499979      -1.48254480E-06
  0.774999976      -1.83063139E-06
  0.777499974      -2.25034250E-06
  0.779999971      -2.75371576E-06
  0.782500029      -3.35418167E-06
  0.785000026      -4.06661411E-06
  0.787500024      -4.90733782E-06
  0.790000021      -5.89413139E-06
  0.792500019      -7.04618969E-06
  0.795000017      -8.38404958E-06
  0.797500014      -9.92949572E-06
  0.800000012      -1.17054069E-05
  0.802500010      -1.37356137E-05
  0.805000007      -1.60446561E-05
  0.807500005      -1.86575508E-05
  0.810000002      -2.15995242E-05
  0.812500000      -2.48956931E-05
  0.814999998      -2.85707247E-05
  0.817499995      -3.26484806E-05
  0.819999993      -3.71516617E-05
  0.822499990      -4.21014192E-05
  0.824999988      -4.75170564E-05
  0.827499986      -5.34154933E-05
  0.829999983      -5.98111437E-05
  0.832499981      -6.67154673E-05
  0.834999979      -7.41366021E-05
  0.837499976      -8.20792993E-05
  0.839999974      -9.05446213E-05
  0.842499971      -9.95298178E-05
  0.845000029      -1.09028246E-04
  0.847500026      -1.19029282E-04
  0.850000024      -1.29518288E-04
  0.852500021      -1.40476899E-04
  0.855000019      -1.51882821E-04
  0.857500017      -1.63710429E-04
  0.860000014      -1.75930691E-04
  0.862500012      -1.88511272E-04
  0.865000010      -2.01417060E-04
  0.867500007      -2.14610336E-04
  0.870000005      -2.28051023E-04
  0.872500002      -2.41697169E-04
  0.875000000      -2.55504856E-04
  0.877499998      -2.69428565E-04
  0.879999995      -2.83421658E-04
  0.882499993      -2.97436025E-04
  0.884999990      -3.11422569E-04
  0.887499988      -3.25331202E-04
  0.889999986      -3.39111459E-04
  0.892499983      -3.52711591E-04
  0.894999981      -3.66079650E-04
  0.897499979      -3.79162317E-04
  0.899999976      -3.91905603E-04
  0.902499974      -4.04254621E-04
  0.904999971      -4.16153634E-04
  0.907500029      -4.27547173E-04
  0.910000026      -4.38378775E-04
  0.912500024      -4.48592007E-04
  0.915000021      -4.58130118E-04
  0.917500019      -4.66936704E-04
  0.920000017      -4.74955421E-04
  0.922500014      -4.82131582E-04
  0.925000012      -4.88412043E-04
  0.927500010      -4.93746775E-04
  0.930000007      -4.98087844E-04
  0.932500005      -5.01391536E-04
  0.935000002      -5.03618736E-04
  0.937500000      -5.04735159E-04
  0.939999998      -5.04712923E-04
  0.942499995      -5.03531541E-04
  0.944999993      -5.01178089E-04
  0.947499990      -4.97647678E-04
  0.949999988      -4.92943567E-04
  0.952499986      -4.87078476E-04
  0.954999983      -4.80074115E-04
  0.957499981      -4.71961772E-04
  0.959999979      -4.62783151E-04
  0.962499976      -4.52589040E-04
  0.964999974      -4.41438489E-04
  0.967499971      -4.29398206E-04
  0.970000029      -4.16542753E-04
  0.972500026      -4.02951933E-04
  0.975000024      -3.88712826E-04
  0.977500021      -3.73916759E-04
  0.980000019      -3.58657970E-04
  0.982500017      -3.43033345E-04
  0.985000014      -3.27139423E-04
  0.987500012      -3.11072596E-04
  0.990000010      -2.94928381E-04
  0.992500007      -2.78796797E-04
  0.995000005      -2.62766669E-04
  0.997500002      -2.46921059E-04
   1.00000000      -2.31336686E-04
   1.00250006      -2.16085056E-04
   1.00500000      -2.01229501E-04
   1.00750005      -1.86826757E-04
   1.00999999      -1.72927510E-04
   1.01250005      -1.59576142E-04
   1.01499999      -1.46808743E-04
   1.01750004      -1.34654096E-04
   1.01999998      -1.23134989E-04
   1.02250004      -1.12267393E-04
   1.02499998      -1.02060971E-04
   1.02750003      -9.25225031E-05
   1.02999997      -8.36544714E-05
   1.03250003      -7.54561261E-05
   1.03499997      -6.79229779E-05
   1.03750002      -6.10459174E-05
   1.03999996      -5.48134230E-05
   1.04250002      -4.92116851E-05
   1.04499996      -4.42257515E-05
   1.04750001      -3.98413540E-05
   1.04999995      -3.60409285E-05
   1.05250001      -3.28072165E-05
   1.05499995      -3.01189957E-05
   1.05750000      -2.79529486E-05
   1.05999994      -2.62844223E-05
   1.06250000      -2.50895719E-05
   1.06500006      -2.43413542E-05
   1.06750000      -2.40147328E-05
   1.07000005      -2.40824320E-05
   1.07249999      -2.45180781E-05
   1.07500005      -2.52867721E-05
   1.07749999      -2.63543625E-05
   1.08000004      -2.76840892E-05
   1.08249998      -2.92412042E-05
   1.08500004      -3.09902098E-05
   1.08749998      -3.28990536E-05
   1.09000003      -3.49364236E-05
   1.09249997      -3.70691414E-05
   1.09500003      -3.92637303E-05
   1.09749997      -4.14845490E-05
   1.10000002      -4.36984919E-05
   1.10249996      -4.58764953E-05
   1.10500002      -4.79942719E-05
   1.10749996      -5.00316382E-05
   1.11000001      -5.19696259E-05
   1.11249995      -5.37888736E-05
   1.11500001      -5.54740654E-05
   1.11749995      -5.70108532E-05
   1.12000000      -5.83913934E-05
   1.12249994      -5.96109749E-05
   1.12500000      -6.06690774E-05
   1.12750006      -6.15659301E-05
   1.13000000      -6.23015148E-05
   1.13250005      -6.28798880E-05
   1.13499999      -6.33055170E-05
   1.13750005      -6.35861070E-05
   1.13999999      -6.37306221E-05
   1.14250004      -6.37491612E-05
   1.14499998      -6.36518598E-05
   1.14750004      -6.34487660E-05
   1.14999998      -6.31503790E-05
   1.15250003      -6.27663030E-05
   1.15499997      -6.23043525E-05
   1.15750003      -6.17758997E-05
   1.15999997      -6.11904325E-05
   1.16250002      -6.05562418E-05
   1.16499996      -5.98806582E-05
   1.16750002      -5.91724929E-05
   1.16999996      -5.84368245E-05
   1.17250001      -5.76786697E-05
   1.17499995      -5.69019794E-05
   1.17750001      -5.61116904E-05
   1.17999995      -5.53121354E-05
   1.18250000      -5.45084731E-05
   1.18499994      -5.37060005E-05
   1.18750000      -5.29059253E-05
   1.19000006      -5.21127222E-05
   1.19250000      -5.13273662E-05
   1.19500005      -5.05517237E-05
   1.19749999      -4.97878136E-05
   1.20000005      -4.90370549E-05
   1.20249999      -4.83022850E-05
   1.20500004      -4.75863453E-05
   1.20749998      -4.68906583E-05
   1.21000004      -4.62170938E-05
   1.21249998      -4.55636218E-05
   1.21500003      -4.49300314E-05
   1.21749997      -4.43144490E-05
   1.22000003      -4.37172494E-05
   1.22249997      -4.31375374E-05
   1.22500002      -4.25782200E-05
   1.22749996      -4.20395299E-05
   1.23000002      -4.15195973E-05
   1.23249996      -4.10138564E-05
   1.23500001      -4.05221690E-05
   1.23749995      -4.00397475E-05
   1.24000001      -3.95677853E-05
   1.24249995      -3.91059148E-05
   1.24500000      -3.86552492E-05
   1.24749994      -3.82160142E-05
   1.25000000      -3.77856013E-05
   1.25250006      -3.73620642E-05
   1.25500000      -3.69447262E-05
   1.25750005      -3.65339620E-05
   1.25999999      -3.61311941E-05
   1.26250005      -3.57391909E-05
   1.26499999      -3.53576434E-05
   1.26750004      -3.49879083E-05
   1.26999998      -3.46293782E-05
   1.27250004      -3.42799685E-05
   1.27499998      -3.39392573E-05
   1.27750003      -3.36089361E-05
   1.27999997      -3.32910968E-05
   1.28250003      -3.29882751E-05
   1.28499997      -3.27006965E-05
   1.28750002      -3.24268294E-05
   1.28999996      -3.21656662E-05
   1.29250002      -3.19149294E-05
   1.29499996      -3.16739788E-05
   1.29750001      -3.14434146E-05
   1.29999995      -3.12240263E-05
   1.30250001      -3.10163268E-05
   1.30499995      -3.08213312E-05
   1.30750000      -3.06385191E-05
   1.30999994      -3.04679597E-05
   1.31250000      -3.03068900E-05
   1.31500006      -3.01547134E-05
   1.31750000      -3.00119518E-05
   1.32000005      -2.98774103E-05
   1.32249999      -2.97528077E-05
   1.32500005      -2.96389626E-05
   1.32749999      -2.95377104E-05
   1.33000004      -2.94487145E-05
   1.33249998      -2.93712983E-05
   1.33500004      -2.93037865E-05
   1.33749998      -2.92445657E-05
   1.34000003      -2.91939032E-05
   1.34249997      -2.91524302E-05
   1.34500003      -2.91212345E-05
   1.34749997      -2.91006454E-05
   1.35000002      -2.90910812E-05
   1.35249996      -2.90908574E-05
   1.35500002      -2.90975440E-05
   1.35749996      -2.91089418E-05
   1.36000001      -2.91251199E-05
   1.36249995      -2.91459655E-05
   1.36500001      -2.91724937E-05
   1.36749995      -2.92043660E-05
   1.37000000      -2.92416153E-05
   1.37249994      -2.92829009E-05
   1.37500000      -2.93263893E-05
   1.37750006      -2.93717840E-05
   1.38000000      -2.94187503E-05
   1.38250005      -2.94677320E-05
   1.38499999      -2.95191039E-05
   1.38750005      -2.95733189E-05
   1.38999999      -2.96302569E-05
   1.39250004      -2.96887301E-05
   1.39499998      -2.97492934E-05
   1.39750004      -2.98108662E-05
   1.39999998      -2.98741597E-05
   1.40250003      -2.99393942E-05
   1.40499997      -3.00071315E-05
   1.40750003      -3.00769989E-05
   1.40999997      -3.01485106E-05
   1.41250002      -3.02217049E-05
   1.41499996      -3.02957178E-05
   1.41750002      -3.03695833E-05
   1.41999996      -3.04432633E-05
   1.42250001      -3.05167923E-05
   1.42499995      -3.05902468E-05
   1.42750001      -3.06639267E-05
   1.42999995      -3.07373812E-05
   1.43250000      -3.08096023E-05
   1.43499994      -3.08802519E-05
   1.43750000      -3.09490351E-05
   1.44000006      -3.10169999E-05
   1.44250000      -3.10845862E-05
   1.44500005      -3.11520271E-05
   1.44749999      -3.12192060E-05
   1.45000005      -3.12842894E-05
   1.45249999      -3.13469100E-05
   1.45500004      -3.14066892E-05
   1.45749998      -3.14645986E-05
   1.46000004      -3.15219149E-05
   1.46249998      -3.15800498E-05
   1.46500003      -3.16398691E-05
   1.46749997      -3.17008053E-05
   1.47000003      -3.17610684E-05
   1.47249997      -3.18202547E-05
   1.47500002      -3.18778257E-05
   1.47749996      -3.19350293E-05
   1.48000002      -3.19931642E-05
   1.48249996      -3.20528707E-05
   1.48500001      -3.21142943E-05
   1.48749995      -3.21760890E-05
   1.49000001      -3.22366941E-05
   1.49249995      -3.22951637E-05
   1.49500000      -3.23513232E-05
   1.49749994      -3.24065441E-05
   1.50000000      -3.24631874E-05
   1.50250006      -3.25214714E-05
   1.50500000      -3.25822984E-05
   1.50750005      -3.26446170E-05
   1.50999999      -3.27058515E-05
   1.51250005      -3.27646958E-05
   1.51499999      -3.28208553E-05
   1.51750004      -3.28752139E-05
   1.51999998      -3.29299510E-05
   1.52250004      -3.29862196E-05
   1.52499998      -3.30451767E-05
   1.52750003      -3.31071606E-05
   1.52999997      -3.31700430E-05
   1.53250003      -3.32317250E-05
   1.53499997      -3.32899763E-05
   1.53750002      -3.33446733E-05
   1.53999996      -3.33968674E-05
   1.54250002      -3.34500364E-05
   1.54499996      -3.35058903E-05
   1.54750001      -3.35655604E-05
   1.54999995      -3.36280682E-05
   1.55250001      -3.36906487E-05
   1.55499995      -3.37509919E-05
   1.55750000      -3.38080426E-05
   1.55999994      -3.38631908E-05
   1.56250000      -3.39184080E-05
   1.56500006      -3.39748294E-05
   1.56750000      -3.40336337E-05
   1.57000005      -3.40938641E-05
   1.57249999      -3.41539817E-05
   1.57500005      -3.42132007E-05
   1.57749999      -3.42715248E-05
   1.58000004      -3.43309657E-05
   1.58249998      -3.43916799E-05
   1.58500004      -3.44544496E-05
   1.58749998      -3.45188600E-05
   1.59000003      -3.45838707E-05
   1.59249997      -3.46479101E-05
   1.59500003      -3.47100431E-05
   1.59749997      -3.47703135E-05
   1.60000002      -3.48307985E-05
   1.60249996      -3.48936446E-05
   1.60500002      -3.49602997E-05
   1.60749996      -3.50308728E-05
   1.61000001      -3.51035087E-05
   1.61249995      -3.51760646E-05
   1.61500001      -3.52461575E-05
   1.61749995      -3.53131109E-05
   1.62000000      -3.53774267E-05
   1.62249994      -3.54421973E-05
   1.62500000      -3.55104057E-05
   1.62750006      -3.55847696E-05
   1.63000000      -3.56646524E-05
   1.63250005      -3.57472964E-05
   1.63499999      -3.58291036E-05
   1.63750005      -3.59075821E-05
   1.63999999      -3.59826809E-05
   1.64250004      -3.60563208E-05
   1.64499998      -3.61317943E-05
   1.64750004      -3.62114151E-05
   1.64999998      -3.62956489E-05
   1.65250003      -3.63826075E-05
   1.65499997      -3.64694752E-05
   1.65750003      -3.65546221E-05
   1.65999997      -3.66375316E-05
   1.66250002      -3.67197099E-05
   1.66499996      -3.68031979E-05
   1.66750002      -3.68890942E-05
   1.66999996      -3.69769696E-05
   1.67250001      -3.70659291E-05
   1.67499995      -3.71548886E-05
   1.67750001      -3.72433606E-05
   1.67999995      -3.73314251E-05
   1.68250000      -3.74194315E-05
   1.68499994      -3.75074778E-05
   1.68750000      -3.75961172E-05
   1.69000006      -3.76850985E-05
   1.69250000      -3.77748984E-05
   1.69500005      -3.78664736E-05
   1.69749999      -3.79600642E-05
   1.70000005      -3.80556921E-05
   1.70249999      -3.81519785E-05
   1.70500004      -3.82478684E-05
   1.70749998      -3.83423394E-05
   1.71000004      -3.84360646E-05
   1.71249998      -3.85307576E-05
   1.71500003      -3.86282918E-05
   1.71749997      -3.87289074E-05
   1.72000003      -3.88324042E-05
   1.72249997      -3.89370180E-05
   1.72500002      -3.90410351E-05
   1.72749996      -3.91438552E-05
   1.73000002      -3.92459660E-05
   1.73249996      -3.93493283E-05
   1.73500001      -3.94546551E-05
   1.73749995      -3.95622010E-05
   1.74000001      -3.96706819E-05
   1.74249995      -3.97793301E-05
   1.74500000      -3.98875309E-05
   1.74749994      -3.99959245E-05
   1.75000000      -4.01057114E-05
   1.75250006      -4.02177211E-05
   1.75500000      -4.03320882E-05
   1.75750005      -4.04481762E-05
   1.75999999      -4.05648752E-05
   1.76250005      -4.06813342E-05
   1.76499999      -4.07977168E-05
   1.76750004      -4.09144377E-05
   1.76999998      -4.10323701E-05
   1.77250004      -4.11521214E-05
   1.77499998      -4.12734917E-05
   1.77750003      -4.13962043E-05
   1.77999997      -4.15201939E-05
   1.78250003      -4.16454131E-05
   1.78499997      -4.17714946E-05
   1.78750002      -4.18973868E-05
   1.78999996      -4.20219330E-05
   1.79250002      -4.21443510E-05
   1.79499996      -4.22652192E-05
   1.79750001      -4.23856000E-05
   1.79999995      -4.25074395E-05
   1.80250001      -4.26312581E-05
   1.80499995      -4.27560080E-05
   1.80750000      -4.28795502E-05
   1.80999994      -4.29997272E-05
   1.81250000      -4.31162007E-05
   1.81500006      -4.32312954E-05
   1.81750000      -4.33478854E-05
   1.82000005      -4.34685280E-05
   1.82249999      -4.35924230E-05
   1.82500005      -4.37166891E-05
   1.82749999      -4.38371462E-05
   1.83000004      -4.39510077E-05
   1.83249998      -4.40590811E-05
   1.83500004      -4.41649645E-05
   1.83749998      -4.42733508E-05
   1.84000003      -4.43870013E-05
   1.84249997      -4.45056321E-05
   1.84500003      -4.46256054E-05
   1.84749997      -4.47432212E-05
   1.85000002      -4.48562896E-05
   1.85249996      -4.49660402E-05
   1.85500002      -4.50756233E-05
   1.85749996      -4.51879641E-05
   1.86000001      -4.53039465E-05
   1.86249995      -4.54219153E-05
   1.86500001      -4.55389527E-05
   1.86749995      -4.56530943E-05
   1.87000000      -4.57637834E-05
   1.87249994      -4.58728537E-05
   1.87500000      -4.59824296E-05
   1.87750006      -4.60940173E-05
   1.88000000      -4.62078351E-05
   1.88250005      -4.63233300E-05
   1.88499999      -4.64392178E-05
   1.88750005      -4.65546109E-05
   1.88999999      -4.66691308E-05
   1.89250004      -4.67826540E-05
   1.89499998      -4.68951839E-05
   1.89750004      -4.70066952E-05
   1.89999998      -4.71178246E-05
   1.90250003      -4.72292850E-05
   1.90499997      -4.73416221E-05
   1.90750003      -4.74545886E-05
   1.90999997      -4.75670895E-05
   1.91250002      -4.76776913E-05
   1.91499996      -4.77855647E-05
   1.91750002      -4.78908914E-05
   1.91999996      -4.79952250E-05
   1.92250001      -4.81003772E-05
   1.92499995      -4.82068899E-05
   1.92750001      -4.83137919E-05
   1.92999995      -4.84187804E-05
   1.93250000      -4.85199562E-05
   1.93499994      -4.86168574E-05
   1.93750000      -4.87107318E-05
   1.94000006      -4.88039586E-05
   1.94250000      -4.88977930E-05
   1.94500005      -4.89916129E-05
   1.94749999      -4.90829589E-05
   1.95000005      -4.91694082E-05
   1.95249999      -4.92504732E-05
   1.95500004      -4.93283187E-05
   1.95749998      -4.94068117E-05
   1.96000004      -4.94893211E-05
   1.96249998      -4.95767563E-05
   1.96500003      -4.96670946E-05
   1.96749997      -4.97569745E-05
   1.97000003      -4.98438458E-05
   1.97249997      -4.99275084E-05
   1.97500002      -5.00100978E-05
   1.97749996      -5.00944589E-05
   1.98000002      -5.01822942E-05
   1.98249996      -5.02729854E-05
   1.98500001      -5.03647352E-05
   1.98749995      -5.04559175E-05
   1.99000001      -5.05468415E-05
   1.99249995      -5.06394645E-05
   1.99500000      -5.07360237E-05
   1.99749994      -5.08371559E-05
   2.00000000      -5.09412312E-05
   2.00250006      -5.10449390E-05
   2.00500011      -5.11454346E-05
   2.00749993      -5.12416445E-05
   2.00999999      -5.13347113E-05
   2.01250005      -5.14268831E-05
   2.01500010      -5.15196698E-05
   2.01749992      -5.16130058E-05
   2.01999998      -5.17053886E-05
   2.02250004      -5.17949957E-05
   2.02500010      -5.18810193E-05
   2.02749991      -5.19638706E-05
   2.02999997      -5.20445537E-05
   2.03250003      -5.21236871E-05
   2.03500009      -5.22008595E-05
   2.03749990      -5.22750997E-05
   2.03999996      -5.23459130E-05
   2.04250002      -5.24138995E-05
   2.04500008      -5.24805328E-05
   2.04749990      -5.25472824E-05
   2.04999995      -5.26147342E-05
   2.05250001      -5.26823205E-05
   2.05500007      -5.27490593E-05
   2.05749989      -5.28146047E-05
   2.05999994      -5.28797391E-05
   2.06250000      -5.29459103E-05
   2.06500006      -5.30142097E-05
   2.06750011      -5.30846773E-05
   2.06999993      -5.31562910E-05
   2.07249999      -5.32280828E-05
   2.07500005      -5.32999584E-05
   2.07750010      -5.33729581E-05
   2.07999992      -5.34483515E-05
   2.08249998      -5.35262443E-05
   2.08500004      -5.36047519E-05
   2.08750010      -5.36807092E-05
   2.08999991      -5.37512169E-05
   2.09249997      -5.38153618E-05
   2.09500003      -5.38748245E-05
   2.09750009      -5.39325301E-05
   2.09999990      -5.39906723E-05
   2.10249996      -5.40490510E-05
   2.10500002      -5.41050249E-05
   2.10750008      -5.41553491E-05
   2.10999990      -5.41982008E-05
   2.11249995      -5.42342787E-05
   2.11500001      -5.42661692E-05
   2.11750007      -5.42963608E-05
   2.11999989      -5.43255919E-05
   2.12249994      -5.43523674E-05
   2.12500000      -5.43743954E-05
   2.12750006      -5.43906244E-05
   2.13000011      -5.44026880E-05
   2.13249993      -5.44143004E-05
   2.13499999      -5.44293325E-05
   2.13750005      -5.44499562E-05
   2.14000010      -5.44756149E-05