 -0.159999996       0.00000000    
 -0.157499999       0.00000000    
 -0.155000001       0.00000000    
 -0.152500004       0.00000000    
 -0.150000006       0.00000000    
 -0.147499993       0.00000000    
 -0.144999996       0.00000000    
 -0.142499998       0.00000000    
 -0.140000001       0.00000000    
 -0.137500003       0.00000000    
 -0.135000005       6.98351442E-27
 -0.132499993      -1.06855376E-25
 -0.129999995       1.08530211E-24
 -0.127499998      -1.21627442E-24
 -0.125000000      -1.40477400E-23
 -0.122500002       2.82248216E-23
 -0.119999997       1.08997618E-22
 -0.117500000      -2.26906840E-22
 -0.115000002      -6.54144061E-22
 -0.112499997       1.10573560E-21
 -0.109999999       3.17309492E-21
 -0.107500002      -3.67169964E-21
 -0.104999997      -1.24499342E-20
 -0.102499999       8.44555687E-21
 -0.100000001       3.99807151E-20
  -9.74999964E-02  -1.21455850E-20
  -9.49999988E-02  -1.08835514E-19
  -9.25000012E-02   1.05524871E-21
  -9.00000036E-02   2.65157476E-19
  -8.74999985E-02   7.20032030E-20
  -8.50000009E-02  -5.99710390E-19
  -8.25000033E-02  -3.80984656E-19
  -7.99999982E-02   1.20476499E-18
  -7.75000006E-02   1.42989408E-18
  -7.50000030E-02  -1.80304673E-18
  -7.24999979E-02  -4.06075081E-18
  -7.00000003E-02   8.84261141E-19
  -6.75000027E-02   8.32024003E-18
  -6.49999976E-02   4.58641913E-18
  -6.25000000E-02  -1.07924471E-17
  -5.99999987E-02  -1.61536479E-17
  -5.75000010E-02   3.67913145E-18
  -5.49999997E-02   2.72323160E-17
  -5.24999984E-02   1.79170232E-17
  -5.00000007E-02  -2.17200787E-17
  -4.74999994E-02  -4.23764462E-17
  -4.50000018E-02  -1.00774603E-17
  -4.25000004E-02   4.21523663E-17
  -3.99999991E-02   4.90471252E-17
  -3.75000015E-02  -4.25811734E-18
  -3.50000001E-02  -5.73638505E-17
  -3.24999988E-02  -4.33905631E-17
  -2.99999993E-02   2.65699396E-17
  -2.74999999E-02   6.54597782E-17
  -2.50000004E-02   1.21609381E-17
  -2.25000009E-02  -7.36717692E-17
  -1.99999996E-02  -5.96788379E-17
  -1.75000001E-02   7.89381039E-17
  -1.49999997E-02   1.67688688E-16
  -1.25000002E-02   1.97230067E-17
  -9.99999978E-03  -2.68147708E-16
  -7.49999983E-03  -3.29089611E-16
  -4.99999989E-03   5.09824499E-17
  -2.49999994E-03   5.74287968E-16
   0.00000000       6.34700369E-16
   2.49999994E-03  -4.98994124E-17
   4.99999989E-03  -1.01541526E-15
   7.49999983E-03  -1.30202898E-15
   9.99999978E-03  -2.77076203E-16
   1.25000002E-02   1.55964420E-15
   1.49999997E-02   2.59644355E-15
   1.75000001E-02   1.36153103E-15
   1.99999996E-02  -1.79742975E-15
   2.25000009E-02  -4.38286229E-15
   2.50000004E-02  -3.67619202E-15
   2.74999999E-02   5.66817243E-16
   2.99999993E-02   5.39966309E-15
   3.24999988E-02   6.93468415E-15
   3.50000001E-02   3.52518955E-15
   3.75000015E-02  -2.98860710E-15
   3.99999991E-02  -8.69042336E-15
   4.25000004E-02  -9.99368350E-15
   4.50000018E-02  -5.31161571E-15
   4.74999994E-02   4.23065174E-15
   5.00000007E-02   1.45865951E-14
   5.24999984E-02   1.94108984E-14
   5.49999997E-02   1.25486906E-14
   5.75000010E-02  -7.42123089E-15
   5.99999987E-02  -3.27979323E-14
   6.25000000E-02  -4.70119786E-14
   6.49999976E-02  -3.30903348E-14
   6.75000027E-02   1.22098173E-14
   7.00000003E-02   6.90335714E-14
   7.24999979E-02   1.01377884E-13
   7.50000030E-02   8.09194562E-14
   7.75000006E-02   1.16398988E-14
   7.99999982E-02  -6.74876415E-14
   8.25000033E-02  -1.10330649E-13
   8.50000009E-02  -1.03010150E-13
   8.74999985E-02  -7.90826416E-14
   9.00000036E-02  -8.91031701E-14
   9.25000012E-02  -1.43367956E-13
   9.49999988E-02  -1.79113939E-13
   9.74999964E-02  -9.38504374E-14
  0.100000001       1.66515998E-13
  0.102499999       5.32080944E-13
  0.104999997       8.19373920E-13
  0.107500002       8.40118936E-13
  0.109999999       5.34696799E-13
  0.112499997       2.14531355E-14
  0.115000002      -4.88823825E-13
  0.117500000      -8.50765855E-13
  0.119999997      -1.08102958E-12
  0.122500002      -1.30331596E-12
  0.125000000      -1.58288150E-12
  0.127499998      -1.79808696E-12
  0.129999995      -1.67608353E-12
  0.132499993      -9.80687645E-13
  0.135000005       2.96595159E-13
  0.137500003       1.90096073E-12
  0.140000001       3.46123347E-12
  0.142499998       4.69126647E-12
  0.144999996       5.48104140E-12
  0.147499993       5.82759795E-12
  0.150000006       5.70934185E-12
  0.152500004       5.04874224E-12
  0.155000001       3.79779021E-12
  0.157499999       2.03724147E-12
  0.159999996      -3.57963171E-14
  0.162499994      -2.21471626E-12
  0.165000007      -4.31661651E-12
  0.167500004      -6.00980854E-12
  0.170000002      -6.54755547E-12
  0.172499999      -4.74606205E-12
  0.174999997       5.36764426E-13
  0.177499995       9.60227644E-12
  0.180000007       2.14417789E-11
  0.182500005       3.42568231E-11
  0.185000002       4.69824804E-11
  0.187500000       6.08749648E-11
  0.189999998       7.97768449E-11
  0.192499995       1.08260831E-10
  0.194999993       1.48323631E-10
  0.197500005       1.96664920E-10
  0.200000003       2.44697762E-10
  0.202500001       2.81902501E-10
  0.204999998       3.00800190E-10
  0.207499996       3.00287101E-10
  0.209999993       2.84546359E-10
  0.212500006       2.57223381E-10
  0.215000004       2.13486701E-10
  0.217500001       1.34069741E-10
  0.219999999      -1.55229458E-11
  0.222499996      -2.80771739E-10
  0.224999994      -7.12030157E-10
  0.227500007      -1.36122225E-09
  0.230000004      -2.28521779E-09
  0.232500002      -3.55595997E-09
  0.234999999      -5.27565946E-09
  0.237499997      -7.59267049E-09
  0.239999995      -1.07149614E-08
  0.242500007      -1.49205803E-08
  0.245000005      -2.05668211E-08
  0.247500002      -2.81015868E-08
  0.250000000      -3.80824829E-08
  0.252499998      -5.12067757E-08
  0.254999995      -6.83541472E-08
  0.257499993      -9.06380606E-08
  0.259999990      -1.19468055E-07
  0.262499988      -1.56610312E-07
  0.264999986      -2.04256381E-07
  0.267500013      -2.65099231E-07
  0.270000011      -3.42421231E-07
  0.272500008      -4.40211664E-07
  0.275000006      -5.63299182E-07
  0.277500004      -7.17498892E-07
  0.280000001      -9.09771472E-07
  0.282499999      -1.14835677E-06
  0.284999996      -1.44294836E-06
  0.287499994      -1.80486245E-06
  0.289999992      -2.24721771E-06
  0.292499989      -2.78515608E-06
  0.294999987      -3.43605984E-06
  0.297500014      -4.21973982E-06
  0.300000012      -5.15863985E-06
  0.302500010      -6.27790405E-06
  0.305000007      -7.60550120E-06
  0.307500005      -9.17227317E-06
  0.310000002      -1.10119954E-05
  0.312500000      -1.31614152E-05
  0.314999998      -1.56602273E-05
  0.317499995      -1.85510289E-05
  0.319999993      -2.18791938E-05
  0.322499990      -2.56924704E-05
  0.324999988      -3.00408519E-05
  0.327499986      -3.49758411E-05
  0.330000013      -4.05504143E-05
  0.332500011      -4.68180115E-05
  0.335000008      -5.38324930E-05
  0.337500006      -6.16472971E-05
  0.340000004      -7.03149926E-05
  0.342500001      -7.98864421E-05
  0.344999999      -9.04101908E-05
  0.347499996      -1.01931881E-04
  0.349999994      -1.14493072E-04
  0.352499992      -1.28131229E-04
  0.354999989      -1.42878751E-04
  0.357499987      -1.58762094E-04
  0.360000014      -1.75802605E-04
  0.362500012      -1.94014749E-04
  0.365000010      -2.13407009E-04
  0.367500007      -2.33981787E-04
  0.370000005      -2.55734456E-04
  0.372500002      -2.78654770E-04
  0.375000000      -3.02724191E-04
  0.377499998      -3.27920774E-04
  0.379999995      -3.54213407E-04
  0.382499993      -3.81568505E-04
  0.384999990      -4.09946690E-04
  0.387499988      -4.39305470E-04
  0.389999986      -4.69597959E-04
  0.392500013      -5.00774302E-04
  0.395000011      -5.32783102E-04
  0.397500008      -5.65568742E-04
  0.400000006      -5.99075283E-04
  0.402500004      -6.33243588E-04
  0.405000001      -6.68013294E-04
  0.407499999      -7.03322527E-04
  0.409999996      -7.39107898E-04
  0.412499994      -7.75304565E-04
  0.414999992      -8.11846461E-04
  0.417499989      -8.48661817E-04
  0.419999987      -8.85678048E-04
  0.422500014      -9.22812673E-04
  0.425000012      -9.59984318E-04
  0.427500010      -9.97105846E-04
  0.430000007      -1.03407714E-03
  0.432500005      -1.07079803E-03
  0.435000002      -1.10715965E-03
  0.437500000      -1.14303781E-03
  0.439999998      -1.17830967E-03
  0.442499995      -1.21283671E-03
  0.444999993      -1.24647829E-03
  0.447499990      -1.27908878E-03
  0.449999988      -1.31050486E-03
  0.452499986      -1.34056096E-03
  0.455000013      -1.36908959E-03
  0.457500011      -1.39592297E-03
  0.460000008      -1.42089126E-03
  0.462500006      -1.44382985E-03
  0.465000004      -1.46457471E-03
  0.467500001      -1.48296834E-03
  0.469999999      -1.49886135E-03
  0.472499996      -1.51212420E-03
  0.474999994      -1.52264000E-03
  0.477499992      -1.53031503E-03
  0.479999989      -1.53507420E-03
  0.482499987      -1.53685559E-03
  0.485000014      -1.53562776E-03
  0.487500012      -1.53138454E-03
  0.490000010      -1.52415002E-03
  0.492500007      -1.51398114E-03
  0.495000005      -1.50095939E-03
  0.497500002      -1.48518826E-03
  0.500000000      -1.46679406E-03
  0.502499998      -1.44592579E-03
  0.504999995      -1.42275728E-03
  0.507499993      -1.39748247E-03
  0.509999990      -1.37031532E-03
  0.512499988      -1.34148565E-03
  0.514999986      -1.31122745E-03
  0.517499983      -1.27977587E-03
  0.519999981      -1.24736526E-03
  0.522499979      -1.21422799E-03
  0.524999976      -1.18059374E-03
  0.527499974      -1.14668673E-03
  0.529999971      -1.11272279E-03
  0.532500029      -1.07890274E-03
  0.535000026      -1.04540924E-03
  0.537500024      -1.01240340E-03
  0.540000021      -9.80028533E-04
  0.542500019      -9.48404951E-04
  0.545000017      -9.17638710E-04
  0.547500014      -8.87809845E-04
  0.550000012      -8.58986401E-04
  0.552500010      -8.31219833E-04
  0.555000007      -8.04537733E-04
  0.557500005      -7.78963382E-04
  0.560000002      -7.54494919E-04
  0.562500000      -7.31121632E-04
  0.564999998      -7.08820822E-04
  0.567499995      -6.87563093E-04
  0.569999993      -6.67312124E-04
  0.572499990      -6.48031884E-04
  0.574999988      -6.29685528E-04
  0.577499986      -6.12233358E-04
  0.579999983      -5.95638528E-04
  0.582499981      -5.79861458E-04
  0.584999979      -5.64856746E-04
  0.587499976      -5.50586148E-04
  0.589999974      -5.37013751E-04
  0.592499971      -5.24108415E-04
  0.595000029      -5.11848833E-04
  0.597500026      -5.00212074E-04
  0.600000024      -4.89180326E-04
  0.602500021      -4.78735601E-04
  0.605000019      -4.68857557E-04
  0.607500017      -4.59536706E-04
  0.610000014      -4.50759864E-04
  0.612500012      -4.42516233E-04
  0.615000010      -4.34796268E-04
  0.617500007      -4.27586812E-04
  0.620000005      -4.20879544E-04
  0.622500002      -4.14661248E-04
  0.625000000      -4.08915192E-04
  0.627499998      -4.03628277E-04
  0.629999995      -3.98786127E-04
  0.632499993      -3.94375558E-04
  0.634999990      -3.90383473E-04
  0.637499988      -3.86796688E-04
  0.639999986      -3.83594888E-04
  0.642499983      -3.80754151E-04
  0.644999981      -3.78256547E-04
  0.647499979      -3.76065029E-04
  0.649999976      -3.74154450E-04
  0.652499974      -3.72500945E-04
  0.654999971      -3.71085363E-04
  0.657500029      -3.69883783E-04
  0.660000026      -3.68874724E-04
  0.662500024      -3.68037814E-04
  0.665000021      -3.67346744E-04
  0.667500019      -3.66771652E-04
  0.670000017      -3.66283843E-04
  0.672500014      -3.65854648E-04
  0.675000012      -3.65455315E-04
  0.677500010      -3.65064334E-04
  0.680000007      -3.64670996E-04
  0.682500005      -3.64262116E-04
  0.685000002      -3.63832864E-04
  0.687500000      -3.63374973E-04
  0.689999998      -3.62874009E-04
  0.692499995      -3.62318067E-04
  0.694999993      -3.61696351E-04
  0.697499990      -3.60995735E-04
  0.699999988      -3.60218575E-04
  0.702499986      -3.59368540E-04
  0.704999983      -3.58453894E-04
  0.707499981      -3.57486657E-04
  0.709999979      -3.56466830E-04
  0.712499976      -3.55391996E-04
  0.714999974      -3.54262127E-04
  0.717499971      -3.53084470E-04
  0.720000029      -3.51864990E-04
  0.722500026      -3.50623945E-04
  0.725000024      -3.49367358E-04
  0.727500021      -3.48100060E-04
  0.730000019      -3.46823130E-04
  0.732500017      -3.45542649E-04
  0.735000014      -3.44255008E-04
  0.737500012      -3.42966145E-04
  0.740000010      -3.41677311E-04
  0.742500007      -3.40400409E-04
  0.745000005      -3.39136663E-04
  0.747500002      -3.37898033E-04
  0.750000000      -3.36677331E-04
  0.752499998      -3.35476943E-04
  0.754999995      -3.34287324E-04
  0.757499993      -3.33097705E-04
  0.759999990      -3.31906893E-04
  0.762499988      -3.30722047E-04
  0.764999986      -3.29561124E-04
  0.767499983      -3.28431313E-04
  0.769999981      -3.27345682E-04
  0.772499979      -3.26297159E-04
  0.774999976      -3.25272529E-04
  0.777499974      -3.24256252E-04
  0.779999971      -3.23242391E-04
  0.782500029      -3.22239299E-04
  0.785000026      -3.21273255E-04
  0.787500024      -3.20361025E-04
  0.790000021      -3.19513347E-04
  0.792500019      -3.18723061E-04
  0.795000017      -3.17974627E-04
  0.797500014      -3.17248894E-04
  0.800000012      -3.16536316E-04
  0.802500010      -3.15842248E-04
  0.805000007      -3.15178739E-04
  0.807500005      -3.14565987E-04
  0.810000002      -3.14008241E-04
  0.812500000      -3.13501892E-04
  0.814999998      -3.13031429E-04
  0.817499995      -3.12582473E-04
  0.819999993      -3.12145479E-04
  0.822499990      -3.11721669E-04
  0.824999988      -3.11319338E-04
  0.827499986      -3.10948701E-04
  0.829999983      -3.10611533E-04
  0.832499981      -3.10309668E-04
  0.834999979      -3.10036470E-04
  0.837499976      -3.09783616E-04
  0.839999974      -3.09542665E-04
  0.842499971      -3.09311319E-04
  0.845000029      -3.09088966E-04
  0.847500026      -3.08886898E-04
  0.850000024      -3.08718299E-04
  0.852500021      -3.08588002E-04
  0.855000019      -3.08495946E-04
  0.857500017      -3.08427785E-04
  0.860000014      -3.08369781E-04
  0.862500012      -3.08311806E-04
  0.865000010      -3.08253249E-04
  0.867500007      -3.08208400E-04
  0.870000005      -3.08189250E-04
  0.872500002      -3.08207789E-04
  0.875000000      -3.08258022E-04
  0.877499998      -3.08325572E-04
  0.879999995      -3.08391318E-04
  0.882499993      -3.08442744E-04
  0.884999990      -3.08483402E-04
  0.887499988      -3.08524643E-04
  0.889999986      -3.08582035E-04
  0.892499983      -3.08663934E-04
  0.894999981      -3.08766146E-04
  0.897499979      -3.08873743E-04
  0.899999976      -3.08968796E-04
  0.902499974      -3.09050694E-04
  0.904999971      -3.09120631E-04
  0.907500029      -3.09192954E-04
  0.910000026      -3.09279043E-04
  0.912500024      -3.09380674E-04
  0.915000021      -3.09491850E-04
  0.917500019      -3.09604860E-04
  0.920000017      -3.09714844E-04
  0.922500014      -3.09821247E-04
  0.925000012      -3.09929455E-04
  0.927500010      -3.10041243E-04
  0.930000007      -3.10158415E-04
  0.932500005      -3.10279778E-04
  0.935000002      -3.10404692E-04
  0.937500000      -3.10532632E-04
  0.939999998      -3.10664735E-04
  0.942499995      -3.10804026E-04
  0.944999993      -3.10942705E-04
  0.947499990      -3.11076030E-04
  0.949999988      -3.11199168E-04
  0.952499986      -3.11312731E-04
  0.954999983      -3.11417971E-04
  0.957499981      -3.11524374E-04
  0.959999979      -3.11636162E-04
  0.962499976      -3.11750948E-04
  0.964999974      -3.11861542E-04
  0.967499971      -3.11960786E-04
  0.970000029      -3.12042073E-04
  0.972500026      -3.12112621E-04
  0.975000024      -3.12181946E-04
  0.977500021      -3.12260265E-04
  0.980000019      -3.12352931E-04
  0.982500017      -3.12458142E-04
  0.985000014      -3.12563934E-04
  0.987500012      -3.12666787E-04
  0.990000010      -3.12763004E-04
  0.992500007      -3.12853896E-04
  0.995000005      -3.12948338E-04
  0.997500002      -3.13049357E-04
   1.00000000      -3.13159340E-04
   1.00250006      -3.13277123E-04
   1.00500000      -3.13394878E-04
   1.00750005      -3.13510856E-04
   1.00999999      -3.13624449E-04
   1.01250005      -3.13734432E-04
   1.01499999      -3.13839060E-04
   1.01750004      -3.13940080E-04
   1.01999998      -3.14038713E-04
   1.02250004      -3.14137345E-04
   1.02499998      -3.14238394E-04
   1.02750003      -3.14346573E-04
   1.02999997      -3.14459554E-04
   1.03250003      -3.14567180E-04
   1.03499997      -3.14664008E-04
   1.03750002      -3.14748875E-04
   1.03999996      -3.14827194E-04
   1.04250002      -3.14910314E-04
   1.04499996      -3.15007142E-04
   1.04750001      -3.15117766E-04
   1.04999995      -3.15232523E-04
   1.05250001      -3.15338926E-04
   1.05499995      -3.15424986E-04
   1.05750000      -3.15491372E-04
   1.05999994      -3.15551151E-04
   1.06250000      -3.15621670E-04
   1.06500006      -3.15712532E-04
   1.06750000      -3.15818354E-04
   1.07000005      -3.15922400E-04
   1.07249999      -3.16006073E-04
   1.07500005      -3.16058664E-04
   1.07749999      -3.16084974E-04
   1.08000004      -3.16101126E-04
   1.08249998      -3.16126214E-04
   1.08500004      -3.16171063E-04
   1.08749998      -3.16227844E-04
   1.09000003      -3.16283462E-04
   1.09249997      -3.16324091E-04
   1.09500003      -3.16341437E-04
   1.09749997      -3.16342630E-04
   1.10000002      -3.16343241E-04
   1.10249996      -3.16353398E-04
   1.10500002      -3.16381484E-04
   1.10749996      -3.16425110E-04
   1.11000001      -3.16476537E-04
   1.11249995      -3.16527323E-04
   1.11500001      -3.16578167E-04
   1.11749995      -3.16626567E-04
   1.12000000      -3.16675607E-04
   1.12249994      -3.16730002E-04
   1.12500000      -3.16790974E-04
   1.12750006      -3.16859718E-04
   1.13000000      -3.16938938E-04
   1.13250005      -3.17026512E-04
   1.13499999      -3.17120954E-04
   1.13750005      -3.17213009E-04
   1.13999999      -3.17300291E-04
   1.14250004      -3.17380996E-04
   1.14499998      -3.17462313E-04
   1.14750004      -3.17552593E-04
   1.14999998      -3.17651808E-04
   1.15250003      -3.17761209E-04
   1.15499997      -3.17866419E-04
   1.15750003      -3.17957281E-04
   1.15999997      -3.18031118E-04
   1.16250002      -3.18097154E-04
   1.16499996      -3.18168313E-04
   1.16750002      -3.18258593E-04
   1.16999996      -3.18370352E-04
   1.17250001      -3.18490522E-04
   1.17499995      -3.18601116E-04
   1.17750001      -3.18692852E-04
   1.17999995      -3.18765524E-04
   1.18250000      -3.18835751E-04
   1.18499994      -3.18924227E-04
   1.18750000      -3.19041079E-04
   1.19000006      -3.19180050E-04
   1.19250000      -3.19327140E-04
   1.19500005      -3.19466402E-04
   1.19749999      -3.19587474E-04
   1.20000005      -3.19695071E-04
   1.20249999      -3.19802668E-04
   1.20500004      -3.19919549E-04
   1.20749998      -3.20048392E-04
   1.21000004      -3.20184976E-04
   1.21249998      -3.20318271E-04
   1.21500003      -3.20440537E-04
   1.21749997      -3.20552324E-04
   1.22000003      -3.20656924E-04
   1.22249997      -3.20757943E-04
   1.22500002      -3.20854801E-04
   1.22749996      -3.20943567E-04
   1.23000002      -3.21022206E-04
   1.23249996      -3.21090047E-04
   1.23500001      -3.21150437E-04
   1.23749995      -3.21207830E-04
   1.24000001      -3.21262807E-04
   1.24249995      -3.21313302E-04
   1.24500000      -3.21356667E-04
   1.24749994      -3.21392232E-04
   1.25000000      -3.21423315E-04
   1.25250006      -3.21453495E-04
   1.25500000      -3.21483094E-04
   1.25750005      -3.21510597E-04
   1.25999999      -3.21531814E-04
   1.26250005      -3.21544649E-04
   1.26499999      -3.21553613E-04
   1.26750004      -3.21566797E-04
   1.26999998      -3.21591593E-04
   1.27250004      -3.21627158E-04
   1.27499998      -3.21668398E-04
   1.27750003      -3.21702479E-04
   1.27999997      -3.21723404E-04
   1.28250003      -3.21735366E-04
   1.28499997      -3.21750005E-04
   1.28750002      -3.21780477E-04
   1.28999996      -3.21832777E-04
   1.29250002      -3.21902422E-04
   1.29499996      -3.21975385E-04
   1.29750001      -3.22039326E-04
   1.29999995      -3.22091044E-04
   1.30250001      -3.22136184E-04
   1.30499995      -3.22186708E-04
   1.30750000      -3.22250678E-04
   1.30999994      -3.22326290E-04
   1.31250000      -3.22407868E-04
   1.31500006      -3.22487089E-04
   1.31750000      -3.22561827E-04
   1.32000005      -3.22637119E-04
   1.32249999      -3.22717271E-04
   1.32500005      -3.22804524E-04
   1.32749999      -3.22891196E-04
   1.33000004      -3.22969514E-04
   1.33249998      -3.23034066E-04
   1.33500004      -3.23087297E-04
   1.33749998      -3.23139306E-04
   1.34000003      -3.23202345E-04
   1.34249997      -3.23278568E-04
   1.34500003      -3.23364366E-04
   1.34749997      -3.23447166E-04
   1.35000002      -3.23515909E-04
   1.35249996      -3.23567598E-04
   1.35500002      -3.23608547E-04
   1.35749996      -3.23647721E-04
   1.36000001      -3.23691667E-04
   1.36249995      -3.23742192E-04
   1.36500001      -3.23796266E-04
   1.36749995      -3.23852466E-04
   1.37000000      -3.23909568E-04
   1.37249994      -3.23968736E-04
   1.37500000      -3.24031222E-04
   1.37750006      -3.24092776E-04
   1.38000000      -3.24149878E-04
   1.38250005      -3.24201275E-04
   1.38499999      -3.24249704E-04
   1.38750005      -3.24299908E-04
   1.38999999      -3.24360299E-04
   1.39250004      -3.24434397E-04
   1.39499998      -3.24520515E-04
   1.39750004      -3.24612542E-04
   1.39999998      -3.24704335E-04
   1.40250003      -3.24793713E-04
   1.40499997      -3.24881548E-04
   1.40750003      -3.24972440E-04
   1.40999997      -3.25067784E-04
   1.41250002      -3.25166126E-04
   1.41499996      -3.25263565E-04
   1.41750002      -3.25359812E-04
   1.41999996      -3.25461442E-04
   1.42250001      -3.25575005E-04
   1.42499995      -3.25703237E-04
   1.42750001      -3.25841946E-04
   1.42999995      -3.25980334E-04
   1.43250000      -3.26106470E-04
   1.43499994      -3.26216454E-04
   1.43750000      -3.26316600E-04
   1.44000006      -3.26422713E-04
   1.44250000      -3.26546433E-04
   1.44500005      -3.26689304E-04
   1.44749999      -3.26844136E-04
   1.45000005      -3.26994486E-04
   1.45249999      -3.27129615E-04
   1.45500004      -3.27248272E-04
   1.45749998      -3.27359157E-04
   1.46000004      -3.27475718E-04
   1.46249998      -3.27606336E-04
   1.46500003      -3.27748916E-04
   1.46749997      -3.27895686E-04
   1.47000003      -3.28037335E-04
   1.47249997      -3.28169146E-04
   1.47500002      -3.28294700E-04
   1.47749996      -3.28422029E-04
   1.48000002      -3.28558002E-04
   1.48249996      -3.28704191E-04
   1.48500001      -3.28856026E-04
   1.48749995      -3.29008762E-04
   1.49000001      -3.29159113E-04
   1.49249995      -3.29305592E-04
   1.49500000      -3.29452334E-04
   1.49749994      -3.29603587E-04
   1.50000000      -3.29762901E-04
   1.50250006      -3.29932664E-04
   1.50500000      -3.30112001E-04
   1.50750005      -3.30299721E-04
   1.50999999      -3.30489507E-04
   1.51250005      -3.30675452E-04
   1.51499999      -3.30851180E-04
   1.51750004      -3.31017363E-04
   1.51999998      -3.31181771E-04
   1.52250004      -3.31354822E-04
   1.52499998      -3.31546122E-04
   1.52750003      -3.31756542E-04
   1.52999997      -3.31975025E-04
   1.53250003      -3.32186668E-04
   1.53499997      -3.32377647E-04
   1.53750002      -3.32546537E-04
   1.53999996      -3.32704367E-04
   1.54250002      -3.32872034E-04
   1.54499996      -3.33058852E-04
   1.54750001      -3.33266275E-04
   1.54999995      -3.33480886E-04
   1.55250001      -3.33685050E-04
   1.55499995      -3.33869772E-04
   1.55750000      -3.34037148E-04
   1.55999994      -3.34200333E-04
   1.56250000      -3.34372220E-04
   1.56500006      -3.34559940E-04
   1.56750000      -3.34755983E-04
   1.57000005      -3.34951765E-04
   1.57249999      -3.35137709E-04
   1.57500005      -3.35312536E-04
   1.57749999      -3.35484714E-04
   1.58000004      -3.35663470E-04
   1.58249998      -3.35856836E-04
   1.58500004      -3.36061290E-04
   1.58749998      -3.36269033E-04
   1.59000003      -3.36471683E-04
   1.59249997      -3.36664147E-04
   1.59500003      -3.36846191E-04
   1.59749997      -3.37024336E-04
   1.60000002      -3.37202800E-04
   1.60249996      -3.37386911E-04
   1.60500002      -3.37579113E-04
   1.60749996      -3.37777892E-04
   1.61000001      -3.37982317E-04
   1.61249995      -3.38186161E-04
   1.61500001      -3.38379847E-04
   1.61749995      -3.38555896E-04
   1.62000000      -3.38713435E-04
   1.62249994      -3.38857790E-04
   1.62500000      -3.39002174E-04
   1.62750006      -3.39156977E-04
   1.63000000      -3.39327671E-04
   1.63250005      -3.39506398E-04
   1.63499999      -3.39677063E-04
   1.63750005      -3.39825929E-04
   1.63999999      -3.39947874E-04
   1.64250004      -3.40053084E-04
   1.64499998      -3.40157683E-04
   1.64750004      -3.40276369E-04
   1.64999998      -3.40413855E-04
   1.65250003      -3.40561819E-04
   1.65499997      -3.40709172E-04
   1.65750003      -3.40844563E-04
   1.65999997      -3.40969505E-04
   1.66250002      -3.41092353E-04
   1.66499996      -3.41223844E-04
   1.66750002      -3.41369130E-04
   1.66999996      -3.41526058E-04
   1.67250001      -3.41684470E-04
   1.67499995      -3.41838982E-04
   1.67750001      -3.41989653E-04
   1.67999995      -3.42141488E-04
   1.68250000      -3.42302606E-04
   1.68499994      -3.42474144E-04
   1.68750000      -3.42651998E-04
   1.69000006      -3.42830434E-04
   1.69250000      -3.43001419E-04
   1.69500005      -3.43166117E-04
   1.69749999      -3.43326625E-04
   1.70000005      -3.43486521E-04
   1.70249999      -3.43646127E-04
   1.70500004      -3.43803054E-04
   1.70749998      -3.43954889E-04
   1.71000004      -3.44101951E-04
   1.71249998      -3.44248139E-04
   1.71500003      -3.44394590E-04
   1.71749997      -3.44539556E-04
   1.72000003      -3.44677333E-04
   1.72249997      -3.44800181E-04
   1.72500002      -3.44905420E-04
   1.72749996      -3.44999251E-04
   1.73000002      -3.45092529E-04
   1.73249996      -3.45197419E-04
   1.73500001      -3.45316686E-04
   1.73749995      -3.45443434E-04
   1.74000001      -3.45565670E-04
   1.74249995      -3.45673267E-04
   1.74500000      -3.45766835E-04
   1.74749994      -3.45853798E-04
   1.75000000      -3.45945882E-04
   1.75250006      -3.46048997E-04
   1.75500000      -3.46162298E-04
   1.75750005      -3.46277957E-04
   1.75999999      -3.46389279E-04
   1.76250005      -3.46494955E-04
   1.76499999      -3.46597604E-04
   1.76750004      -3.46701505E-04
   1.76999998      -3.46806832E-04
   1.77250004      -3.46910732E-04
   1.77499998      -3.47008317E-04
   1.77750003      -3.47097841E-04
   1.77999997      -3.47182271E-04
   1.78250003      -3.47269088E-04
   1.78499997      -3.47361754E-04
   1.78750002      -3.47458903E-04
   1.78999996      -3.47554567E-04
   1.79250002      -3.47641821E-04
   1.79499996      -3.47721012E-04
   1.79750001      -3.47796798E-04
   1.79999995      -3.47877358E-04
   1.80250001      -3.47965397E-04
   1.80499995      -3.48057598E-04
   1.80750000      -3.48144880E-04
   1.80999994      -3.48221103E-04
   1.81250000      -3.48286994E-04
   1.81500006      -3.48353788E-04
   1.81750000      -3.48431378E-04
   1.82000005      -3.48524918E-04
   1.82249999      -3.48629081E-04
   1.82500005      -3.48730711E-04
   1.82749999      -3.48817848E-04
   1.83000004      -3.48887494E-04
   1.83249998      -3.48948757E-04
   1.83500004      -3.49013484E-04
   1.83749998      -3.49092705E-04
   1.84000003      -3.49184149E-04
   1.84249997      -3.49277398E-04
   1.84500003      -3.49362002E-04
   1.84749997      -3.49431648E-04
   1.85000002      -3.49489768E-04
   1.85249996      -3.49544018E-04
   1.85500002      -3.49601876E-04
   1.85749996      -3.49664188E-04
   1.86000001      -3.49727838E-04
   1.86249995      -3.49789567E-04
   1.86500001      -3.49847716E-04
   1.86749995      -3.49904789E-04
   1.87000000      -3.49962764E-04
   1.87249994      -3.50020622E-04
   1.87500000      -3.50074552E-04
   1.87750006      -3.50120594E-04
   1.88000000      -3.50163318E-04
   1.88250005      -3.50210699E-04
   1.88499999      -3.50269605E-04
   1.88750005      -3.50342074E-04
   1.88999999      -3.50419345E-04
   1.89250004      -3.50488990E-04
   1.89499998      -3.50540999E-04
   1.89750004      -3.50576127E-04
   1.89999998      -3.50607210E-04
   1.90250003      -3.50648450E-04
   1.90499997      -3.50708520E-04
   1.90750003      -3.50781629E-04
   1.90999997      -3.50852759E-04
   1.91250002      -3.50907590E-04
   1.91499996      -3.50941671E-04
   1.91750002      -3.50963499E-04
   1.91999996      -3.50988441E-04
   1.92250001      -3.51028342E-04
   1.92499995      -3.51080234E-04
   1.92750001      -3.51131923E-04
   1.92999995      -3.51170340E-04
   1.93250000      -3.51191120E-04
   1.93499994      -3.51202616E-04
   1.93750000      -3.51220398E-04
   1.94000006      -3.51254916E-04
   1.94250000      -3.51306167E-04
   1.94500005      -3.51362221E-04
   1.94749999      -3.51408555E-04
   1.95000005      -3.51437542E-04
   1.95249999      -3.51452472E-04
   1.95500004      -3.51464871E-04
   1.95749998      -3.51485651E-04
   1.96000004      -3.51518858E-04
   1.96249998      -3.51560826E-04
   1.96500003      -3.51603579E-04
   1.96749997      -3.51643626E-04
   1.97000003      -3.51680093E-04
   1.97249997      -3.51715396E-04
   1.97500002      -3.51747643E-04
   1.97749996      -3.51774390E-04
   1.98000002      -3.51791445E-04