 -0.159999996       0.00000000    
 -0.157499999       0.00000000    
 -0.155000001       0.00000000    
 -0.152500004       0.00000000    
 -0.150000006       0.00000000    
 -0.147499993       0.00000000    
 -0.144999996       0.00000000    
 -0.142499998       0.00000000    
 -0.140000001       0.00000000    
 -0.137500003       0.00000000    
 -0.135000005       0.00000000    
 -0.132499993       0.00000000    
 -0.129999995       0.00000000    
 -0.127499998       0.00000000    
 -0.125000000       0.00000000    
 -0.122500002       0.00000000    
 -0.119999997       0.00000000    
 -0.117500000       0.00000000    
 -0.115000002       8.67004323E-38
 -0.112499997       9.99606731E-38
 -0.109999999      -9.63614974E-37
 -0.107500002      -1.99881643E-36
 -0.104999997       5.09564963E-36
 -0.102499999       1.71356799E-35
 -0.100000001      -1.03688940E-35
  -9.74999964E-02  -7.36439807E-35
  -9.49999988E-02   2.92812629E-35
  -9.25000012E-02   2.83325500E-34
  -9.00000036E-02  -3.30373124E-34
  -8.74999985E-02  -2.12769326E-33
  -8.50000009E-02  -1.60781890E-34
  -8.25000033E-02   1.16959183E-32
  -7.99999982E-02   1.87769603E-32
  -7.75000006E-02  -2.04377208E-32
  -7.50000030E-02  -1.05104641E-31
  -7.24999979E-02  -9.74527605E-32
  -7.00000003E-02   1.80260965E-31
  -6.75000027E-02   5.77372779E-31
  -6.49999976E-02   4.30318436E-31
  -6.25000000E-02  -7.90838087E-31
  -5.99999987E-02  -2.31208435E-30
  -5.75000010E-02  -1.96376883E-30
  -5.49999997E-02   1.73880441E-30
  -5.24999984E-02   6.93111342E-30
  -5.00000007E-02   8.45513790E-30
  -4.74999994E-02   1.68412323E-30
  -4.50000018E-02  -1.29277686E-29
  -4.25000004E-02  -2.81806824E-29
  -3.99999991E-02  -3.13806541E-29
  -3.75000015E-02  -7.24914313E-30
  -3.50000001E-02   5.38430790E-29
  -3.24999988E-02   1.35918425E-28
  -2.99999993E-02   1.72948461E-28
  -2.74999999E-02   5.52395829E-29
  -2.50000004E-02  -2.87942392E-28
  -2.25000009E-02  -7.36089510E-28
  -1.99999996E-02  -8.76815141E-28
  -1.75000001E-02  -1.62136639E-28
  -1.49999997E-02   1.57610673E-27
  -1.25000002E-02   3.50214683E-27
  -9.99999978E-03   3.68438179E-27
  -7.49999983E-03   1.50363153E-28
  -4.99999989E-03  -7.05470065E-27
  -2.49999994E-03  -1.41330332E-26
   0.00000000      -1.40918322E-26
   2.49999994E-03  -7.18349288E-28
   4.99999989E-03   2.52156430E-26
   7.49999983E-03   5.12405988E-26
   9.99999978E-03   5.47033746E-26
   1.25000002E-02   1.35729990E-26
   1.49999997E-02  -7.49620129E-26
   1.75000001E-02  -1.76343471E-25
   1.99999996E-02  -2.15757994E-25
   2.25000009E-02  -1.06408733E-25
   2.50000004E-02   1.87046945E-25
   2.74999999E-02   5.73767724E-25
   2.99999993E-02   8.07176875E-25
   3.24999988E-02   5.65910719E-25
   3.50000001E-02  -3.34659399E-25
   3.75000015E-02  -1.68084013E-24
   3.99999991E-02  -2.73387497E-24
   4.25000004E-02  -2.44027988E-24
   4.50000018E-02  -4.04860087E-26
   4.74999994E-02   4.14108509E-24
   5.00000007E-02   8.21404179E-24
   5.24999984E-02   9.09613264E-24
   5.49999997E-02   3.98555367E-24
   5.75000010E-02  -7.46318899E-24
   5.99999987E-02  -2.13577574E-23
   6.25000000E-02  -2.96258575E-23
   6.49999976E-02  -2.29482004E-23
   6.75000027E-02   3.70435947E-24
   7.00000003E-02   4.50701226E-23
   7.24999979E-02   8.28285333E-23
   7.50000030E-02   8.98024803E-23
   7.75000006E-02   4.24686455E-23
   7.99999982E-02  -6.15719947E-23
   8.25000033E-02  -1.89677705E-22
   8.50000009E-02  -2.74794130E-22
   8.74999985E-02  -2.38291302E-22
   9.00000036E-02  -3.26523697E-23
   9.25000012E-02   3.12040381E-22
   9.49999988E-02   6.64432625E-22
   9.74999964E-02   8.17058656E-22
  0.100000001       5.69859587E-22
  0.102499999      -1.48243473E-22
  0.104999997      -1.17174445E-21
  0.107500002      -2.07336678E-21
  0.109999999      -2.27505284E-21
  0.112499997      -1.29780286E-21
  0.115000002       9.22173299E-22
  0.117500000       3.79278063E-21
  0.119999997       6.06651151E-21
  0.122500002       6.19458557E-21
  0.125000000       3.01199402E-21
  0.127499998      -3.45204846E-21
  0.129999995      -1.14020345E-20
  0.132499993      -1.73509179E-20
  0.135000005      -1.71102730E-20
  0.137500003      -7.62734923E-21
  0.140000001       1.08594436E-20
  0.142499998       3.32898999E-20
  0.144999996       4.99647786E-20
  0.147499993       4.91999435E-20
  0.150000006       2.23295258E-20
  0.152500004      -3.03238920E-20
  0.155000001      -9.50786793E-20
  0.157499999      -1.45142823E-19
  0.159999996      -1.47620190E-19
  0.162499994      -7.70048023E-20
  0.165000007       6.85218583E-20
  0.167500004       2.54794712E-19
  0.170000002       4.11280818E-19
  0.172499999       4.48171677E-19
  0.174999997       2.90433970E-19
  0.177499995      -8.00719169E-20
  0.180000007      -5.90851027E-19
  0.182500005      -1.07267469E-18
  0.185000002      -1.29532917E-18
  0.187500000      -1.04582430E-18
  0.189999998      -2.30546714E-19
  0.192499995       1.03516349E-18
  0.194999993       2.39480037E-18
  0.197500005       3.31177640E-18
  0.200000003       3.23148818E-18
  0.202500001       1.81016917E-18
  0.204999998      -8.65153631E-19
  0.207499996      -4.16329267E-18
  0.209999993      -6.98623841E-18
  0.212500006      -8.06628235E-18
  0.215000004      -6.42711106E-18
  0.217500001      -1.86654319E-18
  0.219999999       4.73254927E-18
  0.222499996       1.14403297E-17
  0.224999994       1.57495106E-17
  0.227500007       1.54045697E-17
  0.230000004       9.35373603E-18
  0.232500002      -1.52428945E-18
  0.234999999      -1.42666123E-17
  0.237499997      -2.44538892E-17
  0.239999995      -2.75721169E-17
  0.242500007      -2.07612292E-17
  0.245000005      -4.36587292E-18
  0.247500002       1.73650986E-17
  0.250000000       3.69185894E-17
  0.252499998       4.55967199E-17
  0.254999995       3.66189846E-17
  0.257499993       8.34707791E-18
  0.259999990      -3.35387195E-17
  0.262499988      -7.60040414E-17
  0.264999986      -1.01380328E-16
  0.267500013      -9.26505880E-17
  0.270000011      -4.01584044E-17
  0.272500008       5.22375343E-17
  0.275000006       1.63955390E-16
  0.277500004       2.59547147E-16
  0.280000001       2.96633453E-16
  0.282499999       2.39066870E-16
  0.284999996       7.22578396E-17
  0.287499994      -1.84263534E-16
  0.289999992      -4.72619344E-16
  0.292499989      -7.04954341E-16
  0.294999987      -7.85244541E-16
  0.297500014      -6.40514297E-16
  0.300000012      -2.52641156E-16
  0.302500010       3.20780377E-16
  0.305000007       9.46997552E-16
  0.307500005       1.44511804E-15
  0.310000002       1.63593445E-15
  0.312500000       1.40162279E-15
  0.314999998       7.36058502E-16
  0.317499995      -2.33806002E-16
  0.319999993      -1.26808096E-15
  0.322499990      -2.07534084E-15
  0.324999988      -2.40021355E-15
  0.327499986      -2.11056491E-15
  0.330000013      -1.25421206E-15
  0.332500011      -6.19164078E-17
  0.335000008       1.11068032E-15
  0.337500006       1.88938873E-15
  0.340000004       2.00557433E-15
  0.342500001       1.39860259E-15
  0.344999999       2.60693951E-16
  0.347499996      -9.96373114E-16
  0.349999994      -1.85055206E-15
  0.352499992      -1.82919687E-15
  0.354999989      -6.76298157E-16
  0.357499987       1.52129256E-15
  0.360000014       4.29103461E-15
  0.362500012       6.83892115E-15
  0.365000010       8.21921046E-15
  0.367500007       7.57967687E-15
  0.370000005       4.42793038E-15
  0.372500002      -1.15046387E-15
  0.375000000      -8.39096587E-15
  0.377499998      -1.59156644E-14
  0.379999995      -2.19779097E-14
  0.382499993      -2.48486517E-14
  0.384999990      -2.32584371E-14
  0.387499988      -1.67760144E-14
  0.389999986      -6.00329434E-15
  0.392500013       7.49592903E-15
  0.395000011       2.15417487E-14
  0.397500008       3.38761849E-14
  0.400000006       4.27325750E-14
  0.402500004       4.72411451E-14
  0.405000001       4.75074082E-14
  0.407499999       4.43031876E-14
  0.409999996       3.84526768E-14
  0.412499994       3.01379879E-14
  0.414999992       1.84247335E-14
  0.417499989       1.28305671E-15
  0.419999987      -2.37664180E-14
  0.422500014      -5.84742148E-14
  0.425000012      -1.02474270E-13
  0.427500010      -1.52162964E-13
  0.430000007      -2.00315039E-13
  0.432500005      -2.36736520E-13
  0.435000002      -2.49946873E-13
  0.437500000      -2.29550970E-13
  0.439999998      -1.68710803E-13
  0.442499995      -6.60635622E-14
  0.444999993       7.34170821E-14
  0.447499990       2.38801356E-13
  0.449999988       4.14644339E-13
  0.452499986       5.83021533E-13
  0.455000013       7.25612441E-13
  0.457500011       8.25405228E-13
  0.460000008       8.67872180E-13
  0.462500006       8.41756081E-13
  0.465000004       7.39817333E-13
  0.467500001       5.59835761E-13
  0.469999999       3.06038777E-13
  0.472499996      -9.20093689E-15
  0.474999994      -3.63593324E-13
  0.477499992      -7.23368902E-13
  0.479999989      -1.04204937E-12
  0.482499987      -1.25941597E-12
  0.485000014      -1.30066205E-12
  0.487500012      -1.07573520E-12
  0.490000010      -4.79366492E-13
  0.492500007       6.07858219E-13
  0.495000005       2.31700661E-12
  0.497500002       4.78662075E-12
  0.500000000       8.15806884E-12
  0.502499998       1.25706867E-11
  0.504999995       1.81577219E-11
  0.507499993       2.50426728E-11
  0.509999990       3.33350916E-11
  0.512499988       4.31233625E-11
  0.514999986       5.44614735E-11
  0.517499983       6.73460454E-11
  0.519999981       8.16804471E-11
  0.522499979       9.72227437E-11
  0.524999976       1.13513393E-10
  0.527499974       1.29783198E-10
  0.529999971       1.44833215E-10
  0.532500029       1.56886920E-10
  0.535000026       1.63407801E-10
  0.537500024       1.60869845E-10
  0.540000021       1.44478027E-10
  0.542500019       1.07795620E-10
  0.545000017       4.22698196E-11
  0.547500014      -6.33874828E-11
  0.550000012      -2.24008270E-10
  0.552500010      -4.58962840E-10
  0.555000007      -7.93497545E-10
  0.557500005      -1.26038568E-09
  0.560000002      -1.90211225E-09
  0.562500000      -2.77365597E-09
  0.564999998      -3.94602218E-09
  0.567499995      -5.51074075E-09
  0.569999993      -7.58538654E-09
  0.572499990      -1.03205080E-08
  0.574999988      -1.39080161E-08
  0.577499986      -1.85913915E-08
  0.579999983      -2.46780480E-08
  0.582499981      -3.25540377E-08
  0.584999979      -4.27009823E-08
  0.587499976      -5.57166011E-08
  0.589999974      -7.23373077E-08
  0.592499971      -9.34647417E-08
  0.595000029      -1.20194173E-07
  0.597500026      -1.53847623E-07
  0.600000024      -1.96008941E-07
  0.602500021      -2.48561207E-07
  0.605000019      -3.13728407E-07
  0.607500017      -3.94117876E-07
  0.610000014      -4.92763320E-07
  0.612500012      -6.13168311E-07
  0.615000010      -7.59348097E-07
  0.617500007      -9.35870673E-07
  0.620000005      -1.14789339E-06
  0.622500002      -1.40119653E-06
  0.625000000      -1.70220665E-06
  0.627499998      -2.05801507E-06
  0.629999995      -2.47639514E-06
  0.632499993      -2.96578150E-06
  0.634999990      -3.53526980E-06
  0.637499988      -4.19456410E-06
  0.639999986      -4.95395716E-06
  0.642499983      -5.82425946E-06
  0.644999981      -6.81671736E-06
  0.647499979      -7.94290827E-06
  0.649999976      -9.21465653E-06
  0.652499974      -1.06438865E-05
  0.654999971      -1.22424663E-05
  0.657500029      -1.40220845E-05
  0.660000026      -1.59940719E-05
  0.662500024      -1.81692685E-05
  0.665000021      -2.05577962E-05
  0.667500019      -2.31689191E-05
  0.670000017      -2.60108773E-05
  0.672500014      -2.90906792E-05
  0.675000012      -3.24139837E-05
  0.677500010      -3.59849328E-05
  0.680000007      -3.98061347E-05
  0.682500005      -4.38784664E-05
  0.685000002      -4.82010255E-05
  0.687500000      -5.27711454E-05
  0.689999998      -5.75842569E-05
  0.692499995      -6.26340479E-05
  0.694999993      -6.79124641E-05
  0.697499990      -7.34096830E-05
  0.699999988      -7.91142811E-05
  0.702499986      -8.50134165E-05
  0.704999983      -9.10928647E-05
  0.707499981      -9.73371643E-05
  0.709999979      -1.03729770E-04
  0.712499976      -1.10253124E-04
  0.714999974      -1.16889023E-04
  0.717499971      -1.23618505E-04
  0.720000029      -1.30422064E-04
  0.722500026      -1.37279712E-04
  0.725000024      -1.44170976E-04
  0.727500021      -1.51074943E-04
  0.730000019      -1.57970164E-04
  0.732500017      -1.64834462E-04
  0.735000014      -1.71645093E-04
  0.737500012      -1.78378818E-04
  0.740000010      -1.85011202E-04
  0.742500007      -1.91516665E-04
  0.745000005      -1.97868445E-04
  0.747500002      -2.04038093E-04
  0.750000000      -2.09995444E-04
  0.752499998      -2.15708293E-04
  0.754999995      -2.21142633E-04
  0.757499993      -2.26262564E-04
  0.759999990      -2.31029902E-04
  0.762499988      -2.35405314E-04
  0.764999986      -2.39346016E-04
  0.767499983      -2.42808455E-04
  0.769999981      -2.45747622E-04
  0.772499979      -2.48118042E-04
  0.774999976      -2.49874720E-04
  0.777499974      -2.50972313E-04
  0.779999971      -2.51366873E-04
  0.782500029      -2.51016289E-04
  0.785000026      -2.49881181E-04
  0.787500024      -2.47925636E-04
  0.790000021      -2.45118514E-04
  0.792500019      -2.41434333E-04
  0.795000017      -2.36855529E-04
  0.797500014      -2.31370199E-04
  0.800000012      -2.24974632E-04
  0.802500010      -2.17672496E-04
  0.805000007      -2.09478778E-04
  0.807500005      -2.00415685E-04
  0.810000002      -1.90514285E-04
  0.812500000      -1.79817318E-04
  0.814999998      -1.68375147E-04
  0.817499995      -1.56247886E-04
  0.819999993      -1.43502795E-04
  0.822499990      -1.30214394E-04
  0.824999988      -1.16464063E-04
  0.827499986      -1.02338796E-04
  0.829999983      -8.79272557E-05
  0.832499981      -7.33224952E-05
  0.834999979      -5.86186507E-05
  0.837499976      -4.39106916E-05
  0.839999974      -2.92901295E-05
  0.842499971      -1.48469617E-05
  0.845000029      -6.66750054E-07
  0.847500026       1.31697652E-05
  0.850000024       2.65890740E-05
  0.852500021       3.95239440E-05
  0.855000019       5.19135829E-05
  0.857500017       6.37082412E-05
  0.860000014       7.48683815E-05
  0.862500012       8.53600141E-05
  0.865000010       9.51601760E-05
  0.867500007       1.04253173E-04
  0.870000005       1.12632086E-04
  0.872500002       1.20298064E-04
  0.875000000       1.27262465E-04
  0.877499998       1.33537469E-04
  0.879999995       1.39145879E-04
  0.882499993       1.44116624E-04
  0.884999990       1.48479667E-04
  0.887499988       1.52270586E-04
  0.889999986       1.55527217E-04
  0.892499983       1.58286173E-04
  0.894999981       1.60584503E-04
  0.897499979       1.62463097E-04
  0.899999976       1.63957884E-04
  0.902499974       1.65110891E-04
  0.904999971       1.65958772E-04
  0.907500029       1.66537648E-04
  0.910000026       1.66878817E-04
  0.912500024       1.67014048E-04
  0.915000021       1.66970320E-04
  0.917500019       1.66773942E-04
  0.920000017       1.66449783E-04
  0.922500014       1.66019890E-04
  0.925000012       1.65507066E-04
  0.927500010       1.64927871E-04
  0.930000007       1.64299592E-04
  0.932500005       1.63635166E-04
  0.935000002       1.62946759E-04
  0.937500000       1.62246404E-04
  0.939999998       1.61544085E-04
  0.942499995       1.60849435E-04
  0.944999993       1.60172800E-04
  0.947499990       1.59523493E-04
  0.949999988       1.58908559E-04
  0.952499986       1.58332972E-04
  0.954999983       1.57800474E-04
  0.957499981       1.57313771E-04
  0.959999979       1.56876296E-04
  0.962499976       1.56490350E-04
  0.964999974       1.56159338E-04
  0.967499971       1.55887858E-04
  0.970000029       1.55676753E-04
  0.972500026       1.55526315E-04
  0.975000024       1.55435002E-04
  0.977500021       1.55401736E-04
  0.980000019       1.55421629E-04
  0.982500017       1.55489703E-04
  0.985000014       1.55601520E-04
  0.987500012       1.55755755E-04
  0.990000010       1.55948364E-04
  0.992500007       1.56178765E-04
  0.995000005       1.56443712E-04
  0.997500002       1.56738533E-04
   1.00000000       1.57055692E-04
   1.00250006       1.57387549E-04
   1.00500000       1.57726114E-04
   1.00750005       1.58066818E-04
   1.00999999       1.58407391E-04
   1.01250005       1.58746814E-04
   1.01499999       1.59082891E-04
   1.01750004       1.59410542E-04
   1.01999998       1.59723888E-04
   1.02250004       1.60017182E-04
   1.02499998       1.60287062E-04
   1.02750003       1.60532290E-04
   1.02999997       1.60755386E-04
   1.03250003       1.60955198E-04
   1.03499997       1.61129705E-04
   1.03750002       1.61274467E-04
   1.03999996       1.61386211E-04
   1.04250002       1.61461940E-04
   1.04499996       1.61502961E-04
   1.04750001       1.61515854E-04
   1.04999995       1.61504271E-04
   1.05250001       1.61470409E-04
   1.05499995       1.61414282E-04
   1.05750000       1.61329779E-04
   1.05999994       1.61217045E-04
   1.06250000       1.61072880E-04
   1.06500006       1.60901298E-04
   1.06750000       1.60707845E-04
   1.07000005       1.60496769E-04
   1.07249999       1.60271346E-04
   1.07500005       1.60031719E-04
   1.07749999       1.59775940E-04
   1.08000004       1.59503194E-04
   1.08249998       1.59213596E-04
   1.08500004       1.58909155E-04
   1.08749998       1.58592680E-04
   1.09000003       1.58266310E-04
   1.09249997       1.57932242E-04
   1.09500003       1.57590315E-04
   1.09749997       1.57241127E-04
   1.10000002       1.56886395E-04
   1.10249996       1.56524271E-04
   1.10500002       1.56153954E-04
   1.10749996       1.55774222E-04
   1.11000001       1.55385744E-04
   1.11249995       1.54989844E-04
   1.11500001       1.54587877E-04
   1.11749995       1.54179259E-04
   1.12000000       1.53764136E-04
   1.12249994       1.53340268E-04
   1.12500000       1.52905588E-04
   1.12750006       1.52462104E-04
   1.13000000       1.52009758E-04
   1.13250005       1.51550586E-04
   1.13499999       1.51084430E-04
   1.13750005       1.50608350E-04
   1.13999999       1.50119871E-04
   1.14250004       1.49618179E-04
   1.14499998       1.49103129E-04
   1.14750004       1.48577688E-04
   1.14999998       1.48042614E-04
   1.15250003       1.47500294E-04
   1.15499997       1.46950202E-04
   1.15750003       1.46390958E-04
   1.15999997       1.45821541E-04
   1.16250002       1.45240774E-04
   1.16499996       1.44650679E-04
   1.16750002       1.44053862E-04
   1.16999996       1.43453406E-04
   1.17250001       1.42850084E-04
   1.17499995       1.42243065E-04
   1.17750001       1.41630240E-04
   1.17999995       1.41009848E-04
   1.18250000       1.40381817E-04
   1.18499994       1.39749769E-04
   1.18750000       1.39116892E-04
   1.19000006       1.38486153E-04
   1.19250000       1.37856259E-04
   1.19500005       1.37226263E-04
   1.19749999       1.36593895E-04
   1.20000005       1.35957496E-04
   1.20249999       1.35317445E-04
   1.20500004       1.34675545E-04
   1.20749998       1.34033733E-04
   1.21000004       1.33393260E-04
   1.21249998       1.32753572E-04
   1.21500003       1.32113375E-04
   1.21749997       1.31469962E-04
   1.22000003       1.30822576E-04
   1.22249997       1.30171946E-04
   1.22500002       1.29518070E-04
   1.22749996       1.28862943E-04
   1.23000002       1.28206142E-04
   1.23249996       1.27547319E-04
   1.23500001       1.26885468E-04
   1.23749995       1.26220039E-04
   1.24000001       1.25552469E-04
   1.24249995       1.24884071E-04
   1.24500000       1.24216051E-04
   1.24749994       1.23548220E-04
   1.25000000       1.22879908E-04
   1.25250006       1.22210127E-04
   1.25500000       1.21538193E-04
   1.25750005       1.20864272E-04
   1.25999999       1.20189368E-04
   1.26250005       1.19515731E-04
   1.26499999       1.18844349E-04
   1.26750004       1.18176162E-04
   1.26999998       1.17511539E-04
   1.27250004       1.16849398E-04
   1.27499998       1.16189163E-04
   1.27750003       1.15528514E-04
   1.27999997       1.14867144E-04
   1.28250003       1.14205533E-04
   1.28499997       1.13545466E-04
   1.28750002       1.12889946E-04
   1.28999996       1.12239373E-04
   1.29250002       1.11594243E-04
   1.29499996       1.10950888E-04
   1.29750001       1.10306348E-04
   1.29999995       1.09659268E-04
   1.30250001       1.09013010E-04
   1.30499995       1.08370448E-04
   1.30750000       1.07734348E-04
   1.30999994       1.07106316E-04
   1.31250000       1.06484797E-04
   1.31500006       1.05864747E-04
   1.31750000       1.05242223E-04
   1.32000005       1.04615785E-04
   1.32249999       1.03987826E-04
   1.32500005       1.03362625E-04
   1.32749999       1.02744671E-04
   1.33000004       1.02134778E-04
   1.33249998       1.01531026E-04
   1.33500004       1.00929668E-04
   1.33749998       1.00328347E-04
   1.34000003       9.97255556E-05
   1.34249997       9.91225170E-05
   1.34500003       9.85210499E-05
   1.34749997       9.79230535E-05
   1.35000002       9.73282295E-05
   1.35249996       9.67357337E-05
   1.35500002       9.61446349E-05
   1.35749996       9.55548239E-05
   1.36000001       9.49671958E-05
   1.36249995       9.43837440E-05
   1.36500001       9.38049634E-05
   1.36749995       9.32303737E-05
   1.37000000       9.26582870E-05
   1.37249994       9.20873135E-05
   1.37500000       9.15169730E-05
   1.37750006       9.09487208E-05
   1.38000000       9.03837936E-05
   1.38250005       8.98229846E-05
   1.38499999       8.92664830E-05
   1.38750005       8.87137721E-05
   1.38999999       8.81655797E-05
   1.39250004       8.76213890E-05
   1.39499998       8.70815202E-05
   1.39750004       8.65454349E-05
   1.39999998       8.60115106E-05
   1.40250003       8.54781465E-05
   1.40499997       8.49447679E-05
   1.40750003       8.44125316E-05
   1.40999997       8.38843407E-05
   1.41250002       8.33626182E-05
   1.41499996       8.28475750E-05
   1.41750002       8.23375085E-05
   1.41999996       8.18298577E-05
   1.42250001       8.13221559E-05
   1.42499995       8.08139011E-05
   1.42750001       8.03070361E-05
   1.42999995       7.98033434E-05
   1.43250000       7.93041545E-05
   1.43499994       7.88092439E-05
   1.43750000       7.83178984E-05
   1.44000006       7.78293033E-05
   1.44250000       7.73431384E-05
   1.44500005       7.68616301E-05
   1.44749999       7.63862845E-05
   1.45000005       7.59178147E-05
   1.45249999       7.54545472E-05
   1.45500004       7.49951287E-05
   1.45749998       7.45373254E-05
   1.46000004       7.40812757E-05
   1.46249998       7.36288275E-05
   1.46500003       7.31816035E-05
   1.46749997       7.27407678E-05
   1.47000003       7.23059784E-05
   1.47249997       7.18763695E-05
   1.47500002       7.14508060E-05
   1.47749996       7.10298191E-05
   1.48000002       7.06136634E-05
   1.48249996       7.02023972E-05
   1.48500001       6.97950309E-05
   1.48749995       6.93894690E-05
   1.49000001       6.89846347E-05
   1.49249995       6.85808482E-05
   1.49500000       6.81805759E-05
   1.49749994       6.77867574E-05
   1.50000000       6.74015973E-05
   1.50250006       6.70242298E-05
   1.50500000       6.66524575E-05
   1.50750005       6.62829480E-05
   1.50999999       6.59135767E-05
   1.51250005       6.55452677E-05
   1.51499999       6.51800801E-05
   1.51750004       6.48212153E-05
   1.51999998       6.44700558E-05
   1.52250004       6.41265069E-05
   1.52499998       6.37883059E-05
   1.52750003       6.34536264E-05
   1.52999997       6.31215953E-05
   1.53250003       6.27936170E-05
   1.53499997       6.24704044E-05
   1.53750002       6.21519575E-05
   1.53999996       6.18374252E-05
   1.54250002       6.15256140E-05
   1.54499996       6.12154690E-05
   1.54750001       6.09082927E-05
   1.54999995       6.06066242E-05
   1.55250001       6.03119406E-05
   1.55499995       6.00248459E-05
   1.55750000       5.97431354E-05
   1.55999994       5.94646081E-05
   1.56250000       5.91870739E-05
   1.56500006       5.89098308E-05
   1.56750000       5.86351125E-05
   1.57000005       5.83642977E-05
   1.57249999       5.80987289E-05
   1.57500005       5.78382605E-05
   1.57749999       5.75820304E-05
   1.58000004       5.73289180E-05
   1.58249998       5.70793418E-05
   1.58500004       5.68334181E-05
   1.58749998       5.65914852E-05
   1.59000003       5.63535141E-05
   1.59249997       5.61186571E-05
   1.59500003       5.58868051E-05
   1.59749997       5.56580308E-05
   1.60000002       5.54330945E-05
   1.60249996       5.52130659E-05
   1.60500002       5.49979559E-05
   1.60749996       5.47870841E-05
   1.61000001       5.45794574E-05
   1.61249995       5.43746282E-05
   1.61500001       5.41728550E-05
   1.61749995       5.39756875E-05
   1.62000000       5.37839878E-05
   1.62249994       5.35972358E-05
   1.62500000       5.34136816E-05
   1.62750006       5.32311424E-05
   1.63000000       5.30491234E-05
   1.63250005       5.28695819E-05
   1.63499999       5.26951444E-05
   1.63750005       5.25281357E-05
   1.63999999       5.23682356E-05
   1.64250004       5.22123992E-05
   1.64499998       5.20575777E-05
   1.64750004       5.19011846E-05
   1.64999998       5.17432454E-05
   1.65250003       5.15873653E-05
   1.65499997       5.14366220E-05
   1.65750003       5.12930492E-05
   1.65999997       5.11558646E-05
   1.66250002       5.10224636E-05
   1.66499996       5.08900230E-05
   1.66750002       5.07578079E-05
   1.66999996       5.06267424E-05
   1.67250001       5.04990712E-05
   1.67499995       5.03762712E-05
   1.67750001       5.02576331E-05
   1.67999995       5.01407703E-05
   1.68250000       5.00235510E-05
   1.68499994       4.99052912E-05
   1.68750000       4.97871588E-05
   1.69000006       4.96719440E-05
   1.69250000       4.95623353E-05
   1.69500005       4.94589076E-05
   1.69749999       4.93601183E-05
   1.70000005       4.92629879E-05
   1.70249999       4.91647479E-05
   1.70500004       4.90645616E-05
   1.70749998       4.89631311E-05
   1.71000004       4.88624974E-05
   1.71249998       4.87648285E-05
   1.71500003       4.86720419E-05
   1.71749997       4.85847959E-05
   1.72000003       4.85026576E-05
   1.72249997       4.84242591E-05
   1.72500002       4.83477888E-05
   1.72749996       4.82717733E-05
   1.73000002       4.81950774E-05
   1.73249996       4.81181269E-05
   1.73500001       4.80420822E-05
   1.73749995       4.79694972E-05
   1.74000001       4.79018636E-05
   1.74249995       4.78398906E-05
   1.74500000       4.77817157E-05
   1.74749994       4.77250214E-05
   1.75000000       4.76680179E-05
   1.75250006       4.76102614E-05
   1.75500000       4.75530360E-05
   1.75750005       4.74984736E-05
   1.75999999       4.74479311E-05
   1.76250005       4.74011431E-05
   1.76499999       4.73563814E-05
   1.76750004       4.73118635E-05
   1.76999998       4.72668726E-05
   1.77250004       4.72219581E-05
   1.77499998       4.71790700E-05
   1.77750003       4.71395797E-05
   1.77999997       4.71037383E-05
   1.78250003       4.70704399E-05
   1.78499997       4.70379564E-05
   1.78750002       4.70052255E-05
   1.78999996       4.69727311E-05
   1.79250002       4.69417246E-05
   1.79499996       4.69138686E-05
   1.79750001       4.68898543E-05
   1.79999995       4.68690923E-05
   1.80250001       4.68503022E-05
   1.80499995       4.68323924E-05
   1.80750000       4.68151738E-05
   1.80999994       4.67994614E-05
   1.81250000       4.67860009E-05
   1.81500006       4.67750615E-05
   1.81750000       4.67662830E-05
   1.82000005       4.67588034E-05
   1.82249999       4.67519894E-05
   1.82500005       4.67455757E-05
   1.82749999       4.67398204E-05
   1.83000004       4.67348655E-05
   1.83249998       4.67305545E-05
   1.83500004       4.67265272E-05
   1.83749998       4.67227255E-05
   1.84000003       4.67198042E-05
   1.84249997       4.67186910E-05
   1.84500003       4.67203063E-05
   1.84749997       4.67246027E-05
   1.85000002       4.67301797E-05
   1.85249996       4.67350692E-05
   1.85500002       4.67376012E-05
   1.85749996       4.67374666E-05
   1.86000001       4.67359823E-05
   1.86249995       4.67354002E-05
   1.86500001       4.67378777E-05
   1.86749995       4.67443751E-05
   1.87000000       4.67542850E-05
   1.87249994       4.67657737E-05
   1.87500000       4.67765822E-05
   1.87750006       4.67850550E-05
   1.88000000       4.67905666E-05
   1.88250005       4.67936916E-05
   1.88499999       4.67960017E-05
   1.88750005       4.67996215E-05
   1.88999999       4.68064827E-05
   1.89250004       4.68177059E-05
   1.89499998       4.68329890E-05
   1.89750004       4.68507824E-05
   1.89999998       4.68689068E-05
   1.90250003       4.68856124E-05
   1.90499997       4.69007209E-05
   1.90750003       4.69157203E-05
   1.90999997       4.69332008E-05
   1.91250002       4.69552870E-05
   1.91499996       4.69825209E-05
   1.91750002       4.70135346E-05
   1.91999996       4.70460509E-05
   1.92250001       4.70783016E-05
   1.92499995       4.71102067E-05
   1.92750001       4.71434214E-05
   1.92999995       4.71800267E-05
   1.93250000       4.72209576E-05
   1.93499994       4.72650499E-05
   1.93750000       4.73095060E-05
   1.94000006       4.73516702E-05
   1.94250000       4.73906221E-05
   1.94500005       4.74279186E-05
   1.94749999       4.74668959E-05
   1.95000005       4.75105153E-05
   1.95249999       4.75596171E-05
   1.95500004       4.76121786E-05
   1.95749998       4.76642344E-05
   1.96000004       4.77118774E-05
   1.96249998       4.77532267E-05
   1.96500003       4.77892572E-05
   1.96749997       4.78229631E-05
   1.97000003       4.78576076E-05
   1.97249997       4.78949878E-05
   1.97500002       4.79343871E-05
   1.97749996       4.79731279E-05
   1.98000002       4.80078270E-05