 -0.159999996       0.00000000    
 -0.157499999       0.00000000    
 -0.155000001       0.00000000    
 -0.152500004       0.00000000    
 -0.150000006       0.00000000    
 -0.147499993       0.00000000    
 -0.144999996       0.00000000    
 -0.142499998       0.00000000    
 -0.140000001       0.00000000    
 -0.137500003       0.00000000    
 -0.135000005       6.19137221E-28
 -0.132499993      -9.51346376E-27
 -0.129999995       8.22520306E-26
 -0.127499998      -5.65285892E-26
 -0.125000000      -1.05981895E-24
 -0.122500002       1.59025454E-24
 -0.119999997       7.58034430E-24
 -0.117500000      -1.25074141E-23
 -0.115000002      -3.76789503E-23
 -0.112499997       6.53489282E-23
 -0.109999999       1.41177223E-22
 -0.107500002      -3.02680174E-22
 -0.104999997      -4.78507021E-22
 -0.102499999       1.33216428E-21
 -0.100000001       1.98536999E-21
  -9.74999964E-02  -4.78855341E-21
  -9.49999988E-02  -9.37195553E-21
  -9.25000012E-02   1.09807007E-20
  -9.00000036E-02   3.65705467E-20
  -8.74999985E-02  -4.42930903E-21
  -8.50000009E-02  -9.94357563E-20
  -8.25000033E-02  -7.10092874E-20
  -7.99999982E-02   1.60493563E-19
  -7.75000006E-02   2.83277720E-19
  -7.50000030E-02  -5.34550317E-20
  -7.24999979E-02  -5.31624430E-19
  -7.00000003E-02  -3.81204660E-19
  -6.75000027E-02   4.06991628E-19
  -6.49999976E-02   7.97296128E-19
  -6.25000000E-02   2.33597433E-19
  -5.99999987E-02  -3.70112504E-19
  -5.75000010E-02  -2.05060982E-19
  -5.49999997E-02  -2.58358361E-19
  -5.24999984E-02  -1.56704073E-18
  -5.00000007E-02  -2.20498848E-18
  -4.74999994E-02   1.09131665E-18
  -4.50000018E-02   7.01529561E-18
  -4.25000004E-02   8.14177416E-18
  -3.99999991E-02  -1.24864268E-18
  -3.75000015E-02  -1.58625895E-17
  -3.50000001E-02  -2.09864324E-17
  -3.24999988E-02  -6.05116822E-18
  -2.99999993E-02   2.24888174E-17
  -2.74999999E-02   4.23777763E-17
  -2.50000004E-02   3.21943988E-17
  -2.25000009E-02  -9.23120908E-18
  -1.99999996E-02  -5.78128839E-17
  -1.75000001E-02  -7.97034776E-17
  -1.49999997E-02  -5.39436307E-17
  -1.25000002E-02   1.66436068E-17
  -9.99999978E-03   1.07482261E-16
  -7.49999983E-03   1.73964288E-16
  -4.99999989E-03   1.55771794E-16
  -2.49999994E-03   7.95062513E-18
   0.00000000      -2.39921500E-16
   2.49999994E-03  -4.49000042E-16
   4.99999989E-03  -4.23909312E-16
   7.49999983E-03  -5.12129487E-17
   9.99999978E-03   5.60843384E-16
   1.25000002E-02   1.05641748E-15
   1.49999997E-02   9.93527295E-16
   1.75000001E-02   1.56429131E-16
   1.99999996E-02  -1.16649947E-15
   2.25000009E-02  -2.19693750E-15
   2.50000004E-02  -2.08323243E-15
   2.74999999E-02  -5.06467681E-16
   2.99999993E-02   1.95208018E-15
   3.24999988E-02   3.98143771E-15
   3.50000001E-02   4.18613466E-15
   3.75000015E-02   1.87161416E-15
   3.99999991E-02  -2.39537063E-15
   4.25000004E-02  -6.73018372E-15
   4.50000018E-02  -8.55304648E-15
   4.74999994E-02  -5.84422240E-15
   5.00000007E-02   1.42928583E-15
   5.24999984E-02   1.05558974E-14
   5.49999997E-02   1.67733394E-14
   5.75000010E-02   1.55101304E-14
   5.99999987E-02   5.21707921E-15
   6.25000000E-02  -1.09266522E-14
   6.49999976E-02  -2.58906818E-14
   6.75000027E-02  -3.22398663E-14
   7.00000003E-02  -2.62350024E-14
   7.24999979E-02  -9.82114374E-15
   7.50000030E-02   1.10422341E-14
   7.75000006E-02   3.05277823E-14
   7.99999982E-02   4.62171568E-14
   8.25000033E-02   5.85748558E-14
   8.50000009E-02   6.67634283E-14
   8.74999985E-02   6.44021986E-14
   9.00000036E-02   3.97605092E-14
   9.25000012E-02  -1.78624544E-14
   9.49999988E-02  -1.08312996E-13
   9.74999964E-02  -2.13041932E-13
  0.100000001      -2.95097605E-13
  0.102499999      -3.08646717E-13
  0.104999997      -2.16184465E-13
  0.107500002      -8.61790548E-15
  0.109999999       2.78928383E-13
  0.112499997       5.64677808E-13
  0.115000002       7.39687012E-13
  0.117500000       7.10827176E-13
  0.119999997       4.54231786E-13
  0.122500002       5.05548870E-14
  0.125000000      -3.29819315E-13
  0.127499998      -5.03628172E-13
  0.129999995      -3.87077496E-13
  0.132499993      -8.21257735E-14
  0.135000005       1.28427894E-13
  0.137500003      -9.77893574E-14
  0.140000001      -9.66497390E-13
  0.142499998      -2.37106363E-12
  0.144999996      -3.83848942E-12
  0.147499993      -4.64777479E-12
  0.150000006      -4.09114019E-12
  0.152500004      -1.78124431E-12
  0.155000001       2.11592094E-12
  0.157499999       6.81803572E-12
  0.159999996       1.10732777E-11
  0.162499994       1.34910425E-11
  0.165000007       1.29687632E-11
  0.167500004       9.08015850E-12
  0.170000002       2.27732221E-12
  0.172499999      -6.19709275E-12
  0.174999997      -1.46855965E-11
  0.177499995      -2.16443738E-11
  0.180000007      -2.61006442E-11
  0.182500005      -2.78356123E-11
  0.185000002      -2.72292588E-11
  0.187500000      -2.48869449E-11
  0.189999998      -2.12808764E-11
  0.192499995      -1.66016922E-11
  0.194999993      -1.08486206E-11
  0.197500005      -4.00700436E-12
  0.200000003       3.90099194E-12
  0.202500001       1.30009259E-11
  0.204999998       2.38983104E-11
  0.207499996       3.79299023E-11
  0.209999993       5.71295199E-11
  0.212500006       8.38833794E-11
  0.215000004       1.20467164E-10
  0.217500001       1.68770373E-10
  0.219999999       2.30471142E-10
  0.222499996       3.07730452E-10
  0.224999994       4.04310335E-10
  0.227500007       5.26875654E-10
  0.230000004       6.86207979E-10
  0.232500002       8.98060848E-10
  0.234999999       1.18345023E-09
  0.237499997       1.56831859E-09
  0.239999995       2.08281370E-09
  0.242500007       2.76070233E-09
  0.245000005       3.63963393E-09
  0.247500002       4.76288387E-09
  0.250000000       6.18258555E-09
  0.252499998       7.96395039E-09
  0.254999995       1.01893294E-08
  0.257499993       1.29612525E-08
  0.259999990       1.64036624E-08
  0.262499988       2.06618083E-08
  0.264999986       2.59014392E-08
  0.267500013       3.23079874E-08
  0.270000011       4.00865972E-08
  0.272500008       4.94615620E-08
  0.275000006       6.06756885E-08
  0.277500004       7.39873300E-08
  0.280000001       8.96650718E-08
  0.282499999       1.07977840E-07
  0.284999996       1.29180435E-07
  0.287499994       1.53492564E-07
  0.289999992       1.81072721E-07
  0.292499989       2.11986631E-07
  0.294999987       2.46171794E-07
  0.297500014       2.83402045E-07
  0.300000012       3.23248003E-07
  0.302500010       3.65037323E-07
  0.305000007       4.07806994E-07
  0.307500005       4.50251406E-07
  0.310000002       4.90663183E-07
  0.312500000       5.26867495E-07
  0.314999998       5.56153850E-07
  0.317499995       5.75212482E-07
  0.319999993       5.80060032E-07
  0.322499990       5.65969515E-07
  0.324999988       5.27404154E-07
  0.327499986       4.57950335E-07
  0.330000013       3.50252350E-07
  0.332500011       1.95916996E-07
  0.335000008      -1.45139634E-08
  0.337500006      -2.91679356E-07
  0.340000004      -6.47454215E-07
  0.342500001      -1.09502741E-06
  0.344999999      -1.64898324E-06
  0.347499996      -2.32536945E-06
  0.349999994      -3.14177237E-06
  0.352499992      -4.11731116E-06
  0.354999989      -5.27274869E-06
  0.357499987      -6.63044011E-06
  0.360000014      -8.21445883E-06
  0.362500012      -1.00504494E-05
  0.365000010      -1.21656285E-05
  0.367500007      -1.45886243E-05
  0.370000005      -1.73494118E-05
  0.372500002      -2.04790013E-05
  0.375000000      -2.40093796E-05
  0.377499998      -2.79729429E-05
  0.379999995      -3.24025277E-05
  0.382499993      -3.73305666E-05
  0.384999990      -4.27888153E-05
  0.387499988      -4.88074256E-05
  0.389999986      -5.54145263E-05
  0.392500013      -6.26357723E-05
  0.395000011      -7.04929844E-05
  0.397500008      -7.90043923E-05
  0.400000006      -8.81836168E-05
  0.402500004      -9.80382756E-05
  0.405000001      -1.08570130E-04
  0.407499999      -1.19774355E-04
  0.409999996      -1.31638575E-04
  0.412499994      -1.44143210E-04
  0.414999992      -1.57260409E-04
  0.417499989      -1.70954911E-04
  0.419999987      -1.85182915E-04
  0.422500014      -1.99893111E-04
  0.425000012      -2.15026594E-04
  0.427500010      -2.30516947E-04
  0.430000007      -2.46291922E-04
  0.432500005      -2.62272282E-04
  0.435000002      -2.78374413E-04
  0.437500000      -2.94508965E-04
  0.439999998      -3.10584262E-04
  0.442499995      -3.26504465E-04
  0.444999993      -3.42171668E-04
  0.447499990      -3.57487414E-04
  0.449999988      -3.72350158E-04
  0.452499986      -3.86658154E-04
  0.455000013      -4.00309742E-04
  0.457500011      -4.13201429E-04
  0.460000008      -4.25231789E-04
  0.462500006      -4.36296454E-04
  0.465000004      -4.46292222E-04
  0.467500001      -4.55112720E-04
  0.469999999      -4.62650030E-04
  0.472499996      -4.68793034E-04
  0.474999994      -4.73426539E-04
  0.477499992      -4.76433168E-04
  0.479999989      -4.77693044E-04
  0.482499987      -4.77076712E-04
  0.485000014      -4.74452972E-04
  0.487500012      -4.69684339E-04
  0.490000010      -4.62636002E-04
  0.492500007      -4.53163608E-04
  0.495000005      -4.41126060E-04
  0.497500002      -4.26381070E-04
  0.500000000      -4.08792053E-04
  0.502499998      -3.88229615E-04
  0.504999995      -3.64575331E-04
  0.507499993      -3.37726146E-04
  0.509999990      -3.07601033E-04
  0.512499988      -2.74142600E-04
  0.514999986      -2.37320637E-04
  0.517499983      -1.97141751E-04
  0.519999981      -1.53651665E-04
  0.522499979      -1.06939151E-04
  0.524999976      -5.71431883E-05
  0.527499974      -4.45269688E-06
  0.529999971       5.08896264E-05
  0.532500029       1.08590568E-04
  0.535000026       1.68307262E-04
  0.537500024       2.29644022E-04
  0.540000021       2.92159937E-04
  0.542500019       3.55370139E-04
  0.545000017       4.18750918E-04
  0.547500014       4.81752068E-04
  0.550000012       5.43805247E-04
  0.552500010       6.04336266E-04
  0.555000007       6.62774255E-04
  0.557500005       7.18562689E-04
  0.560000002       7.71168212E-04
  0.562500000       8.20091809E-04
  0.564999998       8.64879752E-04
  0.567499995       9.05135181E-04
  0.569999993       9.40523576E-04
  0.572499990       9.70784458E-04
  0.574999988       9.95731680E-04
  0.577499986       1.01526000E-03
  0.579999983       1.02934474E-03
  0.582499981       1.03803817E-03
  0.584999979       1.04147254E-03
  0.587499976       1.03984762E-03
  0.589999974       1.03343220E-03
  0.592499971       1.02254620E-03
  0.595000029       1.00755773E-03
  0.597500026       9.88874701E-04
  0.600000024       9.66930180E-04
  0.602500021       9.42178944E-04
  0.605000019       9.15081939E-04
  0.607500017       8.86094698E-04
  0.610000014       8.55661405E-04
  0.612500012       8.24198767E-04
  0.615000010       7.92095787E-04
  0.617500007       7.59713701E-04
  0.620000005       7.27369799E-04
  0.622500002       6.95345225E-04
  0.625000000       6.63886720E-04
  0.627499998       6.33187999E-04
  0.629999995       6.03407505E-04
  0.632499993       5.74661768E-04
  0.634999990       5.47036354E-04
  0.637499988       5.20579051E-04
  0.639999986       4.95316111E-04
  0.642499983       4.71244013E-04
  0.644999981       4.48343548E-04
  0.647499979       4.26578918E-04
  0.649999976       4.05907107E-04
  0.652499974       3.86276603E-04
  0.654999971       3.67636065E-04
  0.657500029       3.49932874E-04
  0.660000026       3.33112053E-04
  0.662500024       3.17120954E-04
  0.665000021       3.01905820E-04
  0.667500019       2.87435512E-04
  0.670000017       2.73677811E-04
  0.672500014       2.60611152E-04
  0.675000012       2.48216384E-04
  0.677500010       2.36472071E-04
  0.680000007       2.25361393E-04
  0.682500005       2.14864063E-04
  0.685000002       2.04983662E-04
  0.687500000       1.95714209E-04
  0.689999998       1.87066471E-04
  0.692499995       1.79034454E-04
  0.694999993       1.71607418E-04
  0.697499990       1.64766228E-04
  0.699999988       1.58484560E-04
  0.702499986       1.52742112E-04
  0.704999983       1.47519750E-04
  0.707499981       1.42804318E-04
  0.709999979       1.38579082E-04
  0.712499976       1.34812959E-04
  0.714999974       1.31466484E-04
  0.717499971       1.28493048E-04
  0.720000029       1.25847189E-04
  0.722500026       1.23484700E-04
  0.725000024       1.21372075E-04
  0.727500021       1.19478260E-04
  0.730000019       1.17776923E-04
  0.732500017       1.16238189E-04
  0.735000014       1.14834562E-04
  0.737500012       1.13537346E-04
  0.740000010       1.12317837E-04
  0.742500007       1.11164081E-04
  0.745000005       1.10055771E-04
  0.747500002       1.08976143E-04
  0.750000000       1.07921631E-04
  0.752499998       1.06888634E-04
  0.754999995       1.05883140E-04
  0.757499993       1.04918290E-04
  0.759999990       1.03997685E-04
  0.762499988       1.03115934E-04
  0.764999986       1.02272439E-04
  0.767499983       1.01459438E-04
  0.769999981       1.00673926E-04
  0.772499979       9.99195108E-05
  0.774999976       9.92087225E-05
  0.777499974       9.85529405E-05
  0.779999971       9.79467732E-05
  0.782500029       9.73776696E-05
  0.785000026       9.68288950E-05
  0.787500024       9.62890845E-05
  0.790000021       9.57510638E-05
  0.792500019       9.52214177E-05
  0.795000017       9.47037188E-05
  0.797500014       9.41991821E-05
  0.800000012       9.37006189E-05
  0.802500010       9.31918912E-05
  0.805000007       9.26574648E-05
  0.807500005       9.21032988E-05
  0.810000002       9.15347919E-05
  0.812500000       9.09722658E-05
  0.814999998       9.04240878E-05
  0.817499995       8.98962317E-05
  0.819999993       8.93749529E-05
  0.822499990       8.88506838E-05
  0.824999988       8.83162575E-05
  0.827499986       8.77806306E-05
  0.829999983       8.72527671E-05
  0.832499981       8.67386625E-05
  0.834999979       8.62365123E-05
  0.837499976       8.57385530E-05
  0.839999974       8.52280282E-05
  0.842499971       8.47019692E-05
  0.845000029       8.41525907E-05
  0.847500026       8.35715327E-05
  0.850000024       8.29587880E-05
  0.852500021       8.23089867E-05
  0.855000019       8.16167303E-05
  0.857500017       8.08808472E-05
  0.860000014       8.01049027E-05
  0.862500012       7.92924911E-05
  0.865000010       7.84478107E-05
  0.867500007       7.75696390E-05
  0.870000005       7.66532175E-05
  0.872500002       7.57021189E-05
  0.875000000       7.47217346E-05
  0.877499998       7.37269947E-05
  0.879999995       7.27406295E-05
  0.882499993       7.17805669E-05
  0.884999990       7.08527878E-05
  0.887499988       6.99572847E-05
  0.889999986       6.90868910E-05
  0.892499983       6.82415994E-05
  0.894999981       6.74285984E-05
  0.897499979       6.66628257E-05
  0.899999976       6.59526413E-05
  0.902499974       6.53016396E-05
  0.904999971       6.47104171E-05
  0.907500029       6.41652223E-05
  0.910000026       6.36553013E-05
  0.912500024       6.31722796E-05
  0.915000021       6.27149639E-05
  0.917500019       6.22833541E-05
  0.920000017       6.18702761E-05
  0.922500014       6.14661622E-05
  0.925000012       6.10608622E-05
  0.927500010       6.06531612E-05
  0.930000007       6.02448636E-05
  0.932500005       5.98401530E-05
  0.935000002       5.94485973E-05
  0.937500000       5.90672025E-05
  0.939999998       5.86887982E-05
  0.942499995       5.83062065E-05
  0.944999993       5.79230182E-05
  0.947499990       5.75499907E-05
  0.949999988       5.72020763E-05
  0.952499986       5.68894247E-05
  0.954999983       5.66150375E-05
  0.957499981       5.63735266E-05
  0.959999979       5.61625056E-05
  0.962499976       5.59807704E-05
  0.964999974       5.58373031E-05
  0.967499971       5.57428502E-05
  0.970000029       5.57015992E-05
  0.972500026       5.57063831E-05
  0.975000024       5.57458370E-05
  0.977500021       5.58092033E-05
  0.980000019       5.58881147E-05
  0.982500017       5.59855544E-05
  0.985000014       5.61063098E-05
  0.987500012       5.62557616E-05
  0.990000010       5.64273287E-05
  0.992500007       5.66150375E-05
  0.995000005       5.68045398E-05
  0.997500002       5.69916483E-05
   1.00000000       5.71751734E-05
   1.00250006       5.73563048E-05
   1.00500000       5.75404265E-05
   1.00750005       5.77305254E-05
   1.00999999       5.79224215E-05
   1.01250005       5.81131171E-05
   1.01499999       5.83008259E-05
   1.01750004       5.84945155E-05
   1.01999998       5.86953720E-05
   1.02250004       5.89099800E-05
   1.02499998       5.91335593E-05
   1.02750003       5.93631121E-05
   1.02999997       5.95974489E-05
   1.03250003       5.98395600E-05
   1.03499997       6.00942185E-05
   1.03750002       6.03644221E-05
   1.03999996       6.06465874E-05
   1.04250002       6.09317322E-05
   1.04499996       6.12126969E-05
   1.04750001       6.14900782E-05
   1.04999995       6.17722399E-05
   1.05250001       6.20669525E-05
   1.05499995       6.23796004E-05
   1.05750000       6.27036134E-05
   1.05999994       6.30222348E-05
   1.06250000       6.33229283E-05
   1.06500006       6.35949182E-05
   1.06750000       6.38436104E-05
   1.07000005       6.40815269E-05
   1.07249999       6.43206513E-05
   1.07500005       6.45609616E-05
   1.07749999       6.47961933E-05
   1.08000004       6.50117072E-05
   1.08249998       6.51979208E-05
   1.08500004       6.53545430E-05
   1.08749998       6.54887481E-05
   1.09000003       6.56106931E-05
   1.09249997       6.57248747E-05
   1.09500003       6.58312856E-05
   1.09749997       6.59287252E-05
   1.10000002       6.60154037E-05
   1.10249996       6.60981968E-05
   1.10500002       6.61833910E-05
   1.10749996       6.62763414E-05
   1.11000001       6.63788669E-05
   1.11249995       6.64852705E-05
   1.11500001       6.65898842E-05
   1.11749995       6.66915148E-05
   1.12000000       6.67964341E-05
   1.12249994       6.69126966E-05
   1.12500000       6.70460067E-05
   1.12750006       6.71924718E-05
   1.13000000       6.73434188E-05
   1.13250005       6.74889743E-05
   1.13499999       6.76210911E-05
   1.13750005       6.77409480E-05
   1.13999999       6.78551296E-05
   1.14250004       6.79672157E-05
   1.14499998       6.80745216E-05
   1.14750004       6.81737511E-05
   1.14999998       6.82556565E-05
   1.15250003       6.83166290E-05
   1.15499997       6.83632534E-05
   1.15750003       6.84012193E-05
   1.15999997       6.84317056E-05
   1.16250002       6.84550178E-05
   1.16499996       6.84630941E-05
   1.16750002       6.84523256E-05
   1.16999996       6.84245315E-05
   1.17250001       6.83892649E-05
   1.17499995       6.83557810E-05
   1.17750001       6.83342660E-05
   1.17999995       6.83220132E-05
   1.18250000       6.83148392E-05
   1.18499994       6.83010803E-05
   1.18750000       6.82786631E-05
   1.19000006       6.82529644E-05
   1.19250000       6.82314421E-05
   1.19500005       6.82236714E-05
   1.19749999       6.82311438E-05
   1.20000005       6.82502723E-05
   1.20249999       6.82750833E-05
   1.20500004       6.83037724E-05
   1.20749998       6.83369581E-05
   1.21000004       6.83731196E-05
   1.21249998       6.84122788E-05
   1.21500003       6.84496408E-05
   1.21749997       6.84783372E-05
   1.22000003       6.84962652E-05
   1.22249997       6.85088235E-05
   1.22500002       6.85222694E-05
   1.22749996       6.85461855E-05
   1.23000002       6.85796622E-05
   1.23249996       6.86158237E-05
   1.23500001       6.86430285E-05
   1.23749995       6.86546846E-05
   1.24000001       6.86534840E-05
   1.24249995       6.86517014E-05
   1.24500000       6.86594649E-05
   1.24749994       6.86839776E-05
   1.25000000       6.87243300E-05
   1.25250006       6.87736465E-05
   1.25500000       6.88307409E-05
   1.25750005       6.88953005E-05
   1.25999999       6.89727167E-05
   1.26250005       6.90698580E-05
   1.26499999       6.91843306E-05
   1.26750004       6.93128604E-05
   1.26999998       6.94476621E-05
   1.27250004       6.95863491E-05
   1.27499998       6.97337091E-05
   1.27750003       6.98945150E-05
   1.27999997       7.00735545E-05
   1.28250003       7.02681355E-05
   1.28499997       7.04669073E-05
   1.28750002       7.06567080E-05
   1.28999996       7.08267762E-05
   1.29250002       7.09798187E-05
   1.29499996       7.11211978E-05
   1.29750001       7.12625770E-05
   1.29999995       7.14042544E-05
   1.30250001       7.15423521E-05
   1.30499995       7.16663853E-05
   1.30750000       7.17713046E-05
   1.30999994       7.18582814E-05
   1.31250000       7.19315140E-05
   1.31500006       7.19993623E-05
   1.31750000       7.20636235E-05
   1.32000005       7.21225078E-05
   1.32249999       7.21709366E-05
   1.32500005       7.22059049E-05
   1.32749999       7.22310069E-05
   1.33000004       7.22528348E-05
   1.33249998       7.22767363E-05
   1.33500004       7.23057310E-05
   1.33749998       7.23371195E-05
   1.34000003       7.23643170E-05
   1.34249997       7.23825506E-05
   1.34500003       7.23897247E-05
   1.34749997       7.23903213E-05
   1.35000002       7.23873382E-05
   1.35249996       7.23819539E-05
   1.35500002       7.23735793E-05
   1.35749996       7.23559497E-05
   1.36000001       7.23281482E-05
   1.36249995       7.22907862E-05
   1.36500001       7.22456607E-05
   1.36749995       7.21927499E-05
   1.37000000       7.21323740E-05
   1.37249994       7.20633252E-05
   1.37500000       7.19826276E-05
   1.37750006       7.18917581E-05
   1.38000000       7.17940202E-05
   1.38250005       7.16971772E-05
   1.38499999       7.16006325E-05
   1.38750005       7.15046845E-05
   1.38999999       7.14045527E-05
   1.39250004       7.13011323E-05
   1.39499998       7.11995090E-05
   1.39750004       7.11041575E-05
   1.39999998       7.10204695E-05
   1.40250003       7.09496308E-05
   1.40499997       7.08832740E-05
   1.40750003       7.08145235E-05
   1.40999997       7.07386062E-05
   1.41250002       7.06602950E-05
   1.41499996       7.05867715E-05
   1.41750002       7.05287748E-05
   1.41999996       7.04875347E-05
   1.42250001       7.04576451E-05
   1.42499995       7.04280537E-05
   1.42750001       7.03885962E-05
   1.42999995       7.03330079E-05
   1.43250000       7.02639591E-05
   1.43499994       7.01880344E-05
   1.43750000       7.01097233E-05
   1.44000006       7.00302189E-05
   1.44250000       6.99459270E-05
   1.44500005       6.98541699E-05
   1.44749999       6.97564246E-05
   1.45000005       6.96550997E-05
   1.45249999       6.95567578E-05
   1.45500004       6.94623086E-05
   1.45749998       6.93711409E-05
   1.46000004       6.92802787E-05
   1.46249998       6.91849273E-05
   1.46500003       6.90877860E-05
   1.46749997       6.89909430E-05
   1.47000003       6.89036679E-05
   1.47249997       6.88310392E-05
   1.47500002       6.87730426E-05
   1.47749996       6.87258216E-05
   1.48000002       6.86818821E-05
   1.48249996       6.86355561E-05
   1.48500001       6.85844498E-05
   1.48749995       6.85273553E-05
   1.49000001       6.84636907E-05
   1.49249995       6.83949402E-05
   1.49500000       6.83223116E-05
   1.49749994       6.82457903E-05
   1.50000000       6.81662787E-05
   1.50250006       6.80828962E-05
   1.50500000       6.79950099E-05
   1.50750005       6.78993674E-05
   1.50999999       6.77953503E-05
   1.51250005       6.76847558E-05
   1.51499999       6.75732663E-05
   1.51750004       6.74671610E-05
   1.51999998       6.73673203E-05
   1.52250004       6.72737733E-05
   1.52499998       6.71814123E-05
   1.52750003       6.70902446E-05
   1.52999997       6.70002846E-05
   1.53250003       6.69162910E-05
   1.53499997       6.68427601E-05
   1.53750002       6.67805871E-05
   1.53999996       6.67279819E-05
   1.54250002       6.66777705E-05
   1.54499996       6.66236665E-05
   1.54750001       6.65656844E-05
   1.54999995       6.65047046E-05
   1.55250001       6.64491090E-05
   1.55499995       6.64003892E-05
   1.55750000       6.63579413E-05
   1.55999994       6.63169994E-05
   1.56250000       6.62694656E-05
   1.56500006       6.62144739E-05
   1.56750000       6.61564845E-05
   1.57000005       6.61038794E-05
   1.57249999       6.60626320E-05
   1.57500005       6.60357327E-05
   1.57749999       6.60180958E-05
   1.58000004       6.60013538E-05
   1.58249998       6.59783400E-05
   1.58500004       6.59499492E-05
   1.58749998       6.59182624E-05
   1.59000003       6.58925637E-05
   1.59249997       6.58776189E-05
   1.59500003       6.58755234E-05
   1.59749997       6.58853896E-05
   1.60000002       6.59006328E-05
   1.60249996       6.59179641E-05
   1.60500002       6.59317157E-05
   1.60749996       6.59418729E-05
   1.61000001       6.59484504E-05
   1.61249995       6.59547295E-05
   1.61500001       6.59616053E-05
   1.61749995       6.59717698E-05
   1.62000000       6.59858124E-05
   1.62249994       6.60028527E-05
   1.62500000       6.60222795E-05
   1.62750006       6.60399164E-05
   1.63000000       6.60560545E-05
   1.63250005       6.60707010E-05
   1.63499999       6.60838559E-05
   1.63750005       6.60970036E-05
   1.63999999       6.61074664E-05
   1.64250004       6.61110607E-05
   1.64499998       6.61038794E-05
   1.64750004       6.60877413E-05
   1.64999998       6.60653241E-05
   1.65250003       6.60414153E-05
   1.65499997       6.60213846E-05
   1.65750003       6.60050937E-05
   1.65999997       6.59873112E-05
   1.66250002       6.59604120E-05
   1.66499996       6.59173675E-05
   1.66750002       6.58592326E-05
   1.66999996       6.57921264E-05
   1.67250001       6.57272685E-05
   1.67499995       6.56698830E-05
   1.67750001       6.56225020E-05
   1.67999995       6.55799158E-05
   1.68250000       6.55361218E-05
   1.68499994       6.54884498E-05
   1.68750000       6.54386822E-05
   1.69000006       6.53922034E-05
   1.69250000       6.53531897E-05
   1.69500005       6.53219613E-05
   1.69749999       6.52964081E-05
   1.70000005       6.52733870E-05
   1.70249999       6.52511226E-05
   1.70500004       6.52328890E-05
   1.70749998       6.52234739E-05
   1.71000004       6.52257149E-05
   1.71249998       6.52397648E-05
   1.71500003       6.52605377E-05
   1.71749997       6.52857925E-05
   1.72000003       6.53137467E-05
   1.72249997       6.53484167E-05
   1.72500002       6.53932511E-05
   1.72749996       6.54504911E-05
   1.73000002       6.55181866E-05
   1.73249996       6.55933618E-05
   1.73500001       6.56713746E-05
   1.73749995       6.57523779E-05
   1.74000001       6.58399513E-05
   1.74249995       6.59354555E-05
   1.74500000       6.60400692E-05
   1.74749994       6.61505037E-05
   1.75000000       6.62610983E-05
   1.75250006       6.63651226E-05
   1.75500000       6.64612162E-05
   1.75750005       6.65484913E-05
   1.75999999       6.66290434E-05
   1.76250005       6.67030254E-05
   1.76499999       6.67669883E-05
   1.76750004       6.68182474E-05
   1.76999998       6.68539724E-05
   1.77250004       6.68742941E-05
   1.77499998       6.68805660E-05
   1.77750003       6.68730936E-05
   1.77999997       6.68511275E-05
   1.78250003       6.68128705E-05
   1.78499997       6.67560744E-05
   1.78750002       6.66824053E-05
   1.78999996       6.65973566E-05
   1.79250002       6.65072439E-05
   1.79499996       6.64156323E-05
   1.79750001       6.63232713E-05
   1.79999995       6.62276288E-05
   1.80250001       6.61280865E-05
   1.80499995       6.60278092E-05
   1.80750000       6.59351572E-05
   1.80999994       6.58581848E-05
   1.81250000       6.58001954E-05
   1.81500006       6.57599958E-05
   1.81750000       6.57302517E-05
   1.82000005       6.57060518E-05
   1.82249999       6.56873672E-05
   1.82500005       6.56800403E-05
   1.82749999       6.56937918E-05
   1.83000004       6.57332421E-05
   1.83249998       6.57945202E-05
   1.83500004       6.58668505E-05
   1.83749998       6.59388897E-05
   1.84000003       6.60022561E-05
   1.84249997       6.60584483E-05
   1.84500003       6.61146405E-05
   1.84749997       6.61783124E-05
   1.85000002       6.62525854E-05
   1.85249996       6.63346364E-05
   1.85500002       6.64148829E-05
   1.85749996       6.64863255E-05
   1.86000001       6.65444604E-05
   1.86249995       6.65912376E-05
   1.86500001       6.66315827E-05
   1.86749995       6.66707419E-05
   1.87000000       6.67118438E-05
   1.87249994       6.67560744E-05
   1.87500000       6.68025532E-05
   1.87750006       6.68494831E-05
   1.88000000       6.68956709E-05
   1.88250005       6.69403526E-05
   1.88499999       6.69847359E-05
   1.88750005       6.70313602E-05
   1.88999999       6.70841182E-05
   1.89250004       6.71455418E-05
   1.89499998       6.72142924E-05
   1.89750004       6.72875176E-05
   1.89999998       6.73591057E-05
   1.90250003       6.74257608E-05
   1.90499997       6.74858384E-05
   1.90750003       6.75438278E-05
   1.90999997       6.76053969E-05
   1.91250002       6.76748896E-05
   1.91499996       6.77518547E-05
   1.91750002       6.78292708E-05
   1.91999996       6.78966826E-05
   1.92250001       6.79471923E-05
   1.92499995       6.79809673E-05
   1.92750001       6.80056182E-05
   1.92999995       6.80335725E-05
   1.93250000       6.80725789E-05
   1.93499994       6.81242891E-05
   1.93750000       6.81818201E-05
   1.94000006       6.82332393E-05
   1.94250000       6.82717946E-05
   1.94500005       6.82979444E-05
   1.94749999       6.83199178E-05
   1.95000005       6.83489125E-05
   1.95249999       6.83931430E-05
   1.95500004       6.84527768E-05
   1.95749998       6.85204795E-05
   1.96000004       6.85854902E-05
   1.96249998       6.86410785E-05
   1.96500003       6.86871135E-05
   1.96749997       6.87309002E-05
   1.97000003       6.87815700E-05
   1.97249997       6.88446307E-05
   1.97500002       6.89187582E-05
   1.97749996       6.89969238E-05
   1.98000002       6.90694069E-05