 -0.159999996       0.00000000    
 -0.157499999       0.00000000    
 -0.155000001       0.00000000    
 -0.152500004       0.00000000    
 -0.150000006       0.00000000    
 -0.147499993       0.00000000    
 -0.144999996       0.00000000    
 -0.142499998       0.00000000    
 -0.140000001       0.00000000    
 -0.137500003       0.00000000    
 -0.135000005       0.00000000    
 -0.132499993       0.00000000    
 -0.129999995       0.00000000    
 -0.127499998       0.00000000    
 -0.125000000       0.00000000    
 -0.122500002       0.00000000    
 -0.119999997       0.00000000    
 -0.117500000       0.00000000    
 -0.115000002       1.62601153E-38
 -0.112499997      -4.33060893E-38
 -0.109999999      -2.43272498E-37
 -0.107500002       2.87419342E-37
 -0.104999997       2.22472404E-36
 -0.102499999      -3.35982831E-37
 -0.100000001      -1.24894596E-35
  -9.74999964E-02  -3.41013214E-36
  -9.49999988E-02   5.26750728E-35
  -9.25000012E-02  -7.09988920E-37
  -9.00000036E-02  -3.02504471E-34
  -8.74999985E-02  -3.96215323E-35
  -8.50000009E-02   1.95668216E-33
  -8.25000033E-02   2.50200666E-33
  -7.99999982E-02  -6.89026299E-33
  -7.75000006E-02  -2.17397453E-32
  -7.50000030E-02  -3.48576393E-33
  -7.24999979E-02   7.84042331E-32
  -7.00000003E-02   1.32883782E-31
  -6.75000027E-02  -5.12351967E-32
  -6.49999976E-02  -4.83975145E-31
  -6.25000000E-02  -6.07175934E-31
  -5.99999987E-02   3.44944186E-31
  -5.75000010E-02   2.07478025E-30
  -5.49999997E-02   2.47515344E-30
  -5.24999984E-02  -7.28518642E-31
  -5.00000007E-02  -6.58935640E-30
  -4.74999994E-02  -9.55771097E-30
  -4.50000018E-02  -3.02420109E-30
  -4.25000004E-02   1.41104687E-29
  -3.99999991E-02   3.26987967E-29
  -3.75000015E-02   3.35827654E-29
  -3.50000001E-02  -4.76099136E-30
  -3.24999988E-02  -8.57837364E-29
  -2.99999993E-02  -1.63314646E-28
  -2.74999999E-02  -1.30397097E-28
  -2.50000004E-02   1.15130106E-28
  -2.25000009E-02   5.16949497E-28
  -1.99999996E-02   7.38371785E-28
  -1.75000001E-02   2.90819562E-28
  -1.49999997E-02  -9.93391102E-28
  -1.25000002E-02  -2.42890908E-27
  -9.99999978E-03  -2.50172252E-27
  -7.49999983E-03   1.14658807E-28
  -4.99999989E-03   4.94363529E-27
  -2.49999994E-03   8.81274342E-27
   0.00000000       7.08645230E-27
   2.49999994E-03  -2.85698842E-27
   4.99999989E-03  -1.78274861E-26
   7.49999983E-03  -2.79024170E-26
   9.99999978E-03  -2.07378513E-26
   1.25000002E-02   9.58305146E-27
   1.49999997E-02   5.36760681E-26
   1.75000001E-02   8.47594989E-26
   1.99999996E-02   6.87955920E-26
   2.25000009E-02  -1.35426956E-26
   2.50000004E-02  -1.42490935E-25
   2.74999999E-02  -2.49416075E-25
   2.99999993E-02  -2.38127944E-25
   3.24999988E-02  -4.00668987E-26
   3.50000001E-02   3.18105251E-25
   3.75000015E-02   6.77593011E-25
   3.99999991E-02   7.84627976E-25
   4.25000004E-02   4.13324288E-25
   4.50000018E-02  -4.68257578E-25
   4.74999994E-02  -1.57744058E-24
   5.00000007E-02  -2.33490541E-24
   5.24999984E-02  -2.06501283E-24
   5.49999997E-02  -3.38110690E-25
   5.75000010E-02   2.66517603E-24
   5.99999987E-02   5.93128264E-24
   6.25000000E-02   7.69573966E-24
   6.49999976E-02   5.95067403E-24
   6.75000027E-02  -6.00710874E-25
   7.00000003E-02  -1.13156890E-23
   7.24999979E-02  -2.25866591E-23
   7.50000030E-02  -2.78150998E-23
   7.75000006E-02  -1.92619891E-23
   7.99999982E-02   7.84653121E-24
   8.25000033E-02   4.98504588E-23
   8.50000009E-02   9.04890480E-23
   8.74999985E-02   1.02040363E-22
   9.00000036E-02   5.52651716E-23
   9.25000012E-02  -6.18640373E-23
   9.49999988E-02  -2.22996488E-22
   9.74999964E-02  -3.52795611E-22
  0.100000001      -3.42208391E-22
  0.102499999      -9.80123135E-23
  0.104999997       3.82846390E-22
  0.107500002       9.47496820E-22
  0.109999999       1.28059322E-21
  0.112499997       1.00181760E-21
  0.115000002      -1.27672518E-22
  0.117500000      -1.95395530E-21
  0.119999997      -3.76871121E-21
  0.122500002      -4.39830753E-21
  0.125000000      -2.64411777E-21
  0.127499998       1.98528174E-21
  0.129999995       8.52514958E-21
  0.132499993       1.42335925E-20
  0.135000005       1.51386250E-20
  0.137500003       7.62483618E-21
  0.140000001      -9.27863276E-21
  0.142499998      -3.18238451E-20
  0.144999996      -5.09460669E-20
  0.147499993      -5.42219218E-20
  0.150000006      -3.06133470E-20
  0.152500004       2.31229374E-20
  0.155000001       9.68281469E-20
  0.157499999       1.65262841E-19
  0.159999996       1.92868895E-19
  0.162499994       1.45449087E-19
  0.165000007       6.26320440E-21
  0.167500004      -2.08829320E-19
  0.170000002      -4.44032362E-19
  0.172499999      -6.10022592E-19
  0.174999997      -6.06476624E-19
  0.177499995      -3.57565958E-19
  0.180000007       1.48665074E-19
  0.182500005       8.30466432E-19
  0.185000002       1.50642390E-18
  0.187500000       1.92395758E-18
  0.189999998       1.82432058E-18
  0.192499995       1.03404153E-18
  0.194999993      -4.40313875E-19
  0.197500005      -2.34713202E-18
  0.200000003      -4.18961149E-18
  0.202500001      -5.31534971E-18
  0.204999998      -5.09613692E-18
  0.207499996      -3.16305139E-18
  0.209999993       3.74387296E-19
  0.212500006       4.81807478E-18
  0.215000004       8.96351771E-18
  0.217500001       1.14067925E-17
  0.219999999       1.10223397E-17
  0.222499996       7.46252157E-18
  0.224999994       1.46797934E-18
  0.227500007      -5.20742869E-18
  0.230000004      -1.03404624E-17
  0.232500002      -1.21423852E-17
  0.234999999      -1.02080688E-17
  0.237499997      -6.06968507E-18
  0.239999995      -2.95527210E-18
  0.242500007      -4.59436378E-18
  0.245000005      -1.33062085E-17
  0.247500002      -2.80177687E-17
  0.250000000      -4.31105359E-17
  0.252499998      -4.89319849E-17
  0.254999995      -3.43698838E-17
  0.257499993       8.84256406E-18
  0.259999990       8.12255826E-17
  0.262499988       1.71769983E-16
  0.264999986       2.57071376E-16
  0.267500013       3.04631614E-16
  0.270000011       2.80459279E-16
  0.272500008       1.59687892E-16
  0.275000006      -6.23634029E-17
  0.277500004      -3.62010711E-16
  0.280000001      -6.85113335E-16
  0.282499999      -9.53196669E-16
  0.284999996      -1.07803196E-15
  0.287499994      -9.82595806E-16
  0.289999992      -6.24121298E-16
  0.292499989      -1.34406683E-17
  0.294999987       7.75434205E-16
  0.297500014       1.61016845E-15
  0.300000012       2.32101109E-15
  0.302500010       2.73505372E-15
  0.305000007       2.71662440E-15
  0.307500005       2.20325022E-15
  0.310000002       1.22603615E-15
  0.312500000      -9.36052338E-17
  0.314999998      -1.57225409E-15
  0.317499995      -3.01056135E-15
  0.319999993      -4.24206763E-15
  0.322499990      -5.16615644E-15
  0.324999988      -5.74965710E-15
  0.327499986      -5.99188650E-15
  0.330000013      -5.86299604E-15
  0.332500011      -5.24047807E-15
  0.335000008      -3.87735049E-15
  0.337500006      -1.43270700E-15
  0.340000004       2.42099804E-15
  0.342500001       7.82667252E-15
  0.344999999       1.45500423E-14
  0.347499996       2.18310511E-14
  0.349999994       2.83488239E-14
  0.352499992       3.23507802E-14
  0.354999989       3.19554326E-14
  0.357499987       2.55857245E-14
  0.360000014       1.24410683E-14
  0.362500012      -7.11157343E-15
  0.365000010      -3.13426958E-14
  0.367500007      -5.72377296E-14
  0.370000005      -8.08598251E-14
  0.372500002      -9.79400819E-14
  0.375000000      -1.04580597E-13
  0.377499998      -9.79289688E-14
  0.379999995      -7.66923824E-14
  0.382499993      -4.14020353E-14
  0.384999990       5.60087365E-15
  0.387499988       6.04247216E-14
  0.389999986       1.18053476E-13
  0.392500013       1.72840014E-13
  0.395000011       2.18973968E-13
  0.397500008       2.50862997E-13
  0.400000006       2.63411797E-13
  0.402500004       2.52233455E-13
  0.405000001       2.13866888E-13
  0.407499999       1.46096988E-13
  0.409999996       4.84559631E-14
  0.412499994      -7.70703285E-14
  0.414999992      -2.25207534E-13
  0.417499989      -3.86627281E-13
  0.419999987      -5.47558147E-13
  0.422500014      -6.90128781E-13
  0.425000012      -7.93732701E-13
  0.427500010      -8.37508665E-13
  0.430000007      -8.03722919E-13
  0.432500005      -6.81488232E-13
  0.435000002      -4.69981205E-13
  0.437500000      -1.80233107E-13
  0.439999998       1.65251954E-13
  0.442499995       5.35353825E-13
  0.444999993       8.95363590E-13
  0.447499990       1.21328132E-12
  0.449999988       1.46609027E-12
  0.452499986       1.64466401E-12
  0.455000013       1.75630094E-12
  0.457500011       1.82448653E-12
  0.460000008       1.88617806E-12
  0.462500006       1.98745252E-12
  0.465000004       2.17858912E-12
  0.467500001       2.50949175E-12
  0.469999999       3.02598268E-12
  0.472499996       3.76697198E-12
  0.474999994       4.76226957E-12
  0.477499992       6.03085290E-12
  0.479999989       7.57973372E-12
  0.482499987       9.40423781E-12
  0.485000014       1.14910139E-11
  0.487500012       1.38253384E-11
  0.490000010       1.64042183E-11
  0.492500007       1.92564610E-11
  0.495000005       2.24700848E-11
  0.497500002       2.62264481E-11
  0.500000000       3.08394837E-11
  0.502499998       3.67963542E-11
  0.504999995       4.47943384E-11
  0.507499993       5.57668529E-11
  0.509999990       7.08893153E-11
  0.512499988       9.15568385E-11
  0.514999986       1.19323079E-10
  0.517499983       1.55794364E-10
  0.519999981       2.02472580E-10
  0.522499979       2.60544808E-10
  0.524999976       3.30620142E-10
  0.527499974       4.12417406E-10
  0.529999971       5.04410791E-10
  0.532500029       6.03442629E-10
  0.535000026       7.04318215E-10
  0.537500024       7.99390887E-10
  0.540000021       8.78164763E-10
  0.542500019       9.26925370E-10
  0.545000017       9.28428112E-10
  0.547500014       8.61679006E-10
  0.550000012       7.01831759E-10
  0.552500010       4.20229629E-10
  0.555000007      -1.54036766E-11
  0.557500005      -6.40625109E-10
  0.560000002      -1.49381818E-09
  0.562500000      -2.61568633E-09
  0.564999998      -4.04873912E-09
  0.567499995      -5.83689275E-09
  0.569999993      -8.02535371E-09
  0.572499990      -1.06608802E-08
  0.574999988      -1.37926763E-08
  0.577499986      -1.74741288E-08
  0.579999983      -2.17656524E-08
  0.582499981      -2.67389009E-08
  0.584999979      -3.24824327E-08
  0.587499976      -3.91093451E-08
  0.589999974      -4.67665799E-08
  0.592499971      -5.56464421E-08
  0.595000029      -6.59997283E-08
  0.597500026      -7.81513307E-08
  0.600000024      -9.25171690E-08
  0.602500021      -1.09622363E-07
  0.605000019      -1.30120895E-07
  0.607500017      -1.54815126E-07
  0.610000014      -1.84674761E-07
  0.612500012      -2.20853195E-07
  0.615000010      -2.64701612E-07
  0.617500007      -3.17778927E-07
  0.620000005      -3.81855727E-07
  0.622500002      -4.58911842E-07
  0.625000000      -5.51124458E-07
  0.627499998      -6.60847149E-07
  0.629999995      -7.90578554E-07
  0.632499993      -9.42918120E-07
  0.634999990      -1.12051305E-06
  0.637499988      -1.32598984E-06
  0.639999986      -1.56187582E-06
  0.642499983      -1.83050770E-06
  0.644999981      -2.13392696E-06
  0.647499979      -2.47376829E-06
  0.649999976      -2.85114697E-06
  0.652499974      -3.26654003E-06
  0.654999971      -3.71967030E-06
  0.657500029      -4.20939659E-06
  0.660000026      -4.73360706E-06
  0.662500024      -5.28912506E-06
  0.665000021      -5.87161367E-06
  0.667500019      -6.47551224E-06
  0.670000017      -7.09400138E-06
  0.672500014      -7.71897430E-06
  0.675000012      -8.34106231E-06
  0.677500010      -8.94967070E-06
  0.680000007      -9.53304789E-06
  0.682500005      -1.00783564E-05
  0.685000002      -1.05717654E-05
  0.687500000      -1.09985240E-05
  0.689999998      -1.13431224E-05
  0.692499995      -1.15894081E-05
  0.694999993      -1.17207192E-05
  0.697499990      -1.17200052E-05
  0.699999988      -1.15699750E-05
  0.702499986      -1.12531443E-05
  0.704999983      -1.07518390E-05
  0.707499981      -1.00481857E-05
  0.709999979      -9.12414998E-06
  0.712499976      -7.96144741E-06
  0.714999974      -6.54157475E-06
  0.717499971      -4.84570546E-06
  0.720000029      -2.85456622E-06
  0.722500026      -5.48291951E-07
  0.725000024       2.09362565E-06
  0.727500021       5.09247002E-06
  0.730000019       8.47025149E-06
  0.732500017       1.22496940E-05
  0.735000014       1.64539870E-05
  0.737500012       2.11065508E-05
  0.740000010       2.62305148E-05
  0.742500007       3.18486964E-05
  0.745000005       3.79826233E-05
  0.747500002       4.46520644E-05
  0.750000000       5.18741508E-05
  0.752499998       5.96623031E-05
  0.754999995       6.80250814E-05
  0.757499993       7.69651670E-05
  0.759999990       8.64781396E-05
  0.762499988       9.65517611E-05
  0.764999986       1.07165128E-04
  0.767499983       1.18287637E-04
  0.769999981       1.29878259E-04
  0.772499979       1.41884520E-04
  0.774999976       1.54242298E-04
  0.777499974       1.66877071E-04
  0.779999971       1.79702489E-04
  0.782500029       1.92623149E-04
  0.785000026       2.05533768E-04
  0.787500024       2.18322253E-04
  0.790000021       2.30870704E-04
  0.792500019       2.43056478E-04
  0.795000017       2.54755985E-04
  0.797500014       2.65846349E-04
  0.800000012       2.76209001E-04
  0.802500010       2.85731774E-04
  0.805000007       2.94309895E-04
  0.807500005       3.01851629E-04
  0.810000002       3.08278773E-04
  0.812500000       3.13528290E-04
  0.814999998       3.17553815E-04
  0.817499995       3.20328923E-04
  0.819999993       3.21845670E-04
  0.822499990       3.22116743E-04
  0.824999988       3.21172323E-04
  0.827499986       3.19061335E-04
  0.829999983       3.15848534E-04
  0.832499981       3.11614829E-04
  0.834999979       3.06453614E-04
  0.837499976       3.00467305E-04
  0.839999974       2.93767574E-04
  0.842499971       2.86470342E-04
  0.845000029       2.78689928E-04
  0.847500026       2.70542718E-04
  0.850000024       2.62140791E-04
  0.852500021       2.53584207E-04
  0.855000019       2.44968018E-04
  0.857500017       2.36376087E-04
  0.860000014       2.27882469E-04
  0.862500012       2.19546171E-04
  0.865000010       2.11412873E-04
  0.867500007       2.03517484E-04
  0.870000005       1.95880872E-04
  0.872500002       1.88511607E-04
  0.875000000       1.81411786E-04
  0.877499998       1.74569446E-04
  0.879999995       1.67972277E-04
  0.882499993       1.61601696E-04
  0.884999990       1.55435031E-04
  0.887499988       1.49452957E-04
  0.889999986       1.43636484E-04
  0.892499983       1.37962488E-04
  0.894999981       1.32413348E-04
  0.897499979       1.26977116E-04
  0.899999976       1.21644807E-04
  0.902499974       1.16416559E-04
  0.904999971       1.11296453E-04
  0.907500029       1.06295658E-04
  0.910000026       1.01424215E-04
  0.912500024       9.66969310E-05
  0.915000021       9.21275860E-05
  0.917500019       8.77323473E-05
  0.920000017       8.35283427E-05
  0.922500014       7.95328451E-05
  0.925000012       7.57608941E-05
  0.927500010       7.22252153E-05
  0.930000007       6.89354274E-05
  0.932500005       6.58948993E-05
  0.935000002       6.31013900E-05
  0.937500000       6.05519817E-05
  0.939999998       5.82345056E-05
  0.942499995       5.61360866E-05
  0.944999993       5.42423404E-05
  0.947499990       5.25361866E-05
  0.949999988       5.09992897E-05
  0.952499986       4.96098946E-05
  0.954999983       4.83448421E-05
  0.957499981       4.71808562E-05
  0.959999979       4.60961128E-05
  0.962499976       4.50705702E-05
  0.964999974       4.40848962E-05
  0.967499971       4.31266999E-05
  0.970000029       4.21812838E-05
  0.972500026       4.12401641E-05
  0.975000024       4.02949736E-05
  0.977500021       3.93417431E-05
  0.980000019       3.83775332E-05
  0.982500017       3.73994626E-05
  0.985000014       3.64096777E-05
  0.987500012       3.54132208E-05
  0.990000010       3.44186155E-05
  0.992500007       3.34347351E-05
  0.995000005       3.24698340E-05
  0.997500002       3.15320576E-05
   1.00000000       3.06255934E-05
   1.00250006       2.97545066E-05
   1.00500000       2.89247437E-05
   1.00750005       2.81447119E-05
   1.00999999       2.74261020E-05
   1.01250005       2.67761097E-05
   1.01499999       2.61994974E-05
   1.01750004       2.56962066E-05
   1.01999998       2.52613099E-05
   1.02250004       2.48898159E-05
   1.02499998       2.45768115E-05
   1.02750003       2.43207123E-05
   1.02999997       2.41169564E-05
   1.03250003       2.39639758E-05
   1.03499997       2.38545963E-05
   1.03750002       2.37806380E-05
   1.03999996       2.37339354E-05
   1.04250002       2.37032418E-05
   1.04499996       2.36809938E-05
   1.04750001       2.36622000E-05
   1.04999995       2.36404176E-05
   1.05250001       2.36122469E-05
   1.05499995       2.35717471E-05
   1.05750000       2.35157968E-05
   1.05999994       2.34447507E-05
   1.06250000       2.33581650E-05
   1.06500006       2.32598250E-05
   1.06750000       2.31545400E-05
   1.07000005       2.30441710E-05
   1.07249999       2.29321377E-05
   1.07500005       2.28189492E-05
   1.07749999       2.27055752E-05
   1.08000004       2.25951499E-05
   1.08249998       2.24897685E-05
   1.08500004       2.23926836E-05
   1.08749998       2.23032384E-05
   1.09000003       2.22216750E-05
   1.09249997       2.21463724E-05
   1.09500003       2.20738693E-05
   1.09749997       2.20021539E-05
   1.10000002       2.19274825E-05
   1.10249996       2.18438490E-05
   1.10500002       2.17431952E-05
   1.10749996       2.16185726E-05
   1.11000001       2.14665633E-05
   1.11249995       2.12877658E-05
   1.11500001       2.10835806E-05
   1.11749995       2.08572765E-05
   1.12000000       2.06109835E-05
   1.12249994       2.03445525E-05
   1.12500000       2.00589548E-05
   1.12750006       1.97569370E-05
   1.13000000       1.94454278E-05
   1.13250005       1.91327235E-05
   1.13499999       1.88284448E-05
   1.13750005       1.85399313E-05
   1.13999999       1.82754811E-05
   1.14250004       1.80402494E-05
   1.14499998       1.78385853E-05
   1.14750004       1.76740414E-05
   1.14999998       1.75464666E-05
   1.15250003       1.74576744E-05
   1.15499997       1.74072356E-05
   1.15750003       1.73922544E-05
   1.15999997       1.74091783E-05
   1.16250002       1.74523520E-05
   1.16499996       1.75156056E-05
   1.16750002       1.75923851E-05
   1.16999996       1.76761150E-05
   1.17250001       1.77598249E-05
   1.17499995       1.78366990E-05
   1.17750001       1.79016897E-05
   1.17999995       1.79501876E-05
   1.18250000       1.79784693E-05
   1.18499994       1.79863528E-05
   1.18750000       1.79733506E-05
   1.19000006       1.79395556E-05
   1.19250000       1.78873415E-05
   1.19500005       1.78201462E-05
   1.19749999       1.77443198E-05
   1.20000005       1.76653175E-05
   1.20249999       1.75904242E-05
   1.20500004       1.75253390E-05
   1.20749998       1.74743946E-05
   1.21000004       1.74431425E-05
   1.21249998       1.74348479E-05
   1.21500003       1.74535289E-05
   1.21749997       1.75021923E-05
   1.22000003       1.75834375E-05
   1.22249997       1.76971116E-05
   1.22500002       1.78421342E-05
   1.22749996       1.80137577E-05
   1.23000002       1.82069398E-05
   1.23249996       1.84174023E-05
   1.23500001       1.86404923E-05
   1.23749995       1.88726990E-05
   1.24000001       1.91116324E-05
   1.24249995       1.93525066E-05
   1.24500000       1.95912344E-05
   1.24749994       1.98218913E-05
   1.25000000       2.00408540E-05
   1.25250006       2.02458414E-05
   1.25500000       2.04376047E-05
   1.25750005       2.06167188E-05
   1.25999999       2.07862868E-05
   1.26250005       2.09481423E-05
   1.26499999       2.11035695E-05
   1.26750004       2.12533741E-05
   1.26999998       2.13997027E-05
   1.27250004       2.15440905E-05
   1.27499998       2.16912795E-05
   1.27750003       2.18428395E-05
   1.27999997       2.20008824E-05
   1.28250003       2.21671071E-05
   1.28499997       2.23435891E-05
   1.28750002       2.25303447E-05
   1.28999996       2.27264227E-05
   1.29250002       2.29301222E-05
   1.29499996       2.31386402E-05
   1.29750001       2.33483188E-05
   1.29999995       2.35572479E-05
   1.30250001       2.37655640E-05
   1.30499995       2.39713172E-05
   1.30750000       2.41741200E-05
   1.30999994       2.43706454E-05
   1.31250000       2.45567117E-05
   1.31500006       2.47270073E-05
   1.31750000       2.48792985E-05
   1.32000005       2.50139328E-05
   1.32249999       2.51332494E-05
   1.32500005       2.52406862E-05
   1.32749999       2.53384806E-05
   1.33000004       2.54274219E-05
   1.33249998       2.55050036E-05
   1.33500004       2.55711002E-05
   1.33749998       2.56277963E-05
   1.34000003       2.56782350E-05
   1.34249997       2.57273296E-05
   1.34500003       2.57786287E-05
   1.34749997       2.58334749E-05
   1.35000002       2.58910331E-05
   1.35249996       2.59504213E-05
   1.35500002       2.60119850E-05
   1.35749996       2.60756588E-05
   1.36000001       2.61440600E-05
   1.36249995       2.62168051E-05
   1.36500001       2.62932299E-05
   1.36749995       2.63699985E-05
   1.37000000       2.64424907E-05
   1.37249994       2.65076524E-05
   1.37500000       2.65639756E-05
   1.37750006       2.66115094E-05
   1.38000000       2.66508068E-05
   1.38250005       2.66826100E-05
   1.38499999       2.67049345E-05
   1.38750005       2.67159940E-05
   1.38999999       2.67140695E-05
   1.39250004       2.66983025E-05
   1.39499998       2.66691695E-05
   1.39750004       2.66285097E-05
   1.39999998       2.65779199E-05
   1.40250003       2.65194121E-05
   1.40499997       2.64561932E-05
   1.40750003       2.63922666E-05
   1.40999997       2.63312631E-05
   1.41250002       2.62756694E-05
   1.41499996       2.62255471E-05
   1.41750002       2.61809182E-05
   1.41999996       2.61406221E-05
   1.42250001       2.61039149E-05
   1.42499995       2.60722500E-05
   1.42750001       2.60485340E-05
   1.42999995       2.60335437E-05
   1.43250000       2.60271991E-05
   1.43499994       2.60256875E-05
   1.43750000       2.60260604E-05
   1.44000006       2.60246125E-05
   1.44250000       2.60196903E-05
   1.44500005       2.60113302E-05
   1.44749999       2.59997851E-05
   1.45000005       2.59841308E-05
   1.45249999       2.59617500E-05
   1.45500004       2.59293392E-05
   1.45749998       2.58846358E-05
   1.46000004       2.58274522E-05
   1.46249998       2.57608899E-05
   1.46500003       2.56880903E-05
   1.46749997       2.56112162E-05
   1.47000003       2.55305895E-05
   1.47249997       2.54455899E-05
   1.47500002       2.53550988E-05
   1.47749996       2.52598802E-05
   1.48000002       2.51619167E-05
   1.48249996       2.50649882E-05
   1.48500001       2.49720870E-05
   1.48749995       2.48854340E-05
   1.49000001       2.48064589E-05
   1.49249995       2.47349290E-05
   1.49500000       2.46701620E-05
   1.49749994       2.46115014E-05
   1.50000000       2.45570936E-05
   1.50250006       2.45054307E-05
   1.50500000       2.44550938E-05
   1.50750005       2.44054118E-05
   1.50999999       2.43562245E-05
   1.51250005       2.43076156E-05
   1.51499999       2.42592141E-05
   1.51750004       2.42094648E-05
   1.51999998       2.41555135E-05
   1.52250004       2.40944355E-05
   1.52499998       2.40247264E-05
   1.52750003       2.39465171E-05
   1.52999997       2.38626108E-05
   1.53250003       2.37760996E-05
   1.53499997       2.36893720E-05
   1.53750002       2.36018968E-05
   1.53999996       2.35122934E-05
   1.54250002       2.34189811E-05
   1.54499996       2.33229675E-05
   1.54750001       2.32268067E-05
   1.54999995       2.31354934E-05
   1.55250001       2.30516525E-05
   1.55499995       2.29757698E-05
   1.55750000       2.29055295E-05
   1.55999994       2.28380322E-05
   1.56250000       2.27716591E-05
   1.56500006       2.27072269E-05
   1.56750000       2.26473912E-05
   1.57000005       2.25944495E-05
   1.57249999       2.25490148E-05
   1.57500005       2.25077401E-05
   1.57749999       2.24670239E-05
   1.58000004       2.24227315E-05
   1.58249998       2.23732823E-05
   1.58500004       2.23188745E-05
   1.58749998       2.22613453E-05
   1.59000003       2.22020517E-05
   1.59249997       2.21415703E-05
   1.59500003       2.20786806E-05
   1.59749997       2.20117090E-05
   1.60000002       2.19396461E-05
   1.60249996       2.18619407E-05
   1.60500002       2.17795568E-05
   1.60749996       2.16928966E-05
   1.61000001       2.16031694E-05
   1.61249995       2.15113178E-05
   1.61500001       2.14175907E-05
   1.61749995       2.13233907E-05
   1.62000000       2.12289287E-05
   1.62249994       2.11344031E-05
   1.62500000       2.10396320E-05
   1.62750006       2.09449099E-05
   1.63000000       2.08503843E-05
   1.63250005       2.07580051E-05
   1.63499999       2.06684108E-05
   1.63750005       2.05813594E-05
   1.63999999       2.04954031E-05
   1.64250004       2.04081662E-05
   1.64499998       2.03193322E-05
   1.64750004       2.02301453E-05
   1.64999998       2.01433522E-05
   1.65250003       2.00629111E-05
   1.65499997       1.99896658E-05
   1.65750003       1.99216065E-05
   1.65999997       1.98544294E-05
   1.66250002       1.97842728E-05
   1.66499996       1.97096397E-05
   1.66750002       1.96330657E-05
   1.66999996       1.95595094E-05
   1.67250001       1.94933455E-05
   1.67499995       1.94365202E-05
   1.67750001       1.93863671E-05
   1.67999995       1.93380201E-05
   1.68250000       1.92875723E-05
   1.68499994       1.92335701E-05
   1.68750000       1.91785111E-05
   1.69000006       1.91267609E-05
   1.69250000       1.90820374E-05
   1.69500005       1.90450955E-05
   1.69749999       1.90133651E-05
   1.70000005       1.89826751E-05
   1.70249999       1.89495768E-05
   1.70500004       1.89137427E-05
   1.70749998       1.88771028E-05
   1.71000004       1.88420581E-05
   1.71249998       1.88101894E-05
   1.71500003       1.87807564E-05
   1.71749997       1.87510432E-05
   1.72000003       1.87181868E-05
   1.72249997       1.86805064E-05
   1.72500002       1.86387897E-05
   1.72749996       1.85955105E-05
   1.73000002       1.85535318E-05
   1.73249996       1.85144618E-05
   1.73500001       1.84779838E-05
   1.73749995       1.84422061E-05
   1.74000001       1.84047294E-05
   1.74249995       1.83646353E-05
   1.74500000       1.83221728E-05
   1.74749994       1.82800486E-05
   1.75000000       1.82418662E-05
   1.75250006       1.82103231E-05
   1.75500000       1.81865234E-05
   1.75750005       1.81687501E-05
   1.75999999       1.81535379E-05
   1.76250005       1.81375271E-05
   1.76499999       1.81186697E-05
   1.76750004       1.80975730E-05
   1.76999998       1.80771203E-05
   1.77250004       1.80601510E-05
   1.77499998       1.80478746E-05
   1.77750003       1.80388579E-05
   1.77999997       1.80296429E-05
   1.78250003       1.80163861E-05
   1.78499997       1.79969411E-05
   1.78750002       1.79719937E-05
   1.78999996       1.79444669E-05
   1.79250002       1.79174112E-05
   1.79499996       1.78925693E-05
   1.79750001       1.78697337E-05
   1.79999995       1.78470746E-05
   1.80250001       1.78235696E-05
   1.80499995       1.78000755E-05
   1.80750000       1.77796701E-05
   1.80999994       1.77662714E-05
   1.81250000       1.77624752E-05
   1.81500006       1.77683705E-05
   1.81750000       1.77816055E-05
   1.82000005       1.77993297E-05
   1.82249999       1.78198661E-05
   1.82500005       1.78442151E-05
   1.82749999       1.78751143E-05
   1.83000004       1.79154740E-05
   1.83249998       1.79663639E-05
   1.83500004       1.80261322E-05
   1.83749998       1.80911138E-05
   1.84000003       1.81574196E-05
   1.84249997       1.82224157E-05
   1.84500003       1.82857057E-05
   1.84749997       1.83482098E-05
   1.85000002       1.84109213E-05
   1.85249996       1.84739019E-05
   1.85500002       1.85359895E-05
   1.85749996       1.85955741E-05
   1.86000001       1.86517864E-05
   1.86249995       1.87050809E-05
   1.86500001       1.87570549E-05
   1.86749995       1.88092981E-05
   1.87000000       1.88622762E-05
   1.87249994       1.89149559E-05
   1.87500000       1.89652164E-05
   1.87750006       1.90115970E-05
   1.88000000       1.90545070E-05
   1.88250005       1.90970295E-05
   1.88499999       1.91438357E-05
   1.88750005       1.91992167E-05
   1.88999999       1.92647767E-05
   1.89250004       1.93383767E-05
   1.89499998       1.94146396E-05
   1.89750004       1.94872846E-05
   1.89999998       1.95520461E-05
   1.90250003       1.96084966E-05
   1.90499997       1.96599776E-05
   1.90750003       1.97113259E-05
   1.90999997       1.97658264E-05
   1.91250002       1.98227845E-05
   1.91499996       1.98774487E-05
   1.91750002       1.99230781E-05
   1.91999996       1.99541973E-05
   1.92250001       1.99691440E-05
   1.92499995       1.99703900E-05
   1.92750001       1.99625538E-05
   1.92999995       1.99494189E-05
   1.93250000       1.99317819E-05
   1.93499994       1.99075239E-05
   1.93750000       1.98738435E-05
   1.94000006       1.98303333E-05
   1.94250000       1.97806694E-05
   1.94500005       1.97318004E-05
   1.94749999       1.96910441E-05
   1.95000005       1.96626552E-05
   1.95249999       1.96460987E-05
   1.95500004       1.96371511E-05
   1.95749998       1.96313013E-05
   1.96000004       1.96275523E-05
   1.96249998       1.96302935E-05
   1.96500003       1.96481778E-05
   1.96749997       1.96903566E-05
   1.97000003       1.97622085E-05
   1.97249997       1.98626840E-05
   1.97500002       1.99849492E-05
   1.97749996       2.01197563E-05
   1.98000002       2.02598385E-05