   0.00000000       0.00000000    
   2.49999994E-03   0.00000000    
   4.99999989E-03   0.00000000    
   7.49999983E-03   0.00000000    
   9.99999978E-03   0.00000000    
   1.25000002E-02   0.00000000    
   1.49999997E-02   0.00000000    
   1.75000001E-02  -2.05629772E-19
   1.99999996E-02   3.67307855E-18
   2.25000009E-02  -3.67023049E-17
   2.50000004E-02   1.12695034E-16
   2.74999999E-02   1.16411655E-16
   2.99999993E-02  -1.17858388E-15
   3.24999988E-02   6.71353867E-16
   3.50000001E-02   5.86580226E-15
   3.75000015E-02  -7.57389333E-15
   3.99999991E-02  -1.93518636E-14
   4.25000004E-02   4.04242239E-14
   4.50000018E-02   4.74758274E-14
   4.74999994E-02  -1.62918032E-13
   5.00000007E-02  -1.00458833E-13
   5.24999984E-02   5.51810117E-13
   5.49999997E-02   2.54856737E-13
   5.75000010E-02  -1.58739558E-12
   5.99999987E-02  -8.83643581E-13
   6.25000000E-02   3.77315280E-12
   6.49999976E-02   3.03745137E-12
   6.75000027E-02  -7.11157782E-12
   7.00000003E-02  -8.42068949E-12
   7.24999979E-02   1.00189605E-11
   7.50000030E-02   1.80413150E-11
   7.75000006E-02  -9.28786128E-12
   7.99999982E-02  -3.01446333E-11
   8.25000033E-02   2.77089896E-12
   8.50000009E-02   4.10099524E-11
   8.74999985E-02   8.03583068E-12
   9.00000036E-02  -4.99973604E-11
   9.25000012E-02  -2.24654757E-11
   9.49999988E-02   5.95510447E-11
   9.74999964E-02   4.82235814E-11
  0.100000001      -6.11427159E-11
  0.102499999      -8.97013991E-11
  0.104999997       2.99502784E-11
  0.107500002       1.17934273E-10
  0.109999999       3.47918951E-11
  0.112499997      -8.55685037E-11
  0.115000002      -6.89645493E-11
  0.117500000       1.32540784E-11
  0.119999997       1.60026315E-11
  0.122500002      -2.26564015E-12
  0.125000000       5.34667172E-11
  0.127499998       6.76489628E-11
  0.129999995      -4.23062939E-11
  0.132499993      -7.88362500E-11
  0.135000005       5.25096043E-11
  0.137500003       5.00297651E-11
  0.140000001      -1.99708791E-10
  0.142499998      -2.14461671E-10
  0.144999996       2.34338382E-10
  0.147499993       4.70812667E-10
  0.150000006       2.03337347E-11
  0.152500004      -3.74231535E-10
  0.155000001      -3.69922357E-11
  0.157499999       2.24609636E-10
  0.159999996      -4.14291712E-10
  0.162499994      -8.63325966E-10
  0.165000007       2.25242880E-10
  0.167500004       1.64043268E-09
  0.170000002       1.06844411E-09
  0.172499999      -9.82375403E-10
  0.174999997      -1.63429392E-09
  0.177499995      -2.27406663E-10
  0.180000007       6.50373810E-10
  0.182500005      -3.45579843E-10
  0.185000002      -9.31500765E-10
  0.187500000       8.12285350E-10
  0.189999998       2.85758173E-09
  0.192499995       2.39948594E-09
  0.194999993       4.23012875E-10
  0.197500005      -2.12082810E-10
  0.200000003       4.73140749E-10
  0.202500001       5.38794065E-10
  0.204999998       5.48526335E-10
  0.207499996       2.77215118E-09
  0.209999993       6.55992372E-09
  0.212500006       8.63013039E-09
  0.215000004       7.94704746E-09
  0.217500001       7.03772995E-09
  0.219999999       8.61485461E-09
  0.222499996       1.32806433E-08
  0.224999994       1.99276666E-08
  0.227500007       2.68163785E-08
  0.230000004       3.34066499E-08
  0.232500002       4.17918358E-08
  0.234999999       5.44851702E-08
  0.237499997       7.08317600E-08
  0.239999995       8.80214088E-08
  0.242500007       1.05232346E-07
  0.245000005       1.24391036E-07
  0.247500002       1.47915856E-07
  0.250000000       1.78120814E-07
  0.252499998       2.17143224E-07
  0.254999995       2.64561095E-07
  0.257499993       3.16388196E-07
  0.259999990       3.69363420E-07
  0.262499988       4.25790915E-07
  0.264999986       4.91460469E-07
  0.267500013       5.67967049E-07
  0.270000011       6.49196352E-07
  0.272500008       7.27354688E-07
  0.275000006       8.00792748E-07
  0.277500004       8.72722410E-07
  0.280000001       9.43412260E-07
  0.282499999       1.00717182E-06
  0.284999996       1.05515096E-06
  0.287499994       1.07654648E-06
  0.289999992       1.05912011E-06
  0.292499989       9.93071126E-07
  0.294999987       8.71919781E-07
  0.297500014       6.85210296E-07
  0.300000012       4.12775677E-07
  0.302500010       2.87992279E-08
  0.305000007      -4.92195170E-07
  0.307500005      -1.17474656E-06
  0.310000002      -2.04395042E-06
  0.312500000      -3.12778593E-06
  0.314999998      -4.46145395E-06
  0.317499995      -6.08898335E-06
  0.319999993      -8.05842410E-06
  0.322499990      -1.04179362E-05
  0.324999988      -1.32167797E-05
  0.327499986      -1.65074198E-05
  0.330000013      -2.03476757E-05
  0.332500011      -2.48047563E-05
  0.335000008      -2.99561270E-05
  0.337500006      -3.58821126E-05
  0.340000004      -4.26604820E-05
  0.342500001      -5.03696465E-05
  0.344999999      -5.90917407E-05
  0.347499996      -6.89131775E-05
  0.349999994      -7.99244517E-05
  0.352499992      -9.22218678E-05
  0.354999989      -1.05904277E-04
  0.357499987      -1.21065132E-04
  0.360000014      -1.37785988E-04
  0.362500012      -1.56138398E-04
  0.365000010      -1.76190850E-04
  0.367500007      -1.98016409E-04
  0.370000005      -2.21686147E-04
  0.372500002      -2.47254618E-04
  0.375000000      -2.74757389E-04
  0.377499998      -3.04211630E-04
  0.379999995      -3.35618359E-04
  0.382499993      -3.68963927E-04
  0.384999990      -4.04229009E-04
  0.387499988      -4.41383367E-04
  0.389999986      -4.80374321E-04
  0.392500013      -5.21126844E-04
  0.395000011      -5.63552778E-04
  0.397500008      -6.07554975E-04
  0.400000006      -6.53023657E-04
  0.402500004      -6.99834549E-04
  0.405000001      -7.47859187E-04
  0.407499999      -7.96962471E-04
  0.409999996      -8.47001094E-04
  0.412499994      -8.97829828E-04
  0.414999992      -9.49303096E-04
  0.417499989      -1.00127689E-03
  0.419999987      -1.05360616E-03
  0.422500014      -1.10614148E-03
  0.425000012      -1.15872826E-03
  0.427500010      -1.21121889E-03
  0.430000007      -1.26346690E-03
  0.432500005      -1.31531712E-03
  0.435000002      -1.36661192E-03
  0.437500000      -1.41718949E-03
  0.439999998      -1.46687776E-03
  0.442499995      -1.51548779E-03
  0.444999993      -1.56281877E-03
  0.447499990      -1.60864135E-03
  0.449999988      -1.65271049E-03
  0.452499986      -1.69474457E-03
  0.455000013      -1.73444860E-03
  0.457500011      -1.77150569E-03
  0.460000008      -1.80556742E-03
  0.462500006      -1.83624798E-03
  0.465000004      -1.86312594E-03
  0.467500001      -1.88575184E-03
  0.469999999      -1.90364511E-03
  0.472499996      -1.91630656E-03
  0.474999994      -1.92322896E-03
  0.477499992      -1.92389230E-03
  0.479999989      -1.91777409E-03
  0.482499987      -1.90434582E-03
  0.485000014      -1.88309141E-03
  0.487500012      -1.85352995E-03
  0.490000010      -1.81521534E-03
  0.492500007      -1.76775979E-03
  0.495000005      -1.71084888E-03
  0.497500002      -1.64423976E-03
  0.500000000      -1.56778865E-03
  0.502499998      -1.48145657E-03
  0.504999995      -1.38531916E-03
  0.507499993      -1.27959519E-03
  0.509999990      -1.16464694E-03
  0.512499988      -1.04098325E-03
  0.514999986      -9.09265946E-04
  0.517499983      -7.70290557E-04
  0.519999981      -6.24997891E-04
  0.522499979      -4.74445202E-04
  0.524999976      -3.19823885E-04
  0.527499974      -1.62424651E-04
  0.529999971      -3.63550726E-06
  0.532500029       1.55093847E-04
  0.535000026       3.12291057E-04
  0.537500024       4.66485246E-04
  0.540000021       6.16229430E-04
  0.542500019       7.60125869E-04
  0.545000017       8.96854792E-04
  0.547500014       1.02519302E-03
  0.550000012       1.14405493E-03
  0.552500010       1.25251245E-03
  0.555000007       1.34981482E-03
  0.557500005       1.43539219E-03
  0.560000002       1.50885829E-03
  0.562500000       1.57000811E-03
  0.564999998       1.61882164E-03
  0.567499995       1.65547198E-03
  0.569999993       1.68032048E-03
  0.572499990       1.69389532E-03
  0.574999988       1.69685786E-03
  0.577499986       1.68997853E-03
  0.579999983       1.67411380E-03
  0.582499981       1.65018963E-03
  0.584999979       1.61917973E-03
  0.587499976       1.58209156E-03
  0.589999974       1.53994386E-03
  0.592499971       1.49373035E-03
  0.595000029       1.44440716E-03
  0.597500026       1.39287126E-03
  0.600000024       1.33994932E-03
  0.602500021       1.28638418E-03
  0.605000019       1.23284152E-03
  0.607500017       1.17989548E-03
  0.610000014       1.12803536E-03
  0.612500012       1.07766211E-03
  0.615000010       1.02908874E-03
  0.617500007       9.82542639E-04
  0.620000005       9.38170240E-04
  0.622500002       8.96058686E-04
  0.625000000       8.56227532E-04
  0.627499998       8.18651170E-04
  0.629999995       7.83262774E-04
  0.632499993       7.49973464E-04
  0.634999990       7.18661700E-04
  0.637499988       6.89199253E-04
  0.639999986       6.61443220E-04
  0.642499983       6.35253382E-04
  0.644999981       6.10479154E-04
  0.647499979       5.86976123E-04
  0.649999976       5.64608607E-04
  0.652499974       5.43271773E-04
  0.654999971       5.22876973E-04
  0.657500029       5.03363088E-04
  0.660000026       4.84669028E-04
  0.662500024       4.66744386E-04
  0.665000021       4.49536456E-04
  0.667500019       4.33006440E-04
  0.670000017       4.17117873E-04
  0.672500014       4.01868368E-04
  0.675000012       3.87255801E-04
  0.677500010       3.73290619E-04
  0.680000007       3.59971717E-04
  0.682500005       3.47284018E-04
  0.685000002       3.35204328E-04
  0.687500000       3.23705695E-04
  0.689999998       3.12767195E-04
  0.692499995       3.02376866E-04
  0.694999993       2.92529672E-04
  0.697499990       2.83203117E-04
  0.699999988       2.74361082E-04
  0.702499986       2.65959039E-04
  0.704999983       2.57958716E-04
  0.707499981       2.50313780E-04
  0.709999979       2.43016446E-04
  0.712499976       2.36037158E-04
  0.714999974       2.29361263E-04
  0.717499971       2.22953764E-04
  0.720000029       2.16783592E-04
  0.722500026       2.10817874E-04
  0.725000024       2.05043441E-04
  0.727500021       1.99460308E-04
  0.730000019       1.94062508E-04
  0.732500017       1.88837148E-04
  0.735000014       1.83770811E-04
  0.737500012       1.78847346E-04
  0.740000010       1.74047629E-04
  0.742500007       1.69359395E-04
  0.745000005       1.64774581E-04
  0.747500002       1.60292300E-04
  0.750000000       1.55912232E-04
  0.752499998       1.51616754E-04
  0.754999995       1.47390325E-04
  0.757499993       1.43220692E-04
  0.759999990       1.39097683E-04
  0.762499988       1.35010239E-04
  0.764999986       1.30959263E-04
  0.767499983       1.26933985E-04
  0.769999981       1.22935919E-04
  0.772499979       1.18949501E-04
  0.774999976       1.14970862E-04
  0.777499974       1.10999390E-04
  0.779999971       1.07059008E-04
  0.782500029       1.03166443E-04
  0.785000026       9.93264912E-05
  0.787500024       9.55391442E-05
  0.790000021       9.17930447E-05
  0.792500019       8.80777297E-05
  0.795000017       8.43887174E-05
  0.797500014       8.07550095E-05
  0.800000012       7.71957202E-05
  0.802500010       7.37201190E-05
  0.805000007       7.03264232E-05
  0.807500005       6.69993824E-05
  0.810000002       6.37237463E-05
  0.812500000       6.04911547E-05
  0.814999998       5.72956305E-05
  0.817499995       5.41416484E-05
  0.819999993       5.10354912E-05
  0.822499990       4.79610171E-05
  0.824999988       4.48987994E-05
  0.827499986       4.18413620E-05
  0.829999983       3.87919936E-05
  0.832499981       3.57533863E-05
  0.834999979       3.27357047E-05
  0.837499976       2.97359566E-05
  0.839999974       2.67517498E-05
  0.842499971       2.37786026E-05
  0.845000029       2.08186066E-05
  0.847500026       1.78929840E-05
  0.850000024       1.50202668E-05
  0.852500021       1.22180900E-05
  0.855000019       9.49243076E-06
  0.857500017       6.83043709E-06
  0.860000014       4.23031588E-06
  0.862500012       1.70193027E-06
  0.865000010      -7.37084690E-07
  0.867500007      -3.06939251E-06
  0.870000005      -5.28333658E-06
  0.872500002      -7.38788412E-06
  0.875000000      -9.41471717E-06
  0.877499998      -1.13907381E-05
  0.879999995      -1.33216254E-05
  0.882499993      -1.52008024E-05
  0.884999990      -1.70112326E-05
  0.887499988      -1.87448459E-05
  0.889999986      -2.04130010E-05
  0.892499983      -2.20375168E-05
  0.894999981      -2.36423039E-05
  0.897499979      -2.52435057E-05
  0.899999976      -2.68264757E-05
  0.902499974      -2.83765639E-05
  0.904999971      -2.98848063E-05
  0.907500029      -3.13518067E-05
  0.910000026      -3.27850248E-05
  0.912500024      -3.41877530E-05
  0.915000021      -3.55486409E-05
  0.917500019      -3.68566252E-05
  0.920000017      -3.80991478E-05
  0.922500014      -3.92730726E-05
  0.925000012      -4.03845297E-05
  0.927500010      -4.14445713E-05
  0.930000007      -4.24532082E-05
  0.932500005      -4.34029571E-05
  0.935000002      -4.42818709E-05
  0.937500000      -4.50779880E-05
  0.939999998      -4.57954957E-05
  0.942499995      -4.64550139E-05
  0.944999993      -4.70800151E-05
  0.947499990      -4.76803507E-05
  0.949999988      -4.82525938E-05
  0.952499986      -4.87807483E-05
  0.954999983      -4.92527070E-05
  0.957499981      -4.96787870E-05
  0.959999979      -5.00740825E-05
  0.962499976      -5.04647433E-05
  0.964999974      -5.08591402E-05
  0.967499971      -5.12527913E-05
  0.970000029      -5.16286564E-05
  0.972500026      -5.19695495E-05
  0.975000024      -5.22688970E-05
  0.977500021      -5.25346186E-05
  0.980000019      -5.27841985E-05
  0.982500017      -5.30391590E-05
  0.985000014      -5.33012972E-05
  0.987500012      -5.35528161E-05
  0.990000010      -5.37790838E-05
  0.992500007      -5.39664943E-05
  0.995000005      -5.41092159E-05
  0.997500002      -5.42187627E-05
   1.00000000      -5.43066417E-05
   1.00250006      -5.43804708E-05
   1.00500000      -5.44421891E-05
   1.00750005      -5.44897193E-05
   1.00999999      -5.45258845E-05
   1.01250005      -5.45505427E-05
   1.01499999      -5.45653347E-05
   1.01750004      -5.45731091E-05
   1.01999998      -5.45713156E-05
   1.02250004      -5.45577132E-05
   1.02499998      -5.45423209E-05
   1.02750003      -5.45339535E-05
   1.02999997      -5.45436669E-05
   1.03250003      -5.45778930E-05
   1.03499997      -5.46294505E-05
   1.03750002      -5.46831034E-05
   1.03999996      -5.47277887E-05
   1.04250002      -5.47684394E-05
   1.04499996      -5.48195494E-05
   1.04750001      -5.48897915E-05
   1.04999995      -5.49827528E-05
   1.05250001      -5.50888581E-05
   1.05499995      -5.51889898E-05
   1.05750000      -5.52598285E-05
   1.05999994      -5.53013742E-05
   1.06250000      -5.53233440E-05
   1.06500006      -5.53497957E-05
   1.06750000      -5.53940372E-05
   1.07000005      -5.54612889E-05
   1.07249999      -5.55375045E-05
   1.07500005      -5.55925035E-05
   1.07749999      -5.56110354E-05
   1.08000004      -5.55951956E-05
   1.08249998      -5.55664992E-05
   1.08500004      -5.55561855E-05
   1.08749998      -5.55801016E-05
   1.09000003      -5.56349478E-05
   1.09249997      -5.57002568E-05
   1.09500003      -5.57573439E-05
   1.09749997      -5.58033753E-05
   1.10000002      -5.58380489E-05
   1.10249996      -5.58755637E-05
   1.10500002      -5.59259242E-05
   1.10749996      -5.59866021E-05
   1.11000001      -5.60541521E-05
   1.11249995      -5.61248416E-05
   1.11500001      -5.61973247E-05
   1.11749995      -5.62624846E-05
   1.12000000      -5.63209178E-05
   1.12249994      -5.63709873E-05
   1.12500000      -5.64093934E-05
   1.12750006      -5.64298680E-05
   1.13000000      -5.64340517E-05
   1.13250005      -5.64286747E-05
   1.13499999      -5.64143229E-05
   1.13750005      -5.63926551E-05
   1.13999999      -5.63605245E-05
   1.14250004      -5.63141948E-05
   1.14499998      -5.62560599E-05
   1.14750004      -5.61958295E-05
   1.14999998      -5.61326160E-05
   1.15250003      -5.60668559E-05
   1.15499997      -5.60033368E-05
   1.15750003      -5.59381806E-05
   1.15999997      -5.58586726E-05
   1.16250002      -5.57657149E-05
   1.16499996      -5.56727573E-05
   1.16750002      -5.55902625E-05
   1.16999996      -5.55280931E-05
   1.17250001      -5.54856488E-05
   1.17499995      -5.54503749E-05
   1.17750001      -5.54074868E-05
   1.17999995      -5.53450154E-05
   1.18250000      -5.52625206E-05
   1.18499994      -5.51685152E-05
   1.18750000      -5.50775003E-05
   1.19000006      -5.49972465E-05
   1.19250000      -5.49283504E-05
   1.19500005      -5.48552707E-05
   1.19749999      -5.47711279E-05
   1.20000005      -5.46744341E-05
   1.20249999      -5.45602561E-05
   1.20500004      -5.44305331E-05
   1.20749998      -5.42878115E-05
   1.21000004      -5.41346271E-05
   1.21249998      -5.39724715E-05
   1.21500003      -5.38056884E-05
   1.21749997      -5.36412917E-05
   1.22000003      -5.34803366E-05
   1.22249997      -5.33222155E-05
   1.22500002      -5.31614096E-05
   1.22749996      -5.29929785E-05
   1.23000002      -5.28131895E-05
   1.23249996      -5.26280237E-05
   1.23500001      -5.24452480E-05
   1.23749995      -5.22712871E-05
   1.24000001      -5.21077891E-05
   1.24249995      -5.19525129E-05
   1.24500000      -5.17940971E-05
   1.24749994      -5.16265645E-05
   1.25000000      -5.14532767E-05
   1.25250006      -5.12802908E-05
   1.25500000      -5.11108883E-05
   1.25750005      -5.09451493E-05
   1.25999999      -5.07825462E-05
   1.26250005      -5.06131473E-05
   1.26499999      -5.04307427E-05
   1.26750004      -5.02393013E-05
   1.26999998      -5.00451642E-05
   1.27250004      -4.98517766E-05
   1.27499998      -4.96616776E-05
   1.27750003      -4.94738924E-05
   1.27999997      -4.92805812E-05
   1.28250003      -4.90788225E-05
   1.28499997      -4.88692931E-05
   1.28750002      -4.86573772E-05
   1.28999996      -4.84494158E-05
   1.29250002      -4.82514733E-05
   1.29499996      -4.80630151E-05
   1.29750001      -4.78759030E-05
   1.29999995      -4.76918576E-05
   1.30250001      -4.75138659E-05
   1.30499995      -4.73409527E-05
   1.30750000      -4.71659478E-05
   1.30999994      -4.69934057E-05
   1.31250000      -4.68271428E-05
   1.31500006      -4.66643214E-05
   1.31750000      -4.65075500E-05
   1.32000005      -4.63601900E-05
   1.32249999      -4.62209027E-05
   1.32500005      -4.60844567E-05
   1.32749999      -4.59465882E-05
   1.33000004      -4.58018440E-05
   1.33249998      -4.56479866E-05
   1.33500004      -4.54878500E-05
   1.33749998      -4.53271932E-05
   1.34000003      -4.51647429E-05
   1.34249997      -4.50016960E-05
   1.34500003      -4.48381943E-05
   1.34749997      -4.46713348E-05
   1.35000002      -4.44990947E-05
   1.35249996      -4.43298450E-05
   1.35500002      -4.41687371E-05
   1.35749996      -4.40166732E-05
   1.36000001      -4.38696879E-05
   1.36249995      -4.37232266E-05
   1.36500001      -4.35698930E-05
   1.36749995      -4.34128960E-05
   1.37000000      -4.32624765E-05
   1.37249994      -4.31293920E-05
   1.37500000      -4.30147629E-05
   1.37750006      -4.29144820E-05
   1.38000000      -4.28192834E-05
   1.38250005      -4.27213163E-05
   1.38499999      -4.26213373E-05
   1.38750005      -4.25238941E-05
   1.38999999      -4.24318350E-05
   1.39250004      -4.23432139E-05
   1.39499998      -4.22578742E-05
   1.39750004      -4.21741861E-05
   1.39999998      -4.20889992E-05
   1.40250003      -4.20009710E-05
   1.40499997      -4.19133976E-05
   1.40750003      -4.18290329E-05
   1.40999997      -4.17430238E-05
   1.41250002      -4.16561197E-05
   1.41499996      -4.15677168E-05
   1.41750002      -4.14765564E-05
   1.41999996      -4.13797134E-05
   1.42250001      -4.12848858E-05
   1.42499995      -4.12005975E-05
   1.42750001      -4.11303554E-05
   1.42999995      -4.10767025E-05
   1.43250000      -4.10369503E-05
   1.43499994      -4.10097491E-05
   1.43750000      -4.09983913E-05
   1.44000006      -4.10100474E-05
   1.44250000      -4.10403882E-05
   1.44500005      -4.10848479E-05
   1.44749999      -4.11430556E-05
   1.45000005      -4.12135232E-05
   1.45249999      -4.12919835E-05
   1.45500004      -4.13797134E-05
   1.45749998      -4.14798451E-05
   1.46000004      -4.15855029E-05
   1.46249998      -4.16873554E-05
   1.46500003      -4.17820302E-05
   1.46749997      -4.18655691E-05
   1.47000003      -4.19347671E-05
   1.47249997      -4.19940261E-05
   1.47500002      -4.20461074E-05
   1.47749996      -4.20904180E-05
   1.48000002      -4.21232253E-05
   1.48249996      -4.21393634E-05
   1.48500001      -4.21314398E-05
   1.48749995      -4.21026743E-05
   1.49000001      -4.20641154E-05
   1.49249995      -4.20253346E-05
   1.49500000      -4.19892422E-05
   1.49749994      -4.19581556E-05
   1.50000000      -4.19305106E-05
   1.50250006      -4.18994241E-05
   1.50500000      -4.18663185E-05
   1.50750005      -4.18375494E-05
   1.50999999      -4.18219315E-05
   1.51250005      -4.18220079E-05
   1.51499999      -4.18404634E-05
   1.51750004      -4.18766322E-05
   1.51999998      -4.19287899E-05
   1.52250004      -4.19934258E-05
   1.52499998      -4.20698707E-05
   1.52750003      -4.21564764E-05
   1.52999997      -4.22483899E-05
   1.53250003      -4.23422389E-05
   1.53499997      -4.24345271E-05
   1.53750002      -4.25205362E-05
   1.53999996      -4.26026563E-05
   1.54250002      -4.26832848E-05
   1.54499996      -4.27639134E-05
   1.54750001      -4.28406565E-05
   1.54999995      -4.29124630E-05
   1.55250001      -4.29747888E-05
   1.55499995      -4.30222353E-05
   1.55750000      -4.30556393E-05
   1.55999994      -4.30841101E-05
   1.56250000      -4.31141489E-05
   1.56500006      -4.31484441E-05
   1.56750000      -4.31822227E-05
   1.57000005      -4.32067282E-05
   1.57249999      -4.32204797E-05
   1.57500005      -4.32294473E-05
   1.57749999      -4.32494744E-05
   1.58000004      -4.32910929E-05
   1.58249998      -4.33563291E-05
   1.58500004      -4.34352369E-05
   1.58749998      -4.35120564E-05
   1.59000003      -4.35721377E-05
   1.59249997      -4.36183909E-05
   1.59500003      -4.36658411E-05
   1.59749997      -4.37256203E-05
   1.60000002      -4.37998206E-05
   1.60249996      -4.38796269E-05
   1.60500002      -4.39480755E-05
   1.60749996      -4.39898467E-05
   1.61000001      -4.40025469E-05
   1.61249995      -4.40018048E-05
   1.61500001      -4.40018048E-05
   1.61749995      -4.40067342E-05
   1.62000000      -4.40095755E-05
   1.62249994      -4.39950018E-05
   1.62500000      -4.39499454E-05
   1.62750006      -4.38743955E-05
   1.63000000      -4.37825584E-05
   1.63250005      -4.36904265E-05
   1.63499999      -4.36112168E-05
   1.63750005      -4.35468028E-05
   1.63999999      -4.34923277E-05
   1.64250004      -4.34411413E-05
   1.64499998      -4.33901805E-05
   1.64750004      -4.33374262E-05
   1.64999998      -4.32854176E-05
   1.65250003      -4.32438683E-05
   1.65499997      -4.32171946E-05
   1.65750003      -4.32017223E-05
   1.65999997      -4.31980625E-05
   1.66250002      -4.32112902E-05
   1.66499996      -4.32442430E-05
   1.66750002      -4.32896741E-05
   1.66999996      -4.33401910E-05
   1.67250001      -4.33950372E-05
   1.67499995      -4.34459980E-05
   1.67750001      -4.34859758E-05
   1.67999995      -4.35153452E-05
   1.68250000      -4.35441143E-05
   1.68499994      -4.35790098E-05
   1.68750000      -4.36207083E-05
   1.69000006      -4.36644186E-05
   1.69250000      -4.37057424E-05
   1.69500005      -4.37383205E-05
   1.69749999      -4.37611889E-05
   1.70000005      -4.37786730E-05
   1.70249999      -4.37909293E-05
   1.70500004      -4.37990711E-05
   1.70749998      -4.38014649E-05
   1.71000004      -4.37974304E-05
   1.71249998      -4.37943672E-05
   1.71500003      -4.38013158E-05
   1.71749997      -4.38223142E-05
   1.72000003      -4.38533971E-05
   1.72249997      -4.38885181E-05
   1.72500002      -4.39231917E-05
   1.72749996      -4.39542018E-05
   1.73000002      -4.39865580E-05
   1.73249996      -4.40306467E-05
   1.73500001      -4.40945332E-05
   1.73749995      -4.41775555E-05
   1.74000001      -4.42749224E-05
   1.74249995      -4.43811041E-05
   1.74500000      -4.44859470E-05
   1.74749994      -4.45848054E-05
   1.75000000      -4.46857557E-05
   1.75250006      -4.48013598E-05
   1.75500000      -4.49363106E-05
   1.75750005      -4.50845655E-05
   1.75999999      -4.52355816E-05
   1.76250005      -4.53785287E-05
   1.76499999      -4.55084773E-05
   1.76750004      -4.56319212E-05
   1.76999998      -4.57604474E-05
   1.77250004      -4.58973445E-05
   1.77499998      -4.60401425E-05
   1.77750003      -4.61808486E-05
   1.77999997      -4.63080323E-05
   1.78250003      -4.64133955E-05
   1.78499997      -4.65003723E-05
   1.78750002      -4.65812263E-05
   1.78999996      -4.66670826E-05
   1.79250002      -4.67646023E-05
   1.79499996      -4.68686158E-05
   1.79750001      -4.69653096E-05
   1.79999995      -4.70419036E-05
   1.80250001      -4.70954801E-05
   1.80499995      -4.71281346E-05
   1.80750000      -4.71474159E-05
   1.80999994      -4.71650492E-05
   1.81250000      -4.71853746E-05
   1.81500006      -4.72063693E-05
   1.81750000      -4.72213142E-05
   1.82000005      -4.72336469E-05
   1.82249999      -4.72411921E-05
   1.82500005      -4.72379834E-05
   1.82749999      -4.72202701E-05
   1.83000004      -4.71883650E-05
   1.83249998      -4.71459971E-05
   1.83500004      -4.71017556E-05
   1.83749998      -4.70694031E-05
   1.84000003      -4.70566993E-05
   1.84249997      -4.70619307E-05
   1.84500003      -4.70732884E-05
   1.84749997      -4.70779196E-05
   1.85000002      -4.70674568E-05
   1.85249996      -4.70511695E-05
   1.85500002      -4.70458617E-05
   1.85749996      -4.70578962E-05
   1.86000001      -4.70851701E-05
   1.86249995      -4.71194653E-05
   1.86500001      -4.71432286E-05
   1.86749995      -4.71444255E-05
   1.87000000      -4.71299281E-05
   1.87249994      -4.71154308E-05
   1.87500000      -4.71146086E-05
   1.87750006      -4.71297062E-05
   1.88000000      -4.71550375E-05
   1.88250005      -4.71731946E-05
   1.88499999      -4.71671410E-05
   1.88750005      -4.71341882E-05
   1.88999999      -4.70850937E-05
   1.89250004      -4.70355517E-05
   1.89499998      -4.69982660E-05
   1.89750004      -4.69792067E-05
   1.89999998      -4.69727820E-05
   1.90250003      -4.69692677E-05
   1.90499997      -4.69588085E-05
   1.90750003      -4.69395272E-05
   1.90999997      -4.69168881E-05
   1.91250002      -4.68985781E-05
   1.91499996      -4.68895378E-05
   1.91750002      -4.68845319E-05
   1.91999996      -4.68813196E-05
   1.92250001      -4.68782564E-05
   1.92499995      -4.68752696E-05
   1.92750001      -4.68707840E-05
   1.92999995      -4.68649523E-05
   1.93250000      -4.68564358E-05
   1.93499994      -4.68401449E-05
   1.93750000      -4.68169819E-05
   1.94000006      -4.67890350E-05
   1.94250000      -4.67577993E-05
   1.94500005      -4.67232021E-05
   1.94749999      -4.66859892E-05
   1.95000005      -4.66468337E-05
   1.95249999      -4.66030433E-05
   1.95500004      -4.65560443E-05
   1.95749998      -4.65092671E-05
   1.96000004      -4.64677178E-05
   1.96249998      -4.64349869E-05
   1.96500003      -4.64107034E-05
   1.96749997      -4.63898577E-05
   1.97000003      -4.63671386E-05
   1.97249997      -4.63429278E-05
   1.97500002      -4.63179713E-05
   1.97749996      -4.62966746E-05
   1.98000002      -4.62822500E-05
   1.98249996      -4.62735079E-05
   1.98500001      -4.62634198E-05
   1.98749995      -4.62452626E-05
   1.99000001      -4.62179123E-05
   1.99249995      -4.61798045E-05
   1.99500000      -4.61342206E-05
   1.99749994      -4.60889387E-05
   2.00000000      -4.60513511E-05
   2.00250006      -4.60169758E-05
   2.00500011      -4.59781222E-05
   2.00749993      -4.59335861E-05
   2.00999999      -4.58853865E-05
   2.01250005      -4.58356953E-05
   2.01500010      -4.57885435E-05
   2.01749992      -4.57449059E-05
   2.01999998      -4.56978269E-05
   2.02250004      -4.56416346E-05
   2.02500010      -4.55793161E-05
   2.02749991      -4.55209556E-05
   2.02999997      -4.54793335E-05
   2.03250003      -4.54601286E-05
   2.03500009      -4.54522851E-05
   2.03749990      -4.54363690E-05
   2.03999996      -4.53996763E-05
   2.04250002      -4.53426619E-05
   2.04500008      -4.52738423E-05
   2.04749990      -4.52095010E-05
   2.04999995      -4.51657907E-05
   2.05250001      -4.51419546E-05
   2.05500007      -4.51260348E-05
   2.05749989      -4.51047381E-05
   2.05999994      -4.50698426E-05
   2.06250000      -4.50185071E-05
   2.06500006      -4.49584295E-05
   2.06750011      -4.49044783E-05
   2.06999993      -4.48611390E-05
   2.07249999      -4.48248938E-05
   2.07500005      -4.47900711E-05
   2.07750010      -4.47515158E-05
   2.07999992      -4.47066814E-05
   2.08249998      -4.46608719E-05
   2.08500004      -4.46208942E-05
   2.08750010      -4.45868245E-05
   2.08999991      -4.45515507E-05
   2.09249997      -4.45073892E-05
   2.09500003      -4.44515717E-05
   2.09750009      -4.43882782E-05
   2.09999990      -4.43266290E-05
   2.10249996      -4.42741002E-05
   2.10500002      -4.42272467E-05
   2.10750008      -4.41783777E-05
   2.10999990      -4.41253214E-05
   2.11249995      -4.40703989E-05
   2.11500001      -4.40203366E-05
   2.11750007      -4.39795367E-05
   2.11999989      -4.39502401E-05
   2.12249994      -4.39234936E-05
   2.12500000      -4.38862044E-05
   2.12750006      -4.38356146E-05
   2.13000011      -4.37765812E-05
   2.13249993      -4.37214367E-05
   2.13499999      -4.36795890E-05
   2.13750005      -4.36537339E-05
   2.14000010      -4.36359514E-05