 -0.159999996       0.00000000    
 -0.157499999       0.00000000    
 -0.155000001       0.00000000    
 -0.152500004       0.00000000    
 -0.150000006       0.00000000    
 -0.147499993       0.00000000    
 -0.144999996       0.00000000    
 -0.142499998      -2.05629785E-19
 -0.140000001       3.67307855E-18
 -0.137500003      -3.67023049E-17
 -0.135000005       1.12695034E-16
 -0.132499993       1.16411682E-16
 -0.129999995      -1.17858367E-15
 -0.127499998       6.71354502E-16
 -0.125000000       5.86580311E-15
 -0.122500002      -7.57388825E-15
 -0.119999997      -1.93518568E-14
 -0.117500000       4.04242307E-14
 -0.115000002       4.74758206E-14
 -0.112499997      -1.62918032E-13
 -0.109999999      -1.00458839E-13
 -0.107500002       5.51810062E-13
 -0.104999997       2.54856927E-13
 -0.102499999      -1.58739504E-12
 -0.100000001      -8.83643527E-13
  -9.74999964E-02   3.77315236E-12
  -9.49999988E-02   3.03745050E-12
  -9.25000012E-02  -7.11157739E-12
  -9.00000036E-02  -8.42068949E-12
  -8.74999985E-02   1.00189683E-11
  -8.50000009E-02   1.80413132E-11
  -8.25000033E-02  -9.28787776E-12
  -7.99999982E-02  -3.01446368E-11
  -7.75000006E-02   2.77091197E-12
  -7.50000030E-02   4.10099697E-11
  -7.24999979E-02   8.03581941E-12
  -7.00000003E-02  -4.99973778E-11
  -6.75000027E-02  -2.24654826E-11
  -6.49999976E-02   5.95510863E-11
  -6.25000000E-02   4.82236508E-11
  -5.99999987E-02  -6.11427436E-11
  -5.75000010E-02  -8.97015101E-11
  -5.49999997E-02   2.99502645E-11
  -5.24999984E-02   1.17934426E-10
  -5.00000007E-02   3.47919020E-11
  -4.74999994E-02  -8.55689478E-11
  -4.50000018E-02  -6.89649310E-11
  -4.25000004E-02   1.32549215E-11
  -3.99999991E-02   1.60039221E-11
  -3.75000015E-02  -2.26678572E-12
  -3.50000001E-02   5.34636259E-11
  -3.24999988E-02   6.76497539E-11
  -2.99999993E-02  -4.23006040E-11
  -2.74999999E-02  -7.88351814E-11
  -2.50000004E-02   5.25018119E-11
  -2.25000009E-02   5.00259209E-11
  -1.99999996E-02  -1.99700340E-10
  -1.75000001E-02  -2.14456314E-10
  -1.49999997E-02   2.34328529E-10
  -1.25000002E-02   4.70807116E-10
  -9.99999978E-03   2.03484261E-11
  -7.49999983E-03  -3.74223930E-10
  -4.99999989E-03  -3.70162512E-11
  -2.49999994E-03   2.24592456E-10
   0.00000000      -4.14258378E-10
   2.49999994E-03  -8.63286942E-10
   4.99999989E-03   2.25211114E-10
   7.49999983E-03   1.64036307E-09
   9.99999978E-03   1.06845444E-09
   1.25000002E-02  -9.82277926E-10
   1.49999997E-02  -1.63426750E-09
   1.75000001E-02  -2.27531466E-10
   1.99999996E-02   6.50298704E-10
   2.25000009E-02  -3.45404788E-10
   2.50000004E-02  -9.31325905E-10
   2.74999999E-02   8.12065970E-10
   2.99999993E-02   2.85724133E-09
   3.24999988E-02   2.39966025E-09
   3.50000001E-02   4.23452995E-10
   3.75000015E-02  -2.12195164E-10
   3.99999991E-02   4.72765493E-10
   4.25000004E-02   5.39044143E-10
   4.50000018E-02   5.48830370E-10
   4.74999994E-02   2.77156964E-09
   5.00000007E-02   6.55962173E-09
   5.24999984E-02   8.63118466E-09
   5.49999997E-02   7.94732813E-09
   5.75000010E-02   7.03576220E-09
   5.99999987E-02   8.61421690E-09
   6.25000000E-02   1.32842271E-08
   6.49999976E-02   1.99306296E-08
   6.75000027E-02   2.68126392E-08
   7.00000003E-02   3.33997185E-08
   7.24999979E-02   4.17910080E-08
   7.50000030E-02   5.44917427E-08
   7.75000006E-02   7.08373094E-08
   7.99999982E-02   8.80203075E-08
   8.25000033E-02   1.05228985E-07
   8.50000009E-02   1.24390553E-07
   8.74999985E-02   1.47914889E-07
   9.00000036E-02   1.78115926E-07
   9.25000012E-02   2.17141917E-07
   9.49999988E-02   2.64569906E-07
   9.74999964E-02   3.16397546E-07
  0.100000001       3.69362027E-07
  0.102499999       4.25787817E-07
  0.104999997       4.91464903E-07
  0.107500002       5.67963127E-07
  0.109999999       6.49171056E-07
  0.112499997       7.27333088E-07
  0.115000002       8.00803605E-07
  0.117500000       8.72748672E-07
  0.119999997       9.43427040E-07
  0.122500002       1.00719114E-06
  0.125000000       1.05518563E-06
  0.127499998       1.07655865E-06
  0.129999995       1.05904917E-06
  0.132499993       9.92968239E-07
  0.135000005       8.71881184E-07
  0.137500003       6.85235023E-07
  0.140000001       4.12783464E-07
  0.142499998       2.88081328E-08
  0.144999996      -4.92091488E-07
  0.147499993      -1.17458092E-06
  0.150000006      -2.04391017E-06
  0.152500004      -3.12793782E-06
  0.155000001      -4.46163494E-06
  0.157499999      -6.08898608E-06
  0.159999996      -8.05830678E-06
  0.162499994      -1.04178644E-05
  0.165000007      -1.32168188E-05
  0.167500004      -1.65075071E-05
  0.170000002      -2.03476629E-05
  0.172499999      -2.48048163E-05
  0.174999997      -2.99562253E-05
  0.177499995      -3.58819816E-05
  0.180000007      -4.26601946E-05
  0.182500005      -5.03695082E-05
  0.185000002      -5.90917225E-05
  0.187500000      -6.89130247E-05
  0.189999998      -7.99244081E-05
  0.192499995      -9.22220206E-05
  0.194999993      -1.05904415E-04
  0.197500005      -1.21064717E-04
  0.200000003      -1.37785668E-04
  0.202500001      -1.56137932E-04
  0.204999998      -1.76190442E-04
  0.207499996      -1.98015929E-04
  0.209999993      -2.21686176E-04
  0.212500006      -2.47255957E-04
  0.215000004      -2.74759135E-04
  0.217500001      -3.04212881E-04
  0.219999999      -3.35618330E-04
  0.222499996      -3.68962676E-04
  0.224999994      -4.04226506E-04
  0.227500007      -4.41380544E-04
  0.230000004      -4.80372051E-04
  0.232500002      -5.21126203E-04
  0.234999999      -5.63553534E-04
  0.237499997      -6.07555499E-04
  0.239999995      -6.53023191E-04
  0.242500007      -6.99834141E-04
  0.245000005      -7.47859711E-04
  0.247500002      -7.96964276E-04
  0.250000000      -8.47002957E-04
  0.252499998      -8.97831575E-04
  0.254999995      -9.49305308E-04
  0.257499993      -1.00127957E-03
  0.259999990      -1.05360872E-03
  0.262499988      -1.10614346E-03
  0.264999986      -1.15872931E-03
  0.267500013      -1.21121784E-03
  0.270000011      -1.26346294E-03
  0.272500008      -1.31531176E-03
  0.275000006      -1.36660761E-03
  0.277500004      -1.41719077E-03
  0.280000001      -1.46688637E-03
  0.282499999      -1.51549804E-03
  0.284999996      -1.56282331E-03
  0.287499994      -1.60864030E-03
  0.289999992      -1.65270397E-03
  0.292499989      -1.69473642E-03
  0.294999987      -1.73444918E-03
  0.297500014      -1.77151035E-03
  0.300000012      -1.80557405E-03
  0.302500010      -1.83625415E-03
  0.305000007      -1.86313130E-03
  0.307500005      -1.88575312E-03
  0.310000002      -1.90364162E-03
  0.312500000      -1.91629934E-03
  0.314999998      -1.92322547E-03
  0.317499995      -1.92389020E-03
  0.319999993      -1.91777351E-03
  0.322499990      -1.90434465E-03
  0.324999988      -1.88309769E-03
  0.327499986      -1.85353530E-03
  0.330000013      -1.81522255E-03
  0.332500011      -1.76777411E-03
  0.335000008      -1.71086134E-03
  0.337500006      -1.64424628E-03
  0.340000004      -1.56778446E-03
  0.342500001      -1.48143608E-03
  0.344999999      -1.38530077E-03
  0.347499996      -1.27957889E-03
  0.349999994      -1.16464403E-03
  0.352499992      -1.04099547E-03
  0.354999989      -9.09286260E-04
  0.357499987      -7.70307903E-04
  0.360000014      -6.25004759E-04
  0.362500012      -4.74436238E-04
  0.365000010      -3.19817045E-04
  0.367500007      -1.62425247E-04
  0.370000005      -3.63939284E-06
  0.372500002       1.55087866E-04
  0.375000000       3.12290766E-04
  0.377499998       4.66489117E-04
  0.379999995       6.16233854E-04
  0.382499993       7.60122610E-04
  0.384999990       8.96840123E-04
  0.387499988       1.02517777E-03
  0.389999986       1.14405109E-03
  0.392500013       1.25252863E-03
  0.395000011       1.34984893E-03
  0.397500008       1.43543072E-03
  0.400000006       1.50887750E-03
  0.402500004       1.56999507E-03
  0.405000001       1.61878322E-03
  0.407499999       1.65543123E-03
  0.409999996       1.68029929E-03
  0.412499994       1.69390230E-03
  0.414999992       1.69688603E-03
  0.417499989       1.69000844E-03
  0.419999987       1.67412730E-03
  0.422500014       1.65018055E-03
  0.425000012       1.61916122E-03
  0.427500010       1.58208224E-03
  0.430000007       1.53995166E-03
  0.432500005       1.49375200E-03
  0.435000002       1.44442974E-03
  0.437500000       1.39288325E-03
  0.439999998       1.33994943E-03
  0.442499995       1.28637766E-03
  0.444999993       1.23283896E-03
  0.447499990       1.17990456E-03
  0.449999988       1.12804922E-03
  0.452499986       1.07766443E-03
  0.455000013       1.02907303E-03
  0.457500011       9.82514233E-04
  0.460000008       9.38145560E-04
  0.462500006       8.96041514E-04
  0.465000004       8.56223400E-04
  0.467500001       8.18658969E-04
  0.469999999       7.83272902E-04
  0.472499996       7.49973173E-04
  0.474999994       7.18658150E-04
  0.477499992       6.89198670E-04
  0.479999989       6.61453698E-04
  0.482499987       6.35273696E-04
  0.485000014       6.10503368E-04
  0.487500012       5.86989627E-04
  0.490000010       5.64605638E-04
  0.492500007       5.43259492E-04
  0.495000005       5.22873423E-04
  0.497500002       5.03366056E-04
  0.500000000       4.84683667E-04
  0.502499998       4.66764119E-04
  0.504999995       4.49545129E-04
  0.507499993       4.32994479E-04
  0.509999990       4.17095463E-04
  0.512499988       4.01843281E-04
  0.514999986       3.87240259E-04
  0.517499983       3.73291230E-04
  0.519999981       3.59978265E-04
  0.522499979       3.47288238E-04
  0.524999976       3.35195975E-04
  0.527499974       3.23696731E-04
  0.529999971       3.12765420E-04
  0.532500029       3.02392436E-04
  0.535000026       2.92553857E-04
  0.537500024       2.83219852E-04
  0.540000021       2.74361693E-04
  0.542500019       2.65944691E-04
  0.545000017       2.57942564E-04
  0.547500014       2.50315847E-04
  0.550000012       2.43026312E-04
  0.552500010       2.36054810E-04
  0.555000007       2.29365440E-04
  0.557500005       2.22937917E-04
  0.560000002       2.16753106E-04
  0.562500000       2.10791870E-04
  0.564999998       2.05044649E-04
  0.567499995       1.99477945E-04
  0.569999993       1.94084612E-04
  0.572499990       1.88850288E-04
  0.574999988       1.83763041E-04
  0.577499986       1.78816859E-04
  0.579999983       1.74017739E-04
  0.582499981       1.69350125E-04
  0.584999979       1.64794910E-04
  0.587499976       1.60334137E-04
  0.589999974       1.55948699E-04
  0.592499971       1.51635002E-04
  0.595000029       1.47388244E-04
  0.597500026       1.43202458E-04
  0.600000024       1.39075259E-04
  0.602500021       1.34995891E-04
  0.605000019       1.30952380E-04
  0.607500017       1.26931598E-04
  0.610000014       1.22923972E-04
  0.612500012       1.18931872E-04
  0.615000010       1.14956514E-04
  0.617500007       1.11007459E-04
  0.620000005       1.07085907E-04
  0.622500002       1.03193051E-04
  0.625000000       9.93396461E-05
  0.627499998       9.55244977E-05
  0.629999995       9.17547877E-05
  0.632499993       8.80293082E-05
  0.634999990       8.43636153E-05
  0.637499988       8.07565084E-05
  0.639999986       7.72199346E-05
  0.642499983       7.37479204E-05
  0.644999981       7.03428668E-05
  0.647499979       6.70011723E-05
  0.649999976       6.37144840E-05
  0.652499974       6.04887682E-05
  0.654999971       5.73060934E-05
  0.657500029       5.41568952E-05
  0.660000026       5.10351929E-05
  0.662500024       4.79374030E-05
  0.665000021       4.48659157E-05
  0.667500019       4.18195414E-05
  0.670000017       3.87994660E-05
  0.672500014       3.57877616E-05
  0.675000012       3.27844245E-05
  0.677500010       2.97739170E-05
  0.680000007       2.67562336E-05
  0.682500005       2.37505064E-05
  0.685000002       2.07794510E-05
  0.687500000       1.78657847E-05
  0.689999998       1.50178766E-05
  0.692499995       1.22405072E-05
  0.694999993       9.51574475E-06
  0.697499990       6.84956694E-06
  0.699999988       4.24555992E-06
  0.702499986       1.71687520E-06
  0.704999983      -7.24530935E-07
  0.707499981      -3.05833350E-06
  0.709999979      -5.28453256E-06
  0.712499976      -7.40671430E-06
  0.714999974      -9.44520525E-06
  0.717499971      -1.14191325E-05
  0.720000029      -1.33320855E-05
  0.722500026      -1.51876502E-05
  0.725000024      -1.69810446E-05
  0.727500021      -1.87122660E-05
  0.730000019      -2.03920772E-05
  0.732500017      -2.20300444E-05
  0.735000014      -2.36488813E-05
  0.737500012      -2.52557602E-05
  0.740000010      -2.68435106E-05
  0.742500007      -2.84001762E-05
  0.745000005      -2.99114090E-05
  0.747500002      -3.13772107E-05
  0.750000000      -3.27939924E-05
  0.752499998      -3.41677296E-05
  0.754999995      -3.55079937E-05
  0.757499993      -3.68111905E-05
  0.759999990      -3.80773272E-05
  0.762499988      -3.92920520E-05
  0.764999986      -4.04386265E-05
  0.767499983      -4.15015129E-05
  0.769999981      -4.24819009E-05
  0.772499979      -4.33845780E-05
  0.774999976      -4.42262753E-05
  0.777499974      -4.50165644E-05
  0.779999971      -4.57673959E-05
  0.782500029      -4.64763834E-05
  0.785000026      -4.71303756E-05
  0.787500024      -4.77245885E-05
  0.790000021      -4.82602154E-05
  0.792500019      -4.87456273E-05
  0.795000017      -4.92059335E-05
  0.797500014      -4.96554749E-05
  0.800000012      -5.00966489E-05
  0.802500010      -5.05258649E-05
  0.805000007      -5.09228048E-05
  0.807500005      -5.12790939E-05
  0.810000002      -5.15983156E-05
  0.812500000      -5.18996094E-05
  0.814999998      -5.22032897E-05
  0.817499995      -5.25165378E-05
  0.819999993      -5.28285855E-05
  0.822499990      -5.31286787E-05
  0.824999988      -5.33857346E-05
  0.827499986      -5.35937652E-05
  0.829999983      -5.37563683E-05
  0.832499981      -5.38902750E-05
  0.834999979      -5.40146175E-05
  0.837499976      -5.41431400E-05
  0.839999974      -5.42794405E-05
  0.842499971      -5.44097602E-05
  0.845000029      -5.45125804E-05
  0.847500026      -5.45753537E-05
  0.850000024      -5.45938819E-05
  0.852500021      -5.45747534E-05
  0.855000019      -5.45376897E-05
  0.857500017      -5.45078001E-05
  0.860000014      -5.44982322E-05
  0.862500012      -5.45078001E-05
  0.865000010      -5.45347029E-05
  0.867500007      -5.45669827E-05
  0.870000005      -5.45896983E-05
  0.872500002      -5.46052433E-05
  0.875000000      -5.46237716E-05
  0.877499998      -5.46506708E-05
  0.879999995      -5.46955052E-05
  0.882499993      -5.47642558E-05
  0.884999990      -5.48431635E-05
  0.887499988      -5.49208780E-05
  0.889999986      -5.49938086E-05
  0.892499983      -5.50661425E-05
  0.894999981      -5.51402663E-05
  0.897499979      -5.52257552E-05
  0.899999976      -5.53160207E-05
  0.902499974      -5.53937389E-05
  0.904999971      -5.54451472E-05
  0.907500029      -5.54666658E-05
  0.910000026      -5.54648759E-05
  0.912500024      -5.54606886E-05
  0.915000021      -5.54720500E-05
  0.917500019      -5.55097104E-05
  0.920000017      -5.55605220E-05
  0.922500014      -5.56131272E-05
  0.925000012      -5.56543746E-05
  0.927500010      -5.56752966E-05
  0.930000007      -5.56741034E-05
  0.932500005      -5.56681262E-05
  0.935000002      -5.56758969E-05
  0.937500000      -5.57057865E-05
  0.939999998      -5.57673593E-05
  0.942499995      -5.58570318E-05
  0.944999993      -5.59580585E-05
  0.947499990      -5.60507178E-05
  0.949999988      -5.61218549E-05
  0.952499986      -5.61708730E-05
  0.954999983      -5.62013593E-05
  0.957499981      -5.62312489E-05
  0.959999979      -5.62742935E-05
  0.962499976      -5.63316826E-05
  0.964999974      -5.63950489E-05
  0.967499971      -5.64500442E-05
  0.970000029      -5.64745533E-05
  0.972500026      -5.64614020E-05
  0.975000024      -5.64225447E-05
  0.977500021      -5.63747235E-05
  0.980000019      -5.63298854E-05
  0.982500017      -5.62964087E-05
  0.985000014      -5.62671194E-05
  0.987500012      -5.62258720E-05
  0.990000010      -5.61619054E-05
  0.992500007      -5.60728331E-05
  0.995000005      -5.59795772E-05
  0.997500002      -5.58982792E-05
   1.00000000      -5.58361062E-05
   1.00250006      -5.57846943E-05
   1.00500000      -5.57314925E-05
   1.00750005      -5.56627456E-05
   1.00999999      -5.55760635E-05
   1.01250005      -5.54851977E-05
   1.01499999      -5.54074868E-05
   1.01750004      -5.53489008E-05
   1.01999998      -5.53106438E-05
   1.02250004      -5.52705897E-05
   1.02499998      -5.52114070E-05
   1.02750003      -5.51277153E-05
   1.02999997      -5.50237019E-05
   1.03250003      -5.49166907E-05
   1.03499997      -5.48168609E-05
   1.03750002      -5.47277887E-05
   1.03999996      -5.46387200E-05
   1.04250002      -5.45364928E-05
   1.04499996      -5.44193244E-05
   1.04750001      -5.42902017E-05
   1.04999995      -5.41503141E-05
   1.05250001      -5.40026595E-05
   1.05499995      -5.38508211E-05
   1.05750000      -5.36822408E-05
   1.05999994      -5.34993160E-05
   1.06250000      -5.33086168E-05
   1.06500006      -5.31244950E-05
   1.06750000      -5.29547178E-05
   1.07000005      -5.27969023E-05
   1.07249999      -5.26450604E-05
   1.07500005      -5.24848510E-05
   1.07749999      -5.23096969E-05
   1.08000004      -5.21219881E-05
   1.08249998      -5.19306923E-05
   1.08500004      -5.17507578E-05
   1.08749998      -5.15881547E-05
   1.09000003      -5.14387066E-05
   1.09249997      -5.12898550E-05
   1.09500003      -5.11302424E-05
   1.09749997      -5.09568818E-05
   1.10000002      -5.07781406E-05
   1.10249996      -5.06023862E-05
   1.10500002      -5.04332093E-05
   1.10749996      -5.02610419E-05
   1.11000001      -5.00763235E-05
   1.11249995      -4.98760601E-05
   1.11500001      -4.96674293E-05
   1.11749995      -4.94576016E-05
   1.12000000      -4.92543550E-05
   1.12249994      -4.90576749E-05
   1.12500000      -4.88615988E-05
   1.12750006      -4.86607387E-05
   1.13000000      -4.84550983E-05
   1.13250005      -4.82488576E-05
   1.13499999      -4.80575618E-05
   1.13750005      -4.78806141E-05
   1.13999999      -4.77120338E-05
   1.14250004      -4.75368797E-05
   1.14499998      -4.73479740E-05
   1.14750004      -4.71477142E-05
   1.14999998      -4.69558181E-05
   1.15250003      -4.67926220E-05
   1.15499997      -4.66664824E-05
   1.15750003      -4.65618687E-05
   1.15999997      -4.64447039E-05
   1.16250002      -4.62928620E-05
   1.16499996      -4.61045565E-05
   1.16750002      -4.59078838E-05
   1.16999996      -4.57345195E-05
   1.17250001      -4.56012131E-05
   1.17499995      -4.54936053E-05
   1.17750001      -4.53758403E-05
   1.17999995      -4.52240020E-05
   1.18250000      -4.50350963E-05
   1.18499994      -4.48294522E-05
   1.18750000      -4.46363665E-05
   1.19000006      -4.44779471E-05
   1.19250000      -4.43488243E-05
   1.19500005      -4.42220917E-05
   1.19749999      -4.40696531E-05
   1.20000005      -4.38861280E-05
   1.20249999      -4.36894516E-05
   1.20500004      -4.35077236E-05
   1.20749998      -4.33630557E-05
   1.21000004      -4.32554516E-05
   1.21249998      -4.31651861E-05
   1.21500003      -4.30659493E-05
   1.21749997      -4.29440006E-05
   1.22000003      -4.28094936E-05
   1.22249997      -4.26851511E-05
   1.22500002      -4.25883081E-05
   1.22749996      -4.25135840E-05
   1.23000002      -4.24436439E-05
   1.23249996      -4.23605488E-05
   1.23500001      -4.22672929E-05
   1.23749995      -4.21692530E-05
   1.24000001      -4.20777906E-05
   1.24249995      -4.20048564E-05
   1.24500000      -4.19361131E-05
   1.24749994      -4.18560085E-05
   1.25000000      -4.17561751E-05
   1.25250006      -4.16413968E-05
   1.25500000      -4.15278155E-05
   1.25750005      -4.14327660E-05
   1.25999999      -4.13640191E-05
   1.26250005      -4.13102171E-05
   1.26499999      -4.12480476E-05
   1.26750004      -4.11679430E-05
   1.26999998      -4.10800676E-05
   1.27250004      -4.10083303E-05
   1.27499998      -4.09796376E-05
   1.27750003      -4.09993627E-05
   1.27999997      -4.10441971E-05
   1.28250003      -4.10860448E-05
   1.28499997      -4.11105539E-05
   1.28750002      -4.11296824E-05
   1.28999996      -4.11661495E-05
   1.29250002      -4.12426671E-05
   1.29499996      -4.13610323E-05
   1.29750001      -4.14961323E-05
   1.29999995      -4.16144976E-05
   1.30250001      -4.17035699E-05
   1.30499995      -4.17717201E-05
   1.30750000      -4.18350864E-05
   1.30999994      -4.19104035E-05
   1.31250000      -4.20000761E-05
   1.31500006      -4.20837678E-05
   1.31750000      -4.21363729E-05
   1.32000005      -4.21483310E-05
   1.32249999      -4.21280056E-05
   1.32500005      -4.20957258E-05
   1.32749999      -4.20688229E-05
   1.33000004      -4.20556717E-05
   1.33249998      -4.20467040E-05
   1.33500004      -4.20239885E-05
   1.33749998      -4.19809476E-05
   1.34000003      -4.19247554E-05
   1.34249997      -4.18685631E-05
   1.34500003      -4.18338896E-05
   1.34749997      -4.18249219E-05
   1.35000002      -4.18308991E-05
   1.35249996      -4.18398668E-05
   1.35500002      -4.18476375E-05
   1.35749996      -4.18673662E-05
   1.36000001      -4.19151875E-05
   1.36249995      -4.19976859E-05
   1.36500001      -4.20987126E-05
   1.36749995      -4.21937657E-05
   1.37000000      -4.22660960E-05
   1.37249994      -4.23240854E-05
   1.37500000      -4.23832644E-05
   1.37750006      -4.24651626E-05
   1.38000000      -4.25727667E-05
   1.38250005      -4.26941224E-05
   1.38499999      -4.28005260E-05
   1.38750005      -4.28764470E-05
   1.38999999      -4.29236716E-05
   1.39250004      -4.29565516E-05
   1.39499998      -4.29930187E-05
   1.39750004      -4.30414402E-05
   1.39999998      -4.30970358E-05
   1.40250003      -4.31412736E-05
   1.40499997      -4.31610024E-05
   1.40750003      -4.31615990E-05
   1.40999997      -4.31621920E-05
   1.41250002      -4.31867047E-05
   1.41499996      -4.32470842E-05
   1.41750002      -4.33224086E-05
   1.41999996      -4.33845780E-05
   1.42250001      -4.34156645E-05
   1.42499995      -4.34210415E-05
   1.42750001      -4.34288122E-05
   1.42999995      -4.34694630E-05
   1.43250000      -4.35606271E-05
   1.43499994      -4.36798873E-05
   1.43750000      -4.37901799E-05
   1.44000006      -4.38681927E-05
   1.44250000      -4.39088471E-05
   1.44500005      -4.39222968E-05
   1.44749999      -4.39339528E-05
   1.45000005      -4.39650394E-05
   1.45249999      -4.40122640E-05
   1.45500004      -4.40487274E-05
   1.45749998      -4.40514195E-05
   1.46000004      -4.40152508E-05
   1.46249998      -4.39551732E-05
   1.46500003      -4.38962925E-05
   1.46749997      -4.38520547E-05
   1.47000003      -4.38149909E-05
   1.47249997      -4.37626841E-05
   1.47500002      -4.36831760E-05
   1.47749996      -4.35773654E-05
   1.48000002      -4.34643844E-05
   1.48249996      -4.33735186E-05
   1.48500001      -4.33247951E-05
   1.48749995      -4.33059649E-05
   1.49000001      -4.32961024E-05
   1.49249995      -4.32802626E-05
   1.49500000      -4.32551533E-05
   1.49749994      -4.32270572E-05
   1.50000000      -4.32148008E-05
   1.50250006      -4.32270572E-05
   1.50500000      -4.32590350E-05
   1.50750005      -4.32955057E-05
   1.50999999      -4.33307723E-05
   1.51250005      -4.33696332E-05
   1.51499999      -4.34132708E-05
   1.51750004      -4.34691647E-05
   1.51999998      -4.35313377E-05
   1.52250004      -4.35854345E-05
   1.52499998      -4.36195114E-05
   1.52750003      -4.36371447E-05
   1.52999997      -4.36482042E-05
   1.53250003      -4.36682312E-05
   1.53499997      -4.37061935E-05
   1.53750002      -4.37573035E-05
   1.53999996      -4.37994495E-05
   1.54250002      -4.38176794E-05
   1.54499996      -4.38114039E-05
   1.54750001      -4.37952622E-05
   1.54999995      -4.37833078E-05
   1.55250001      -4.37919771E-05
   1.55499995      -4.38176794E-05
   1.55750000      -4.38469724E-05
   1.55999994      -4.38672978E-05
   1.56250000      -4.38789575E-05
   1.56500006      -4.38903153E-05
   1.56750000      -4.39172145E-05
   1.57000005      -4.39707183E-05
   1.57249999      -4.40463373E-05
   1.57500005      -4.41282355E-05
   1.57749999      -4.42044548E-05
   1.58000004      -4.42752935E-05
   1.58249998      -4.43476274E-05
   1.58500004      -4.44366997E-05
   1.58749998      -4.45544683E-05
   1.59000003      -4.46979357E-05
   1.59249997      -4.48467908E-05
   1.59500003      -4.49830877E-05
   1.59749997      -4.51035448E-05
   1.60000002      -4.52165295E-05
   1.60249996      -4.53390785E-05
   1.60500002      -4.54828441E-05
   1.60749996      -4.56424605E-05
   1.61000001      -4.57999777E-05
   1.61249995      -4.59389667E-05
   1.61500001      -4.60543415E-05
   1.61749995      -4.61538766E-05
   1.62000000      -4.62575917E-05
   1.62249994      -4.63765537E-05
   1.62500000      -4.65062731E-05
   1.62750006      -4.66294223E-05
   1.63000000      -4.67325444E-05
   1.63250005      -4.68114522E-05
   1.63499999      -4.68703365E-05
   1.63750005      -4.69241386E-05
   1.63999999      -4.69875049E-05
   1.64250004      -4.70613304E-05
   1.64499998      -4.71279855E-05
   1.64750004      -4.71782041E-05
   1.64999998      -4.72057000E-05
   1.65250003      -4.72137690E-05
   1.65499997      -4.72134707E-05
   1.65750003      -4.72158608E-05
   1.65999997      -4.72236316E-05
   1.66250002      -4.72293141E-05
   1.66499996      -4.72242318E-05
   1.66750002      -4.72048014E-05
   1.66999996      -4.71737185E-05
   1.67250001      -4.71420317E-05
   1.67499995      -4.71193162E-05
   1.67750001      -4.71049716E-05
   1.67999995      -4.70939121E-05
   1.68250000      -4.70834493E-05
   1.68499994      -4.70694031E-05
   1.68750000      -4.70553532E-05
   1.69000006      -4.70481791E-05
   1.69250000      -4.70559498E-05
   1.69500005      -4.70711930E-05
   1.69749999      -4.70873347E-05
   1.70000005      -4.71019812E-05
   1.70249999      -4.71112471E-05
   1.70500004      -4.71133390E-05
   1.70749998      -4.71154308E-05
   1.71000004      -4.71276871E-05
   1.71249998      -4.71495041E-05
   1.71500003      -4.71689345E-05
   1.71749997      -4.71746134E-05
   1.72000003      -4.71614621E-05
   1.72249997      -4.71318708E-05
   1.72500002      -4.70992927E-05
   1.72749996      -4.70753803E-05
   1.73000002      -4.70604355E-05
   1.73249996      -4.70502746E-05
   1.73500001      -4.70398118E-05
   1.73749995      -4.70203813E-05
   1.74000001      -4.69895967E-05
   1.74249995      -4.69549232E-05
   1.74500000      -4.69265287E-05
   1.74749994      -4.69091938E-05
   1.75000000      -4.69056031E-05
   1.75250006      -4.69136758E-05
   1.75500000      -4.69193546E-05
   1.75750005      -4.69139741E-05
   1.75999999      -4.68972357E-05
   1.76250005      -4.68751205E-05
   1.76499999      -4.68562866E-05
   1.76750004      -4.68458238E-05
   1.76999998      -4.68446306E-05
   1.77250004      -4.68482176E-05
   1.77499998      -4.68482176E-05
   1.77750003      -4.68374565E-05
   1.77999997      -4.68105573E-05
   1.78250003      -4.67651225E-05
   1.78499997      -4.67107238E-05
   1.78750002      -4.66554266E-05
   1.78999996      -4.66064084E-05
   1.79250002      -4.65720332E-05
   1.79499996      -4.65517078E-05
   1.79750001      -4.65349731E-05
   1.79999995      -4.65107587E-05
   1.80250001      -4.64736950E-05
   1.80499995      -4.64291588E-05
   1.80750000      -4.63831275E-05
   1.80999994      -4.63454671E-05
   1.81250000      -4.63209581E-05
   1.81500006      -4.63102006E-05
   1.81750000      -4.63087017E-05
   1.82000005      -4.63030265E-05
   1.82249999      -4.62871831E-05
   1.82500005      -4.62575917E-05
   1.82749999      -4.62226199E-05
   1.83000004      -4.61870513E-05
   1.83249998      -4.61583550E-05
   1.83500004      -4.61395284E-05
   1.83749998      -4.61245836E-05
   1.84000003      -4.60964839E-05
   1.84249997      -4.60465671E-05
   1.84500003      -4.59790172E-05
   1.84749997      -4.59078838E-05
   1.85000002      -4.58481009E-05
   1.85249996      -4.58065551E-05
   1.85500002      -4.57787573E-05
   1.85749996      -4.57518545E-05
   1.86000001      -4.57135975E-05
   1.86249995      -4.56606940E-05
   1.86500001      -4.55979207E-05
   1.86749995      -4.55369482E-05
   1.87000000      -4.54876281E-05
   1.87249994      -4.54538531E-05
   1.87500000      -4.54299407E-05
   1.87750006      -4.54045330E-05
   1.88000000      -4.53731518E-05
   1.88250005      -4.53325010E-05
   1.88499999      -4.52843742E-05
   1.88750005      -4.52380482E-05
   1.88999999      -4.51994893E-05
   1.89250004      -4.51684027E-05
   1.89499998      -4.51349260E-05
   1.89750004      -4.50936786E-05
   1.89999998      -4.50452571E-05
   1.90250003      -4.49965373E-05
   1.90499997      -4.49540967E-05
   1.90750003      -4.49179242E-05
   1.90999997      -4.48835563E-05
   1.91250002      -4.48438004E-05
   1.91499996      -4.47947787E-05
   1.91750002      -4.47442690E-05
   1.91999996      -4.47024213E-05
   1.92250001      -4.46749254E-05
   1.92499995      -4.46537015E-05
   1.92750001      -4.46220183E-05
   1.92999995      -4.45673177E-05
   1.93250000      -4.44878133E-05
   1.93499994      -4.43993376E-05
   1.93750000      -4.43249119E-05
   1.94000006      -4.42830642E-05
   1.94250000      -4.42714118E-05
   1.94500005      -4.42657292E-05
   1.94749999      -4.42397250E-05
   1.95000005      -4.41793491E-05
   1.95249999      -4.40935655E-05
   1.95500004      -4.40068834E-05
   1.95749998      -4.39396317E-05
   1.96000004      -4.39010764E-05
   1.96249998      -4.38849347E-05
   1.96500003      -4.38735733E-05
   1.96749997      -4.38505595E-05
   1.97000003      -4.38137940E-05
   1.97249997      -4.37710514E-05
   1.97500002      -4.37277122E-05
   1.97749996      -4.36828777E-05
   1.98000002      -4.36362498E-05