   0.00000000       0.00000000    
   2.49999994E-03   0.00000000    
   4.99999989E-03   0.00000000    
   7.49999983E-03   0.00000000    
   9.99999978E-03   0.00000000    
   1.25000002E-02   0.00000000    
   1.49999997E-02   0.00000000    
   1.75000001E-02   0.00000000    
   1.99999996E-02   0.00000000    
   2.25000009E-02   0.00000000    
   2.50000004E-02   0.00000000    
   2.74999999E-02   0.00000000    
   2.99999993E-02   0.00000000    
   3.24999988E-02   0.00000000    
   3.50000001E-02   3.03627998E-38
   3.75000015E-02  -3.69683879E-37
   3.99999991E-02   3.22538424E-36
   4.25000004E-02   1.04262891E-35
   4.50000018E-02  -6.34718678E-35
   4.74999994E-02  -1.52616119E-34
   5.00000007E-02   6.56655527E-34
   5.24999984E-02   1.81280680E-33
   5.49999997E-02  -3.77095429E-33
   5.75000010E-02  -1.52047593E-32
   5.99999987E-02   8.50830525E-33
   6.25000000E-02   8.48534124E-32
   6.49999976E-02   3.77488499E-32
   6.75000027E-02  -3.08947610E-31
   7.00000003E-02  -4.01533824E-31
   7.24999979E-02   6.93498221E-31
   7.50000030E-02   1.74002899E-30
   7.75000006E-02  -7.47759651E-31
   7.99999982E-02  -5.04969653E-30
   8.25000033E-02  -6.39904471E-31
   8.50000009E-02   1.29257735E-29
   8.74999985E-02   7.17788975E-30
   9.00000036E-02  -3.45717545E-29
   9.25000012E-02  -4.44238883E-29
   9.49999988E-02   7.03128976E-29
   9.74999964E-02   2.00494074E-28
  0.100000001       1.12370873E-29
  0.102499999      -5.33986755E-28
  0.104999997      -6.62906965E-28
  0.107500002       5.01490009E-28
  0.109999999       2.17575772E-27
  0.112499997       1.63899970E-27
  0.115000002      -2.53624771E-27
  0.117500000      -6.62586615E-27
  0.119999997      -3.66281176E-27
  0.122500002       7.67646787E-27
  0.125000000       1.67588292E-26
  0.127499998       8.79902541E-27
  0.129999995      -1.65081162E-26
  0.132499993      -3.64037891E-26
  0.135000005      -2.31406168E-26
  0.137500003       2.37425485E-26
  0.140000001       6.63807778E-26
  0.142499998       5.84751589E-26
  0.144999996      -8.59790594E-27
  0.147499993      -9.09734117E-26
  0.150000006      -1.25377004E-25
  0.152500004      -7.54009832E-26
  0.155000001       5.05580954E-26
  0.157499999       2.04625712E-25
  0.159999996       2.95457597E-25
  0.162499994       1.91842443E-25
  0.165000007      -1.88999388E-25
  0.167500004      -6.99218795E-25
  0.170000002      -8.72480950E-25
  0.172499999      -2.02301888E-25
  0.174999997       1.23220912E-24
  0.177499995       2.34838093E-24
  0.180000007       1.59028432E-24
  0.182500005      -1.53716341E-24
  0.185000002      -5.11504116E-24
  0.187500000      -5.39168245E-24
  0.189999998       1.50867799E-25
  0.192499995       9.23431109E-24
  0.194999993       1.43741801E-23
  0.197500005       7.76324564E-24
  0.200000003      -1.09287607E-23
  0.202500001      -3.02960421E-23
  0.204999998      -3.22431370E-23
  0.207499996      -5.54557305E-24
  0.209999993       4.10119886E-23
  0.212500006       7.75748144E-23
  0.215000004       6.92779035E-23
  0.217500001       1.91341210E-24
  0.219999999      -9.97736064E-23
  0.222499996      -1.76569462E-22
  0.224999994      -1.64429915E-22
  0.227500007      -3.51561637E-23
  0.230000004       1.75110700E-22
  0.232500002       3.68364595E-22
  0.234999999       4.21698055E-22
  0.237499997       2.45404000E-22
  0.239999995      -1.60465971E-22
  0.242500007      -6.73007606E-22
  0.245000005      -1.05341330E-21
  0.247500002      -1.00743359E-21
  0.250000000      -3.10001939E-22
  0.252499998       1.01417462E-21
  0.254999995       2.51500893E-21
  0.257499993       3.28383837E-21
  0.259999990       2.23705564E-21
  0.262499988      -1.20760049E-21
  0.264999986      -6.26818647E-21
  0.267500013      -1.03131659E-20
  0.270000011      -9.46935524E-21
  0.272500008      -6.71697718E-22
  0.275000006       1.54352710E-20
  0.277500004       3.24132759E-20
  0.280000001       3.88308726E-20
  0.282499999       2.30333660E-20
  0.284999996      -1.93196094E-20
  0.287499994      -7.85924075E-20
  0.289999992      -1.29926513E-19
  0.292499989      -1.40160727E-19
  0.294999987      -8.16721301E-20
  0.297500014       5.21746401E-20
  0.300000012       2.36895196E-19
  0.302500010       4.17033756E-19
  0.305000007       5.17222492E-19
  0.307500005       4.60972763E-19
  0.310000002       1.92956124E-19
  0.312500000      -2.97944925E-19
  0.314999998      -9.56209311E-19
  0.317499995      -1.64129270E-18
  0.319999993      -2.12262010E-18
  0.322499990      -2.10359226E-18
  0.324999988      -1.29033320E-18
  0.327499986       4.90854714E-19
  0.330000013       3.14751467E-18
  0.332500011       6.19662462E-18
  0.335000008       8.73269958E-18
  0.337500006       9.55472438E-18
  0.340000004       7.47714281E-18
  0.342500001       1.77732783E-18
  0.344999999      -7.34732012E-18
  0.347499996      -1.84854270E-17
  0.349999994      -2.90325473E-17
  0.352499992      -3.55859816E-17
  0.354999989      -3.46499407E-17
  0.357499987      -2.34964508E-17
  0.360000014      -1.02033297E-18
  0.362500012       3.15165740E-17
  0.365000010       6.99133186E-17
  0.367500007       1.06749663E-16
  0.370000005       1.31681489E-16
  0.372500002       1.32738811E-16
  0.375000000       9.89567880E-17
  0.377499998       2.42021384E-17
  0.379999995      -8.86915097E-17
  0.382499993      -2.25021423E-16
  0.384999990      -3.58178099E-16
  0.387499988      -4.53375814E-16
  0.389999986      -4.74706063E-16
  0.392500013      -3.93740513E-16
  0.395000011      -1.97322440E-16
  0.397500008       1.07316328E-16
  0.400000006       4.90724515E-16
  0.402500004       9.02150758E-16
  0.405000001       1.27240760E-15
  0.407499999       1.51868793E-15
  0.409999996       1.55255496E-15
  0.412499994       1.29287192E-15
  0.414999992       6.84396375E-16
  0.417499989      -2.79736416E-16
  0.419999987      -1.53643349E-15
  0.422500014      -2.93886086E-15
  0.425000012      -4.25740062E-15
  0.427500010      -5.20011610E-15
  0.430000007      -5.45376266E-15
  0.432500005      -4.74198817E-15
  0.435000002      -2.89324813E-15
  0.437500000       9.25753741E-17
  0.439999998       3.99271426E-15
  0.442499995       8.34062586E-15
  0.444999993       1.24503145E-14
  0.447499990       1.54958003E-14
  0.449999988       1.66455577E-14
  0.452499986       1.52360085E-14
  0.455000013       1.09501870E-14
  0.457500011       3.95225023E-15
  0.460000008      -5.07353338E-15
  0.462500006      -1.50136488E-14
  0.465000004      -2.45415430E-14
  0.467500001      -3.24036825E-14
  0.469999999      -3.76772825E-14
  0.472499996      -3.98912741E-14
  0.474999994      -3.89409777E-14
  0.477499992      -3.48129152E-14
  0.479999989      -2.72364715E-14
  0.482499987      -1.54515784E-14
  0.485000014       1.72161554E-15
  0.487500012       2.54186846E-14
  0.490000010       5.59403767E-14
  0.492500007       9.18708604E-14
  0.495000005       1.29441366E-13
  0.497500002       1.62458561E-13
  0.500000000       1.82975380E-13
  0.502499998       1.82657288E-13
  0.504999995       1.54569025E-13
  0.507499993       9.49496693E-14
  0.509999990       4.51490414E-15
  0.512499988      -1.11068598E-13
  0.514999986      -2.41679967E-13
  0.517499983      -3.74087886E-13
  0.519999981      -4.93780418E-13
  0.522499979      -5.86778347E-13
  0.524999976      -6.40940805E-13
  0.527499974      -6.46457117E-13
  0.529999971      -5.95541411E-13
  0.532500029      -4.81713031E-13
  0.535000026      -2.99312821E-13
  0.537500024      -4.39324006E-14
  0.540000021       2.85841121E-13
  0.542500019       6.85513712E-13
  0.545000017       1.14138462E-12
  0.547500014       1.62810206E-12
  0.550000012       2.10840698E-12
  0.552500010       2.53592893E-12
  0.555000007       2.86109808E-12
  0.557500005       3.03918566E-12
  0.560000002       3.03888295E-12
  0.562500000       2.84955805E-12
  0.564999998       2.48595719E-12
  0.567499995       1.99010339E-12
  0.569999993       1.43108756E-12
  0.572499990       9.04493440E-13
  0.574999988       5.32990264E-13
  0.577499986       4.69375732E-13
  0.579999983       9.02030946E-13
  0.582499981       2.06191032E-12
  0.584999979       4.22928706E-12
  0.587499976       7.73870378E-12
  0.589999974       1.29812871E-11
  0.592499971       2.04038401E-11
  0.595000029       3.05046335E-11
  0.597500026       4.38260921E-11
  0.600000024       6.09428896E-11
  0.602500021       8.24433646E-11
  0.605000019       1.08901943E-10
  0.607500017       1.40835191E-10
  0.610000014       1.78638937E-10
  0.612500012       2.22492413E-10
  0.615000010       2.72226686E-10
  0.617500007       3.27138677E-10
  0.620000005       3.85755483E-10
  0.622500002       4.45526671E-10
  0.625000000       5.02445863E-10
  0.627499998       5.50592572E-10
  0.629999995       5.81578230E-10
  0.632499993       5.83870063E-10
  0.634999990       5.41967471E-10
  0.637499988       4.35402547E-10
  0.639999986       2.37491249E-10
  0.642499983      -8.62152155E-11
  0.644999981      -5.79939929E-10
  0.647499979      -1.30013189E-09
  0.649999976      -2.31870367E-09
  0.652499974      -3.72716924E-09
  0.654999971      -5.64189673E-09
  0.657500029      -8.21091373E-09
  0.660000026      -1.16222969E-08
  0.662500024      -1.61153704E-08
  0.665000021      -2.19942198E-08
  0.667500019      -2.96446991E-08
  0.670000017      -3.95557542E-08
  0.672500014      -5.23451682E-08
  0.675000012      -6.87908468E-08
  0.677500010      -8.98682941E-08
  0.680000007      -1.16794460E-07
  0.682500005      -1.51079220E-07
  0.685000002      -1.94584587E-07
  0.687500000      -2.49591466E-07
  0.689999998      -3.18875777E-07
  0.692499995      -4.05792889E-07
  0.694999993      -5.14368594E-07
  0.697499990      -6.49397123E-07
  0.699999988      -8.16548209E-07
  0.702499986      -1.02247122E-06
  0.704999983      -1.27490898E-06
  0.707499981      -1.58281091E-06
  0.709999979      -1.95643656E-06
  0.712499976      -2.40745499E-06
  0.714999974      -2.94903703E-06
  0.717499971      -3.59592923E-06
  0.720000029      -4.36450546E-06
  0.722500026      -5.27281600E-06
  0.725000024      -6.34058097E-06
  0.727500021      -7.58918031E-06
  0.730000019      -9.04157605E-06
  0.732500017      -1.07222240E-05
  0.735000014      -1.26569394E-05
  0.737500012      -1.48726976E-05
  0.740000010      -1.73974568E-05
  0.742500007      -2.02598658E-05
  0.745000005      -2.34889831E-05
  0.747500002      -2.71139197E-05
  0.750000000      -3.11635195E-05
  0.752499998      -3.56658602E-05
  0.754999995      -4.06479630E-05
  0.757499993      -4.61352356E-05
  0.759999990      -5.21512229E-05
  0.762499988      -5.87170725E-05
  0.764999986      -6.58511781E-05
  0.767499983      -7.35687645E-05
  0.769999981      -8.18815315E-05
  0.772499979      -9.07975555E-05
  0.774999976      -1.00320729E-04
  0.777499974      -1.10450812E-04
  0.779999971      -1.21183461E-04
  0.782500029      -1.32509682E-04
  0.785000026      -1.44416234E-04
  0.787500024      -1.56885595E-04
  0.790000021      -1.69896026E-04
  0.792500019      -1.83421929E-04
  0.795000017      -1.97433998E-04
  0.797500014      -2.11899300E-04
  0.800000012      -2.26781820E-04
  0.802500010      -2.42042413E-04
  0.805000007      -2.57639884E-04
  0.807500005      -2.73530080E-04
  0.810000002      -2.89667747E-04
  0.812500000      -3.06005590E-04
  0.814999998      -3.22494365E-04
  0.817499995      -3.39083985E-04
  0.819999993      -3.55722761E-04
  0.822499990      -3.72358132E-04
  0.824999988      -3.88935965E-04
  0.827499986      -4.05401312E-04
  0.829999983      -4.21697507E-04
  0.832499981      -4.37767623E-04
  0.834999979      -4.53552260E-04
  0.837499976      -4.68991144E-04
  0.839999974      -4.84022108E-04
  0.842499971      -4.98581154E-04
  0.845000029      -5.12603321E-04
  0.847500026      -5.26022224E-04
  0.850000024      -5.38769818E-04
  0.852500021      -5.50776371E-04
  0.855000019      -5.61972091E-04
  0.857500017      -5.72287827E-04
  0.860000014      -5.81654953E-04
  0.862500012      -5.90006239E-04
  0.865000010      -5.97275677E-04
  0.867500007      -6.03401219E-04
  0.870000005      -6.08323957E-04
  0.872500002      -6.11991039E-04
  0.875000000      -6.14355260E-04
  0.877499998      -6.15377212E-04
  0.879999995      -6.15025871E-04
  0.882499993      -6.13279524E-04
  0.884999990      -6.10126648E-04
  0.887499988      -6.05566602E-04
  0.889999986      -5.99609863E-04
  0.892499983      -5.92278258E-04
  0.894999981      -5.83606365E-04
  0.897499979      -5.73639700E-04
  0.899999976      -5.62436820E-04
  0.902499974      -5.50066587E-04
  0.904999971      -5.36607695E-04
  0.907500029      -5.22149669E-04
  0.910000026      -5.06788667E-04
  0.912500024      -4.90628008E-04
  0.915000021      -4.73776803E-04
  0.917500019      -4.56347829E-04
  0.920000017      -4.38456860E-04
  0.922500014      -4.20219032E-04
  0.925000012      -4.01748723E-04
  0.927500010      -3.83157225E-04
  0.930000007      -3.64552427E-04
  0.932500005      -3.46036977E-04
  0.935000002      -3.27708258E-04
  0.937500000      -3.09656112E-04
  0.939999998      -2.91962060E-04
  0.942499995      -2.74697144E-04
  0.944999993      -2.57925742E-04
  0.947499990      -2.41702422E-04
  0.949999988      -2.26073375E-04
  0.952499986      -2.11075603E-04
  0.954999983      -1.96739056E-04
  0.957499981      -1.83085664E-04
  0.959999979      -1.70130035E-04
  0.962499976      -1.57881295E-04
  0.964999974      -1.46343053E-04
  0.967499971      -1.35515016E-04
  0.970000029      -1.25392951E-04
  0.972500026      -1.15970681E-04
  0.975000024      -1.07238266E-04
  0.977500021      -9.91836932E-05
  0.980000019      -9.17940197E-05
  0.982500017      -8.50551151E-05
  0.985000014      -7.89519763E-05
  0.987500012      -7.34700952E-05
  0.990000010      -6.85936320E-05
  0.992500007      -6.43068997E-05
  0.995000005      -6.05919631E-05
  0.997500002      -5.74307305E-05
   1.00000000      -5.48031130E-05
   1.00250006      -5.26860858E-05
   1.00500000      -5.10564132E-05
   1.00750005      -4.98871959E-05
   1.00999999      -4.91520550E-05
   1.01250005      -4.88222213E-05
   1.01499999      -4.88680998E-05
   1.01750004      -4.92580111E-05
   1.01999998      -4.99586349E-05
   1.02250004      -5.09348392E-05
   1.02499998      -5.21488873E-05
   1.02750003      -5.35624567E-05
   1.02999997      -5.51386984E-05
   1.03250003      -5.68405558E-05
   1.03499997      -5.86326787E-05
   1.03750002      -6.04803245E-05
   1.03999996      -6.23521773E-05
   1.04250002      -6.42174564E-05
   1.04499996      -6.60461883E-05
   1.04750001      -6.78133583E-05
   1.04999995      -6.94989285E-05
   1.05250001      -7.10839086E-05
   1.05499995      -7.25520295E-05
   1.05750000      -7.38903473E-05
   1.05999994      -7.50869149E-05
   1.06250000      -7.61364208E-05
   1.06500006      -7.70355837E-05
   1.06750000      -7.77861205E-05
   1.07000005      -7.83879514E-05
   1.07249999      -7.88455654E-05
   1.07500005      -7.91641869E-05
   1.07749999      -7.93495856E-05
   1.08000004      -7.94094376E-05
   1.08249998      -7.93523504E-05
   1.08500004      -7.91862331E-05
   1.08749998      -7.89211917E-05
   1.09000003      -7.85646043E-05
   1.09249997      -7.81253693E-05
   1.09500003      -7.76108136E-05
   1.09749997      -7.70290135E-05
   1.10000002      -7.63884673E-05
   1.10249996      -7.56977897E-05
   1.10500002      -7.49657120E-05
   1.10749996      -7.41967160E-05
   1.11000001      -7.33933557E-05
   1.11249995      -7.25609934E-05
   1.11500001      -7.17047224E-05
   1.11749995      -7.08312655E-05
   1.12000000      -6.99471930E-05
   1.12249994      -6.90599190E-05
   1.12500000      -6.81746533E-05
   1.12750006      -6.72971582E-05
   1.13000000      -6.64319959E-05
   1.13250005      -6.55858166E-05
   1.13499999      -6.47635461E-05
   1.13750005      -6.39692153E-05
   1.13999999      -6.32051597E-05
   1.14250004      -6.24733802E-05
   1.14499998      -6.17771730E-05
   1.14750004      -6.11202631E-05
   1.14999998      -6.05050591E-05
   1.15250003      -5.99352061E-05
   1.15499997      -5.94125813E-05
   1.15750003      -5.89362826E-05
   1.15999997      -5.85034795E-05
   1.16250002      -5.81090826E-05
   1.16499996      -5.77507781E-05
   1.16750002      -5.74274418E-05
   1.16999996      -5.71387100E-05
   1.17250001      -5.68837459E-05
   1.17499995      -5.66586750E-05
   1.17750001      -5.64618531E-05
   1.17999995      -5.62877394E-05
   1.18250000      -5.61339584E-05
   1.18499994      -5.59997534E-05
   1.18750000      -5.58846768E-05
   1.19000006      -5.57869353E-05
   1.19250000      -5.57033964E-05
   1.19500005      -5.56292689E-05
   1.19749999      -5.55629886E-05
   1.20000005      -5.55047009E-05
   1.20249999      -5.54568760E-05
   1.20500004      -5.54222024E-05
   1.20749998      -5.54020298E-05
   1.21000004      -5.53937389E-05
   1.21249998      -5.53957543E-05
   1.21500003      -5.54049475E-05
   1.21749997      -5.54195904E-05
   1.22000003      -5.54400649E-05
   1.22249997      -5.54659200E-05
   1.22500002      -5.54985745E-05
   1.22749996      -5.55349652E-05
   1.23000002      -5.55716542E-05
   1.23249996      -5.56069972E-05
   1.23500001      -5.56405503E-05
   1.23749995      -5.56708146E-05
   1.24000001      -5.56969680E-05
   1.24249995      -5.57162457E-05
   1.24500000      -5.57246894E-05
   1.24749994      -5.57198327E-05
   1.25000000      -5.56997329E-05
   1.25250006      -5.56660343E-05
   1.25500000      -5.56219420E-05
   1.25750005      -5.55693405E-05
   1.25999999      -5.55106817E-05
   1.26250005      -5.54429025E-05
   1.26499999      -5.53636200E-05
   1.26750004      -5.52713354E-05
   1.26999998      -5.51659759E-05
   1.27250004      -5.50517943E-05
   1.27499998      -5.49331344E-05
   1.27750003      -5.48140233E-05
   1.27999997      -5.46946139E-05
   1.28250003      -5.45747534E-05
   1.28499997      -5.44519789E-05
   1.28750002      -5.43257702E-05
   1.28999996      -5.41977643E-05
   1.29250002      -5.40687179E-05
   1.29499996      -5.39412358E-05
   1.29750001      -5.38156237E-05
   1.29999995      -5.36909829E-05
   1.30250001      -5.35663421E-05
   1.30499995      -5.34424471E-05
   1.30750000      -5.33194143E-05
   1.30999994      -5.31981350E-05
   1.31250000      -5.30776051E-05
   1.31500006      -5.29584177E-05
   1.31750000      -5.28393866E-05
   1.32000005      -5.27205339E-05
   1.32249999      -5.26037402E-05
   1.32500005      -5.24909046E-05
   1.32749999      -5.23818053E-05
   1.33000004      -5.22765913E-05
   1.33249998      -5.21734364E-05
   1.33500004      -5.20717731E-05
   1.33749998      -5.19726891E-05
   1.34000003      -5.18775632E-05
   1.34249997      -5.17897606E-05
   1.34500003      -5.17092813E-05
   1.34749997      -5.16347827E-05
   1.35000002      -5.15636457E-05
   1.35249996      -5.14935527E-05
   1.35500002      -5.14255153E-05
   1.35749996      -5.13625600E-05
   1.36000001      -5.13079722E-05
   1.36249995      -5.12635888E-05
   1.36500001      -5.12291408E-05
   1.36749995      -5.12006700E-05
   1.37000000      -5.11729486E-05
   1.37249994      -5.11429826E-05
   1.37500000      -5.11097678E-05
   1.37750006      -5.10753198E-05
   1.38000000      -5.10436330E-05
   1.38250005      -5.10180435E-05
   1.38499999      -5.10009668E-05
   1.38750005      -5.09907695E-05
   1.38999999      -5.09846795E-05
   1.39250004      -5.09792626E-05
   1.39499998      -5.09716010E-05
   1.39750004      -5.09612146E-05
   1.39999998      -5.09498568E-05
   1.40250003      -5.09408164E-05
   1.40499997      -5.09380843E-05
   1.40750003      -5.09433557E-05
   1.40999997      -5.09552738E-05
   1.41250002      -5.09698839E-05
   1.41499996      -5.09841157E-05
   1.41750002      -5.09958882E-05
   1.41999996      -5.10069476E-05
   1.42250001      -5.10205100E-05
   1.42499995      -5.10403479E-05
   1.42750001      -5.10680329E-05
   1.42999995      -5.11002763E-05
   1.43250000      -5.11325197E-05
   1.43499994      -5.11606922E-05
   1.43750000      -5.11839316E-05
   1.44000006      -5.12055667E-05
   1.44250000      -5.12313818E-05
   1.44500005      -5.12651968E-05
   1.44749999      -5.13077139E-05
   1.45000005      -5.13553096E-05
   1.45249999      -5.14018684E-05
   1.45500004      -5.14422172E-05
   1.45749998      -5.14749845E-05
   1.46000004      -5.15023712E-05
   1.46249998      -5.15312131E-05
   1.46500003      -5.15665997E-05
   1.46749997      -5.16111686E-05
   1.47000003      -5.16629152E-05
   1.47249997      -5.17178742E-05
   1.47500002      -5.17710432E-05
   1.47749996      -5.18201014E-05
   1.48000002      -5.18650850E-05
   1.48249996      -5.19075293E-05
   1.48500001      -5.19500099E-05
   1.48749995      -5.19954810E-05
   1.49000001      -5.20444228E-05
   1.49249995      -5.20967296E-05
   1.49500000      -5.21506445E-05
   1.49749994      -5.22045593E-05
   1.50000000      -5.22576120E-05
   1.50250006      -5.23104100E-05
   1.50500000      -5.23643212E-05
   1.50750005      -5.24210009E-05
   1.50999999      -5.24803654E-05
   1.51250005      -5.25408213E-05
   1.51499999      -5.25995893E-05
   1.51750004      -5.26547774E-05
   1.51999998      -5.27054399E-05
   1.52250004      -5.27556913E-05
   1.52499998      -5.28100900E-05
   1.52750003      -5.28727833E-05
   1.52999997      -5.29435492E-05
   1.53250003      -5.30175639E-05
   1.53499997      -5.30876932E-05
   1.53750002      -5.31493788E-05
   1.53999996      -5.32028062E-05
   1.54250002      -5.32539161E-05
   1.54499996      -5.33101884E-05
   1.54750001      -5.33773637E-05
   1.54999995      -5.34557148E-05
   1.55250001      -5.35405634E-05
   1.55499995      -5.36242187E-05
   1.55750000      -5.37002888E-05
   1.55999994      -5.37686610E-05
   1.56250000      -5.38330751E-05
   1.56500006      -5.38999884E-05
   1.56750000      -5.39740031E-05
   1.57000005      -5.40561232E-05
   1.57249999      -5.41432200E-05
   1.57500005      -5.42310918E-05
   1.57749999      -5.43171773E-05
   1.58000004      -5.44003451E-05
   1.58249998      -5.44830655E-05
   1.58500004      -5.45662333E-05
   1.58749998      -5.46505253E-05
   1.59000003      -5.47356722E-05
   1.59249997      -5.48214193E-05
   1.59500003      -5.49080614E-05
   1.59749997      -5.49961260E-05
   1.60000002      -5.50863551E-05
   1.60249996      -5.51787889E-05
   1.60500002      -5.52718193E-05
   1.60749996      -5.53637328E-05
   1.61000001      -5.54534417E-05
   1.61249995      -5.55418046E-05
   1.61500001      -5.56307969E-05
   1.61749995      -5.57214007E-05
   1.62000000      -5.58143984E-05
   1.62249994      -5.59095606E-05
   1.62500000      -5.60064036E-05
   1.62750006      -5.61042179E-05
   1.63000000      -5.62041241E-05
   1.63250005      -5.63056019E-05
   1.63499999      -5.64070797E-05
   1.63750005      -5.65060109E-05
   1.63999999      -5.66009876E-05
   1.64250004      -5.66930503E-05
   1.64499998      -5.67851857E-05
   1.64750004      -5.68826290E-05
   1.64999998      -5.69884360E-05
   1.65250003      -5.71021301E-05
   1.65499997      -5.72182907E-05
   1.65750003      -5.73317593E-05
   1.65999997      -5.74385413E-05
   1.66250002      -5.75406884E-05
   1.66499996      -5.76423117E-05
   1.66750002      -5.77485735E-05
   1.66999996      -5.78610307E-05
   1.67250001      -5.79781299E-05
   1.67499995      -5.80955202E-05
   1.67750001      -5.82102221E-05
   1.67999995      -5.83229048E-05
   1.68250000      -5.84367881E-05
   1.68499994      -5.85551497E-05
   1.68750000      -5.86781462E-05
   1.69000006      -5.88021539E-05
   1.69250000      -5.89232077E-05
   1.69500005      -5.90390300E-05
   1.69749999      -5.91529861E-05
   1.70000005      -5.92704528E-05
   1.70249999      -5.93967961E-05
   1.70500004      -5.95325546E-05
   1.70749998      -5.96724894E-05
   1.71000004      -5.98096703E-05
   1.71249998      -5.99388877E-05
   1.71500003      -6.00604471E-05
   1.71749997      -6.01802822E-05
   1.72000003      -6.03055414E-05
   1.72249997      -6.04395427E-05
   1.72500002      -6.05807181E-05
   1.72749996      -6.07231377E-05
   1.73000002      -6.08608207E-05
   1.73249996      -6.09916460E-05
   1.73500001      -6.11176074E-05
   1.73749995      -6.12434887E-05
   1.74000001      -6.13730444E-05
   1.74249995      -6.15067620E-05
   1.74500000      -6.16421967E-05
   1.74749994      -6.17757687E-05
   1.75000000      -6.19051934E-05
   1.75250006      -6.20306237E-05
   1.75500000      -6.21547006E-05
   1.75750005      -6.22788721E-05
   1.75999999      -6.24042805E-05
   1.76250005      -6.25299144E-05
   1.76499999      -6.26553156E-05
   1.76750004      -6.27801783E-05
   1.76999998      -6.29051065E-05
   1.77250004      -6.30301729E-05
   1.77499998      -6.31550938E-05
   1.77750003      -6.32789888E-05
   1.77999997      -6.34015596E-05
   1.78250003      -6.35240067E-05
   1.78499997      -6.36476980E-05
   1.78750002      -6.37738194E-05
   1.78999996      -6.39011996E-05
   1.79250002      -6.40268845E-05
   1.79499996      -6.41480729E-05
   1.79750001      -6.42640080E-05
   1.79999995      -6.43781532E-05
   1.80250001      -6.44961547E-05
   1.80499995      -6.46222034E-05
   1.80750000      -6.47567067E-05
   1.80999994      -6.48944042E-05
   1.81250000      -6.50277289E-05
   1.81500006      -6.51509690E-05
   1.81750000      -6.52647796E-05
   1.82000005      -6.53752577E-05
   1.82249999      -6.54902615E-05
   1.82500005      -6.56146585E-05
   1.82749999      -6.57473283E-05
   1.83000004      -6.58816498E-05
   1.83249998      -6.60105652E-05
   1.83500004      -6.61310260E-05
   1.83749998      -6.62452076E-05
   1.84000003      -6.63589308E-05
   1.84249997      -6.64772597E-05
   1.84500003      -6.66019187E-05
   1.84749997      -6.67298737E-05
   1.85000002      -6.68559151E-05
   1.85249996      -6.69770161E-05
   1.85500002      -6.70942609E-05
   1.85749996      -6.72107562E-05
   1.86000001      -6.73290851E-05
   1.86249995      -6.74488692E-05
   1.86500001      -6.75670308E-05
   1.86749995      -6.76800119E-05
   1.87000000      -6.77861026E-05
   1.87249994      -6.78872238E-05
   1.87500000      -6.79874065E-05
   1.87750006      -6.80901358E-05
   1.88000000      -6.81960955E-05
   1.88250005      -6.83030303E-05
   1.88499999      -6.84076076E-05
   1.88750005      -6.85080377E-05
   1.88999999      -6.86048443E-05
   1.89250004      -6.87004140E-05
   1.89499998      -6.87967695E-05
   1.89750004      -6.88937653E-05
   1.89999998      -6.89894005E-05
   1.90250003      -6.90825109E-05
   1.90499997      -6.91738169E-05
   1.90750003      -6.92662798E-05
   1.90999997      -6.93629627E-05
   1.91250002      -6.94657065E-05
   1.91499996      -6.95727285E-05
   1.91750002      -6.96805364E-05
   1.91999996      -6.97859577E-05
   1.92250001      -6.98887088E-05
   1.92499995      -6.99914963E-05
   1.92750001      -7.00979363E-05
   1.92999995      -7.02103207E-05
   1.93250000      -7.03278201E-05
   1.93499994      -7.04468257E-05
   1.93750000      -7.05633647E-05
   1.94000006      -7.06754799E-05
   1.94250000      -7.07838044E-05
   1.94500005      -7.08909720E-05
   1.94749999      -7.09990636E-05
   1.95000005      -7.11089524E-05
   1.95249999      -7.12198816E-05
   1.95500004      -7.13301706E-05
   1.95749998      -7.14386406E-05
   1.96000004      -7.15442948E-05
   1.96249998      -7.16459253E-05
   1.96500003      -7.17424846E-05
   1.96749997      -7.18331285E-05
   1.97000003      -7.19183154E-05
   1.97249997      -7.20007520E-05
   1.97500002      -7.20844109E-05
   1.97749996      -7.21719771E-05
   1.98000002      -7.22632249E-05
   1.98249996      -7.23542471E-05
   1.98500001      -7.24399142E-05
   1.98749995      -7.25176578E-05
   1.99000001      -7.25893624E-05
   1.99249995      -7.26612489E-05
   1.99500000      -7.27405641E-05
   1.99749994      -7.28307205E-05
   2.00000000      -7.29289823E-05
   2.00250006      -7.30281099E-05
   2.00500011      -7.31206601E-05
   2.00749993      -7.32037661E-05
   2.00999999      -7.32809349E-05
   2.01250005      -7.33593988E-05
   2.01500010      -7.34458008E-05
   2.01749992      -7.35411668E-05
   2.01999998      -7.36409056E-05
   2.02250004      -7.37373921E-05
   2.02500010      -7.38251547E-05
   2.02749991      -7.39039315E-05
   2.02999997      -7.39780517E-05
   2.03250003      -7.40528776E-05
   2.03500009      -7.41309268E-05
   2.03749990      -7.42095363E-05
   2.03999996      -7.42828634E-05
   2.04250002      -7.43456039E-05
   2.04500008      -7.43964629E-05
   2.04749990      -7.44387580E-05
   2.04999995      -7.44782374E-05
   2.05250001      -7.45195139E-05
   2.05500007      -7.45636135E-05
   2.05749989      -7.46078222E-05
   2.05999994      -7.46477963E-05
   2.06250000      -7.46804799E-05
   2.06500006      -7.47061422E-05
   2.06750011      -7.47283921E-05
   2.06999993      -7.47523591E-05
   2.07249999      -7.47827144E-05
   2.07500005      -7.48215607E-05
   2.07750010      -7.48680905E-05
   2.07999992      -7.49190003E-05
   2.08249998      -7.49701940E-05
   2.08500004      -7.50185791E-05
   2.08750010      -7.50638937E-05
   2.08999991      -7.51090556E-05
   2.09249997      -7.51592524E-05
   2.09500003      -7.52194173E-05
   2.09750009      -7.52914275E-05
   2.09999990      -7.53725253E-05
   2.10249996      -7.54562498E-05
   2.10500002      -7.55354486E-05
   2.10750008      -7.56060545E-05
   2.10999990      -7.56690351E-05
   2.11249995      -7.57297457E-05
   2.11500001      -7.57938687E-05
   2.11750007      -7.58635069E-05
   2.11999989      -7.59349496E-05
   2.12249994      -7.60009279E-05
   2.12500000      -7.60549956E-05
   2.12750006      -7.60956536E-05
   2.13000011      -7.61276242E-05
   2.13249993      -7.61586489E-05
   2.13499999      -7.61947376E-05
   2.13750005      -7.62361597E-05
   2.14000010      -7.62776472E-05