 -0.159999996       0.00000000    
 -0.157499999       0.00000000    
 -0.155000001       0.00000000    
 -0.152500004       0.00000000    
 -0.150000006       0.00000000    
 -0.147499993       0.00000000    
 -0.144999996       0.00000000    
 -0.142499998       0.00000000    
 -0.140000001       0.00000000    
 -0.137500003       0.00000000    
 -0.135000005       0.00000000    
 -0.132499993       8.33891013E-29
 -0.129999995      -7.93188855E-28
 -0.127499998       2.72768476E-27
 -0.125000000       1.25194290E-26
 -0.122500002      -4.49988016E-26
 -0.119999997      -1.14008409E-25
 -0.117500000       3.32376608E-25
 -0.115000002       7.44953943E-25
 -0.112499997      -1.52549330E-24
 -0.109999999      -3.32771309E-24
 -0.107500002       5.89692972E-24
 -0.104999997       1.12057463E-23
 -0.102499999      -2.61701734E-23
 -0.100000001      -4.48369985E-23
  -9.74999964E-02   1.06133308E-22
  -9.49999988E-02   2.35856259E-22
  -9.25000012E-02  -2.42897492E-22
  -9.00000036E-02  -1.00474878E-21
  -8.74999985E-02  -1.37294867E-22
  -8.50000009E-02   2.68911227E-21
  -8.25000033E-02   2.93512822E-21
  -7.99999982E-02  -3.36575348E-21
  -7.75000006E-02  -9.53245604E-21
  -7.50000030E-02  -2.97945569E-21
  -7.24999979E-02   1.37002225E-20
  -7.00000003E-02   1.82539649E-20
  -6.75000027E-02  -1.21207213E-21
  -6.49999976E-02  -2.33534865E-20
  -6.25000000E-02  -2.13267825E-20
  -5.99999987E-02  -2.96668609E-21
  -5.75000010E-02   6.12861912E-21
  -5.49999997E-02   1.18369263E-20
  -5.24999984E-02   4.02581566E-20
  -5.00000007E-02   7.12541199E-20
  -4.74999994E-02   3.63724628E-20
  -4.50000018E-02  -8.53414452E-20
  -4.25000004E-02  -2.08993075E-19
  -3.99999991E-02  -2.16852558E-19
  -3.75000015E-02  -5.65254841E-20
  -3.50000001E-02   2.52210703E-19
  -3.24999988E-02   6.17258923E-19
  -2.99999993E-02   7.86973845E-19
  -2.74999999E-02   3.65000140E-19
  -2.50000004E-02  -8.23446978E-19
  -2.25000009E-02  -2.23524405E-18
  -1.99999996E-02  -2.63195222E-18
  -1.75000001E-02  -9.29785957E-19
  -1.49999997E-02   2.67986625E-18
  -1.25000002E-02   6.31673704E-18
  -9.99999978E-03   7.19865591E-18
  -7.49999983E-03   3.24824852E-18
  -4.99999989E-03  -5.35103428E-18
  -2.49999994E-03  -1.53698380E-17
   0.00000000      -2.08753619E-17
   2.49999994E-03  -1.50750656E-17
   4.99999989E-03   5.79982774E-18
   7.49999983E-03   3.70878736E-17
   9.99999978E-03   6.22273615E-17
   1.25000002E-02   5.70076533E-17
   1.49999997E-02   4.50542987E-18
   1.75000001E-02  -8.53509374E-17
   1.99999996E-02  -1.66626614E-16
   2.25000009E-02  -1.72980619E-16
   2.50000004E-02  -5.80946547E-17
   2.74999999E-02   1.59506257E-16
   2.99999993E-02   3.79484895E-16
   3.24999988E-02   4.53849729E-16
   3.50000001E-02   2.66702935E-16
   3.75000015E-02  -1.78446972E-16
   3.99999991E-02  -7.16139305E-16
   4.25000004E-02  -1.05827206E-15
   4.50000018E-02  -9.15435411E-16
   4.74999994E-02  -1.60638290E-16
   5.00000007E-02   1.03296960E-15
   5.24999984E-02   2.16079587E-15
   5.49999997E-02   2.52791054E-15
   5.75000010E-02   1.56962553E-15
   5.99999987E-02  -7.48115116E-16
   6.25000000E-02  -3.65937461E-15
   6.49999976E-02  -5.69938443E-15
   6.75000027E-02  -5.28794580E-15
   7.00000003E-02  -1.63691753E-15
   7.24999979E-02   4.45633859E-15
   7.50000030E-02   1.04649684E-14
   7.75000006E-02   1.29574433E-14
   7.99999982E-02   9.22527130E-15
   8.25000033E-02  -9.72668156E-16
   8.50000009E-02  -1.44831470E-14
   8.74999985E-02  -2.53620197E-14
   9.00000036E-02  -2.70795383E-14
   9.25000012E-02  -1.56160468E-14
   9.49999988E-02   7.82807436E-15
   9.74999964E-02   3.58680167E-14
  0.100000001       5.65994869E-14
  0.102499999       5.78383776E-14
  0.104999997       3.27219060E-14
  0.107500002      -1.55314062E-14
  0.109999999      -7.22106701E-14
  0.112499997      -1.14725896E-13
  0.115000002      -1.20908735E-13
  0.117500000      -7.91508515E-14
  0.119999997       4.17399837E-15
  0.122500002       1.04169440E-13
  0.125000000       1.85124512E-13
  0.127499998       2.13829077E-13
  0.129999995       1.72865818E-13
  0.132499993       6.81496485E-14
  0.135000005      -7.21200443E-14
  0.137500003      -2.05923793E-13
  0.140000001      -2.89561235E-13
  0.142499998      -2.89822420E-13
  0.144999996      -1.94269758E-13
  0.147499993      -1.87216084E-14
  0.150000006       1.90012787E-13
  0.152500004       3.59987810E-13
  0.155000001       4.12133787E-13
  0.157499999       2.89505345E-13
  0.159999996      -1.05772562E-14
  0.162499994      -4.15669154E-13
  0.165000007      -7.82403114E-13
  0.167500004      -9.31709571E-13
  0.170000002      -7.09055969E-13
  0.172499999      -5.30641577E-14
  0.174999997       9.49730529E-13
  0.177499995       2.04621498E-12
  0.180000007       2.85165880E-12
  0.182500005       2.94561792E-12
  0.185000002       2.01796544E-12
  0.187500000       2.83997171E-14
  0.189999998      -2.68212926E-12
  0.192499995      -5.39690861E-12
  0.194999993      -7.18824739E-12
  0.197500005      -7.22242361E-12
  0.200000003      -5.11080848E-12
  0.202500001      -1.16336856E-12
  0.204999998       3.58933651E-12
  0.207499996       7.66152072E-12
  0.209999993       9.60275175E-12
  0.212500006       8.54546382E-12
  0.215000004       4.59735852E-12
  0.217500001      -1.09299863E-12
  0.219999999      -6.65809075E-12
  0.222499996      -1.01413678E-11
  0.224999994      -1.02351487E-11
  0.227500007      -6.86623328E-12
  0.230000004      -1.39334735E-12
  0.232500002       3.70685774E-12
  0.234999999       5.61082257E-12
  0.237499997       2.13401822E-12
  0.239999995      -7.42866098E-12
  0.242500007      -2.19522837E-11
  0.245000005      -3.87868626E-11
  0.247500002      -5.46178450E-11
  0.250000000      -6.65334732E-11
  0.252499998      -7.28707789E-11
  0.254999995      -7.35165123E-11
  0.257499993      -6.96075281E-11
  0.259999990      -6.28227817E-11
  0.262499988      -5.45887259E-11
  0.264999986      -4.54610238E-11
  0.267500013      -3.47656452E-11
  0.270000011      -2.04282650E-11
  0.272500008       1.11904366E-12
  0.275000006       3.49934179E-11
  0.277500004       8.78269679E-11
  0.280000001       1.67581365E-10
  0.282499999       2.83284174E-10
  0.284999996       4.44815101E-10
  0.287499994       6.63135324E-10
  0.289999992       9.50998724E-10
  0.292499989       1.32438271E-09
  0.294999987       1.80440696E-09
  0.297500014       2.41948150E-09
  0.300000012       3.20750204E-09
  0.302500010       4.21735313E-09
  0.305000007       5.51013102E-09
  0.307500005       7.15930204E-09
  0.310000002       9.25080101E-09
  0.312500000       1.18830359E-08
  0.314999998       1.51682009E-08
  0.317499995       1.92358609E-08
  0.319999993       2.42371918E-08
  0.322499990       3.03504031E-08
  0.324999988       3.77850213E-08
  0.327499986       4.67808619E-08
  0.330000013       5.76066945E-08
  0.332500011       7.05525238E-08
  0.335000008       8.59189910E-08
  0.337500006       1.04004691E-07
  0.340000004       1.25088135E-07
  0.342500001       1.49403149E-07
  0.344999999       1.77116263E-07
  0.347499996       2.08290160E-07
  0.349999994       2.42841537E-07
  0.352499992       2.80485409E-07
  0.354999989       3.20672598E-07
  0.357499987       3.62507706E-07
  0.360000014       4.04676456E-07
  0.362500012       4.45317681E-07
  0.365000010       4.81931238E-07
  0.367500007       5.11241808E-07
  0.370000005       5.29082968E-07
  0.372500002       5.30279578E-07
  0.375000000       5.08510311E-07
  0.377499998       4.56185120E-07
  0.379999995       3.64370607E-07
  0.382499993       2.22616663E-07
  0.384999990       1.88957952E-08
  0.387499988      -2.60609653E-07
  0.389999986      -6.31332227E-07
  0.392500013      -1.11054737E-06
  0.395000011      -1.71725094E-06
  0.397500008      -2.47218532E-06
  0.400000006      -3.39770440E-06
  0.402500004      -4.51778305E-06
  0.405000001      -5.85785574E-06
  0.407499999      -7.44430054E-06
  0.409999996      -9.30452916E-06
  0.412499994      -1.14664026E-05
  0.414999992      -1.39584054E-05
  0.417499989      -1.68088118E-05
  0.419999987      -2.00457762E-05
  0.422500014      -2.36968153E-05
  0.425000012      -2.77883828E-05
  0.427500010      -3.23456879E-05
  0.430000007      -3.73920157E-05
  0.432500005      -4.29490101E-05
  0.435000002      -4.90358434E-05
  0.437500000      -5.56699197E-05
  0.439999998      -6.28662747E-05
  0.442499995      -7.06378487E-05
  0.444999993      -7.89946789E-05
  0.447499990      -8.79448053E-05
  0.449999988      -9.74944996E-05
  0.452499986      -1.07648084E-04
  0.455000013      -1.18408265E-04
  0.457500011      -1.29778055E-04
  0.460000008      -1.41759170E-04
  0.462500006      -1.54354158E-04
  0.465000004      -1.67565056E-04
  0.467500001      -1.81395211E-04
  0.469999999      -1.95848595E-04
  0.472499996      -2.10929837E-04
  0.474999994      -2.26646662E-04
  0.477499992      -2.43007220E-04
  0.479999989      -2.60020781E-04
  0.482499987      -2.77698447E-04
  0.485000014      -2.96050333E-04
  0.487500012      -3.15088226E-04
  0.490000010      -3.34817596E-04
  0.492500007      -3.55244469E-04
  0.495000005      -3.76370124E-04
  0.497500002      -3.98188655E-04
  0.500000000      -4.20688390E-04
  0.502499998      -4.43846802E-04
  0.504999995      -4.67631093E-04
  0.507499993      -4.91994142E-04
  0.509999990      -5.16870350E-04
  0.512499988      -5.42182068E-04
  0.514999986      -5.67832845E-04
  0.517499983      -5.93707198E-04
  0.519999981      -6.19672355E-04
  0.522499979      -6.45574532E-04
  0.524999976      -6.71240559E-04
  0.527499974      -6.96478994E-04
  0.529999971      -7.21081567E-04
  0.532500029      -7.44827325E-04
  0.535000026      -7.67484424E-04
  0.537500024      -7.88815261E-04
  0.540000021      -8.08574900E-04
  0.542500019      -8.26520729E-04
  0.545000017      -8.42412468E-04
  0.547500014      -8.56020430E-04
  0.550000012      -8.67129886E-04
  0.552500010      -8.75545607E-04
  0.555000007      -8.81096115E-04
  0.557500005      -8.83636763E-04
  0.560000002      -8.83052882E-04
  0.562500000      -8.79264320E-04
  0.564999998      -8.72228760E-04
  0.567499995      -8.61943874E-04
  0.569999993      -8.48449126E-04
  0.572499990      -8.31823389E-04
  0.574999988      -8.12182727E-04
  0.577499986      -7.89679063E-04
  0.579999983      -7.64497498E-04
  0.582499981      -7.36852584E-04
  0.584999979      -7.06989085E-04
  0.587499976      -6.75172021E-04
  0.589999974      -6.41687133E-04
  0.592499971      -6.06828486E-04
  0.595000029      -5.70896838E-04
  0.597500026      -5.34190563E-04
  0.600000024      -4.97005123E-04
  0.602500021      -4.59627277E-04
  0.605000019      -4.22332261E-04
  0.607500017      -3.85375868E-04
  0.610000014      -3.48996371E-04
  0.612500012      -3.13398399E-04
  0.615000010      -2.78766616E-04
  0.617500007      -2.45257368E-04
  0.620000005      -2.12996776E-04
  0.622500002      -1.82090618E-04
  0.625000000      -1.52619497E-04
  0.627499998      -1.24636790E-04
  0.629999995      -9.81694538E-05
  0.632499993      -7.32208136E-05
  0.634999990      -4.97819092E-05
  0.637499988      -2.78191164E-05
  0.639999986      -7.29283374E-06
  0.642499983       1.18499211E-05
  0.644999981       2.96701237E-05
  0.647499979       4.62358475E-05
  0.649999976       6.16144971E-05
  0.652499974       7.58821334E-05
  0.654999971       8.91054151E-05
  0.657500029       1.01352431E-04
  0.660000026       1.12693997E-04
  0.662500024       1.23195510E-04
  0.665000021       1.32925867E-04
  0.667500019       1.41933342E-04
  0.670000017       1.50268432E-04
  0.672500014       1.57970673E-04
  0.675000012       1.65084552E-04
  0.677500010       1.71650303E-04
  0.680000007       1.77714144E-04
  0.682500005       1.83314463E-04
  0.685000002       1.88477570E-04
  0.687500000       1.93226471E-04
  0.689999998       1.97582704E-04
  0.692499995       2.01564864E-04
  0.694999993       2.05196702E-04
  0.697499990       2.08507976E-04
  0.699999988       2.11533508E-04
  0.702499986       2.14294065E-04
  0.704999983       2.16809523E-04
  0.707499981       2.19082882E-04
  0.709999979       2.21124283E-04
  0.712499976       2.22952352E-04
  0.714999974       2.24588366E-04
  0.717499971       2.26050965E-04
  0.720000029       2.27357072E-04
  0.722500026       2.28520687E-04
  0.725000024       2.29543817E-04
  0.727500021       2.30430262E-04
  0.730000019       2.31190439E-04
  0.732500017       2.31840095E-04
  0.735000014       2.32394566E-04
  0.737500012       2.32860853E-04
  0.740000010       2.33242914E-04
  0.742500007       2.33542189E-04
  0.745000005       2.33764193E-04
  0.747500002       2.33914980E-04
  0.750000000       2.34007646E-04
  0.752499998       2.34053892E-04
  0.754999995       2.34059495E-04
  0.757499993       2.34025953E-04
  0.759999990       2.33958548E-04
  0.762499988       2.33859610E-04
  0.764999986       2.33732950E-04
  0.767499983       2.33592466E-04
  0.769999981       2.33450264E-04
  0.772499979       2.33307175E-04
  0.774999976       2.33161903E-04
  0.777499974       2.33007449E-04
  0.779999971       2.32843871E-04
  0.782500029       2.32677688E-04
  0.785000026       2.32518010E-04
  0.787500024       2.32369086E-04
  0.790000021       2.32233666E-04
  0.792500019       2.32100370E-04
  0.795000017       2.31960323E-04
  0.797500014       2.31811326E-04
  0.800000012       2.31647005E-04
  0.802500010       2.31474711E-04
  0.805000007       2.31297308E-04
  0.807500005       2.31114667E-04
  0.810000002       2.30921287E-04
  0.812500000       2.30713253E-04
  0.814999998       2.30484889E-04
  0.817499995       2.30237929E-04
  0.819999993       2.29978556E-04
  0.822499990       2.29708836E-04
  0.824999988       2.29422920E-04
  0.827499986       2.29116500E-04
  0.829999983       2.28782636E-04
  0.832499981       2.28426274E-04
  0.834999979       2.28051591E-04
  0.837499976       2.27673780E-04
  0.839999974       2.27291952E-04
  0.842499971       2.26901888E-04
  0.845000029       2.26494143E-04
  0.847500026       2.26058910E-04
  0.850000024       2.25599055E-04
  0.852500021       2.25121825E-04
  0.855000019       2.24636533E-04
  0.857500017       2.24148171E-04
  0.860000014       2.23652663E-04
  0.862500012       2.23136609E-04
  0.865000010       2.22590083E-04
  0.867500007       2.22009243E-04
  0.870000005       2.21400885E-04
  0.872500002       2.20774193E-04
  0.875000000       2.20139525E-04
  0.877499998       2.19496142E-04
  0.879999995       2.18832894E-04
  0.882499993       2.18138171E-04
  0.884999990       2.17403664E-04
  0.887499988       2.16632310E-04
  0.889999986       2.15836757E-04
  0.892499983       2.15028209E-04
  0.894999981       2.14209809E-04
  0.897499979       2.13377789E-04
  0.899999976       2.12525076E-04
  0.902499974       2.11648658E-04
  0.904999971       2.10746424E-04
  0.907500029       2.09824633E-04
  0.910000026       2.08893864E-04
  0.912500024       2.07957855E-04
  0.915000021       2.07019504E-04
  0.917500019       2.06069570E-04
  0.920000017       2.05110468E-04
  0.922500014       2.04139345E-04
  0.925000012       2.03158997E-04
  0.927500010       2.02171766E-04
  0.930000007       2.01181669E-04
  0.932500005       2.00187307E-04
  0.935000002       1.99189963E-04
  0.937500000       1.98190362E-04
  0.939999998       1.97194138E-04
  0.942499995       1.96199398E-04
  0.944999993       1.95200890E-04
  0.947499990       1.94192005E-04
  0.949999988       1.93164713E-04
  0.952499986       1.92121704E-04
  0.954999983       1.91072584E-04
  0.957499981       1.90030391E-04
  0.959999979       1.88999926E-04
  0.962499976       1.87984158E-04
  0.964999974       1.86967794E-04
  0.967499971       1.85940095E-04
  0.970000029       1.84895602E-04
  0.972500026       1.83839584E-04
  0.975000024       1.82786447E-04
  0.977500021       1.81744472E-04
  0.980000019       1.80717630E-04
  0.982500017       1.79699622E-04
  0.985000014       1.78680712E-04
  0.987500012       1.77653201E-04
  0.990000010       1.76619287E-04
  0.992500007       1.75588590E-04
  0.995000005       1.74569504E-04
  0.997500002       1.73565873E-04
   1.00000000       1.72571410E-04
   1.00250006       1.71576408E-04
   1.00500000       1.70576473E-04
   1.00750005       1.69572813E-04
   1.00999999       1.68572209E-04
   1.01250005       1.67585211E-04
   1.01499999       1.66615180E-04
   1.01750004       1.65654288E-04
   1.01999998       1.64695855E-04
   1.02250004       1.63730016E-04
   1.02499998       1.62758399E-04
   1.02750003       1.61785836E-04
   1.02999997       1.60819254E-04
   1.03250003       1.59863543E-04
   1.03499997       1.58917363E-04
   1.03750002       1.57978371E-04
   1.03999996       1.57042683E-04
   1.04250002       1.56112277E-04
   1.04499996       1.55186804E-04
   1.04750001       1.54266207E-04
   1.04999995       1.53348505E-04
   1.05250001       1.52430701E-04
   1.05499995       1.51511776E-04
   1.05750000       1.50597174E-04
   1.05999994       1.49694097E-04
   1.06250000       1.48805542E-04
   1.06500006       1.47931103E-04
   1.06750000       1.47064799E-04
   1.07000005       1.46197126E-04
   1.07249999       1.45323298E-04
   1.07500005       1.44445046E-04
   1.07749999       1.43568643E-04
   1.08000004       1.42701945E-04
   1.08249998       1.41844299E-04
   1.08500004       1.40990800E-04
   1.08749998       1.40132543E-04
   1.09000003       1.39267373E-04
   1.09249997       1.38399599E-04
   1.09500003       1.37536990E-04
   1.09749997       1.36685718E-04
   1.10000002       1.35842973E-04
   1.10249996       1.34999107E-04
   1.10500002       1.34141854E-04
   1.10749996       1.33267138E-04
   1.11000001       1.32380403E-04
   1.11249995       1.31495181E-04
   1.11500001       1.30625500E-04
   1.11749995       1.29773092E-04
   1.12000000       1.28931570E-04
   1.12249994       1.28087704E-04
   1.12500000       1.27230160E-04
   1.12750006       1.26360290E-04
   1.13000000       1.25487844E-04
   1.13250005       1.24624130E-04
   1.13499999       1.23777121E-04
   1.13750005       1.22946483E-04
   1.13999999       1.22122074E-04
   1.14250004       1.21296063E-04
   1.14499998       1.20465498E-04
   1.14750004       1.19634860E-04
   1.14999998       1.18813186E-04
   1.15250003       1.18007636E-04
   1.15499997       1.17216470E-04
   1.15750003       1.16431576E-04
   1.15999997       1.15645002E-04
   1.16250002       1.14851318E-04
   1.16499996       1.14054455E-04
   1.16750002       1.13259273E-04
   1.16999996       1.12473630E-04
   1.17250001       1.11699039E-04
   1.17499995       1.10935238E-04
   1.17750001       1.10178051E-04
   1.17999995       1.09425797E-04
   1.18250000       1.08673506E-04
   1.18499994       1.07922133E-04
   1.18750000       1.07170163E-04
   1.19000006       1.06416075E-04
   1.19250000       1.05661507E-04
   1.19500005       1.04909217E-04
   1.19749999       1.04165105E-04
   1.20000005       1.03435959E-04
   1.20249999       1.02718885E-04
   1.20500004       1.02007594E-04
   1.20749998       1.01291902E-04
   1.21000004       1.00567238E-04
   1.21249998       9.98321339E-05
   1.21500003       9.90954795E-05
   1.21749997       9.83665959E-05
   1.22000003       9.76527735E-05
   1.22249997       9.69498215E-05
   1.22500002       9.62490158E-05
   1.22749996       9.55409196E-05
   1.23000002       9.48225352E-05
   1.23249996       9.40992177E-05
   1.23500001       9.33807969E-05
   1.23749995       9.26759021E-05
   1.24000001       9.19814993E-05
   1.24249995       9.12923933E-05
   1.24500000       9.05979687E-05
   1.24749994       8.98954240E-05
   1.25000000       8.91881282E-05
   1.25250006       8.84843612E-05
   1.25500000       8.77911079E-05
   1.25750005       8.71124939E-05
   1.25999999       8.64471658E-05
   1.26250005       8.57889172E-05
   1.26499999       8.51347722E-05
   1.26750004       8.44829119E-05
   1.26999998       8.38363994E-05
   1.27250004       8.31954239E-05
   1.27499998       8.25596144E-05
   1.27750003       8.19283523E-05
   1.27999997       8.13023653E-05
   1.28250003       8.06828975E-05
   1.28499997       8.00754569E-05
   1.28750002       7.94823209E-05
   1.28999996       7.89015394E-05
   1.29250002       7.83252035E-05
   1.29499996       7.77446476E-05
   1.29750001       7.71544874E-05
   1.29999995       7.65567529E-05
   1.30250001       7.59593968E-05
   1.30499995       7.53684362E-05
   1.30750000       7.47901577E-05
   1.30999994       7.42189077E-05
   1.31250000       7.36501242E-05
   1.31500006       7.30753600E-05
   1.31750000       7.24933634E-05
   1.32000005       7.19097297E-05
   1.32249999       7.13297923E-05
   1.32500005       7.07556464E-05
   1.32749999       7.01849713E-05
   1.33000004       6.96119459E-05
   1.33249998       6.90347879E-05
   1.33500004       6.84531187E-05
   1.33749998       6.78743163E-05
   1.34000003       6.73063332E-05
   1.34249997       6.67526256E-05
   1.34500003       6.62120437E-05
   1.34749997       6.56774428E-05
   1.35000002       6.51394439E-05
   1.35249996       6.45948312E-05
   1.35500002       6.40438884E-05
   1.35749996       6.34929384E-05
   1.36000001       6.29470596E-05
   1.36249995       6.24109307E-05
   1.36500001       6.18835547E-05
   1.36749995       6.13631419E-05
   1.37000000       6.08458940E-05
   1.37249994       6.03313420E-05
   1.37500000       5.98194383E-05
   1.37750006       5.93094810E-05
   1.38000000       5.88000075E-05
   1.38250005       5.82882567E-05
   1.38499999       5.77757382E-05
   1.38750005       5.72645804E-05
   1.38999999       5.67586576E-05
   1.39250004       5.62626337E-05
   1.39499998       5.57737876E-05
   1.39750004       5.52933452E-05
   1.39999998       5.48140961E-05
   1.40250003       5.43370188E-05
   1.40499997       5.38625900E-05
   1.40750003       5.33937491E-05
   1.40999997       5.29323770E-05
   1.41250002       5.24765019E-05
   1.41499996       5.20246576E-05
   1.41750002       5.15733955E-05
   1.41999996       5.11240396E-05
   1.42250001       5.06793913E-05
   1.42499995       5.02436123E-05
   1.42750001       4.98185982E-05
   1.42999995       4.94016531E-05
   1.43250000       4.89874365E-05
   1.43499994       4.85702476E-05
   1.43750000       4.81490788E-05
   1.44000006       4.77272806E-05
   1.44250000       4.73101463E-05
   1.44500005       4.69022234E-05
   1.44749999       4.65019621E-05
   1.45000005       4.61070049E-05
   1.45249999       4.57123060E-05
   1.45500004       4.53179491E-05
   1.45749998       4.49240360E-05
   1.46000004       4.45367368E-05
   1.46249998       4.41599004E-05
   1.46500003       4.37915260E-05
   1.46749997       4.34289796E-05
   1.47000003       4.30668479E-05
   1.47249997       4.27023588E-05
   1.47500002       4.23397942E-05
   1.47749996       4.19836360E-05
   1.48000002       4.16388393E-05
   1.48249996       4.13068556E-05
   1.48500001       4.09826062E-05
   1.48749995       4.06606341E-05
   1.49000001       4.03364065E-05
   1.49249995       4.00100071E-05
   1.49500000       3.96851974E-05
   1.49749994       3.93671507E-05
   1.50000000       3.90597888E-05
   1.50250006       3.87640284E-05
   1.50500000       3.84759660E-05
   1.50750005       3.81914142E-05
   1.50999999       3.79041703E-05
   1.51250005       3.76106545E-05
   1.51499999       3.73108560E-05
   1.51750004       3.70100533E-05
   1.51999998       3.67161811E-05
   1.52250004       3.64351763E-05
   1.52499998       3.61713610E-05
   1.52750003       3.59203077E-05
   1.52999997       3.56756573E-05
   1.53250003       3.54286167E-05
   1.53499997       3.51742347E-05
   1.53750002       3.49147740E-05
   1.53999996       3.46565430E-05
   1.54250002       3.44098189E-05
   1.54499996       3.41805280E-05
   1.54750001       3.39678591E-05
   1.54999995       3.37656529E-05
   1.55250001       3.35645709E-05
   1.55499995       3.33581629E-05
   1.55750000       3.31477204E-05
   1.55999994       3.29376489E-05
   1.56250000       3.27353882E-05
   1.56500006       3.25436413E-05
   1.56750000       3.23589265E-05
   1.57000005       3.21746884E-05
   1.57249999       3.19863502E-05
   1.57500005       3.17915401E-05
   1.57749999       3.15971629E-05
   1.58000004       3.14114550E-05
   1.58249998       3.12397715E-05
   1.58500004       3.10828327E-05
   1.58749998       3.09350653E-05
   1.59000003       3.07866576E-05
   1.59249997       3.06314760E-05
   1.59500003       3.04678670E-05
   1.59749997       3.03005199E-05
   1.60000002       3.01365180E-05
   1.60249996       2.99825479E-05
   1.60500002       2.98421583E-05
   1.60749996       2.97131646E-05
   1.61000001       2.95906539E-05
   1.61249995       2.94678448E-05
   1.61500001       2.93410922E-05
   1.61749995       2.92109034E-05
   1.62000000       2.90796488E-05
   1.62249994       2.89528780E-05
   1.62500000       2.88336541E-05
   1.62750006       2.87234743E-05
   1.63000000       2.86191207E-05
   1.63250005       2.85165806E-05
   1.63499999       2.84125435E-05
   1.63750005       2.83052577E-05
   1.63999999       2.81993925E-05
   1.64250004       2.80998029E-05
   1.64499998       2.80122058E-05
   1.64750004       2.79365104E-05
   1.64999998       2.78681928E-05
   1.65250003       2.77999516E-05
   1.65499997       2.77253366E-05
   1.65750003       2.76453466E-05
   1.65999997       2.75656876E-05
   1.66250002       2.74968297E-05
   1.66499996       2.74445592E-05
   1.66750002       2.74095328E-05
   1.66999996       2.73844435E-05
   1.67250001       2.73593359E-05
   1.67499995       2.73284368E-05
   1.67750001       2.72915622E-05
   1.67999995       2.72544221E-05
   1.68250000       2.72250745E-05
   1.68499994       2.72075322E-05
   1.68750000       2.71993686E-05
   1.69000006       2.71939716E-05
   1.69250000       2.71852477E-05
   1.69500005       2.71709559E-05
   1.69749999       2.71555818E-05
   1.70000005       2.71452864E-05
   1.70249999       2.71430836E-05
   1.70500004       2.71493227E-05
   1.70749998       2.71586450E-05
   1.71000004       2.71647150E-05
   1.71249998       2.71632762E-05
   1.71500003       2.71544777E-05
   1.71749997       2.71416811E-05
   1.72000003       2.71295958E-05
   1.72249997       2.71219560E-05
   1.72500002       2.71210210E-05
   1.72749996       2.71262707E-05
   1.73000002       2.71349945E-05
   1.73249996       2.71438676E-05
   1.73500001       2.71492663E-05
   1.73749995       2.71487806E-05
   1.74000001       2.71418321E-05
   1.74249995       2.71326971E-05
   1.74500000       2.71262888E-05
   1.74749994       2.71265872E-05
   1.75000000       2.71350327E-05
   1.75250006       2.71494537E-05
   1.75500000       2.71649023E-05
   1.75750005       2.71769331E-05
   1.75999999       2.71852750E-05
   1.76250005       2.71936060E-05
   1.76499999       2.72075995E-05
   1.76750004       2.72307170E-05
   1.76999998       2.72614925E-05
   1.77250004       2.72931011E-05
   1.77499998       2.73205624E-05
   1.77750003       2.73413007E-05
   1.77999997       2.73605419E-05
   1.78250003       2.73864989E-05
   1.78499997       2.74277281E-05
   1.78750002       2.74839967E-05
   1.78999996       2.75493621E-05
   1.79250002       2.76122610E-05
   1.79499996       2.76649698E-05
   1.79750001       2.77056297E-05
   1.79999995       2.77429262E-05
   1.80250001       2.77865183E-05
   1.80499995       2.78433363E-05
   1.80750000       2.79123378E-05
   1.80999994       2.79849974E-05
   1.81250000       2.80522308E-05
   1.81500006       2.81073881E-05
   1.81750000       2.81522498E-05
   1.82000005       2.81919383E-05
   1.82249999       2.82343535E-05
   1.82500005       2.82824858E-05
   1.82749999       2.83354093E-05
   1.83000004       2.83882582E-05
   1.83249998       2.84369216E-05
   1.83500004       2.84808411E-05
   1.83749998       2.85207934E-05
   1.84000003       2.85610586E-05
   1.84249997       2.86043069E-05
   1.84500003       2.86509239E-05
   1.84749997       2.87007188E-05
   1.85000002       2.87521852E-05
   1.85249996       2.88035226E-05
   1.85500002       2.88539231E-05
   1.85749996       2.89035142E-05
   1.86000001       2.89515610E-05
   1.86249995       2.89998152E-05
   1.86500001       2.90497974E-05
   1.86749995       2.91046817E-05
   1.87000000       2.91652468E-05
   1.87249994       2.92290042E-05
   1.87500000       2.92921668E-05
   1.87750006       2.93505636E-05
   1.88000000       2.94027213E-05
   1.88250005       2.94511337E-05
   1.88499999       2.94991059E-05
   1.88750005       2.95510217E-05
   1.88999999       2.96077087E-05
   1.89250004       2.96661910E-05
   1.89499998       2.97224306E-05
   1.89750004       2.97721326E-05
   1.89999998       2.98151735E-05
   1.90250003       2.98547584E-05
   1.90499997       2.98953801E-05
   1.90750003       2.99409639E-05
   1.90999997       2.99921485E-05
   1.91250002       3.00473894E-05
   1.91499996       3.01023683E-05
   1.91750002       3.01552918E-05
   1.91999996       3.02053031E-05
   1.92250001       3.02538738E-05
   1.92499995       3.03020788E-05
   1.92750001       3.03494653E-05
   1.92999995       3.03955876E-05
   1.93250000       3.04418245E-05
   1.93499994       3.04901896E-05
   1.93750000       3.05436843E-05
   1.94000006       3.06052098E-05
   1.94250000       3.06729962E-05
   1.94500005       3.07419359E-05
   1.94749999       3.08049384E-05
   1.95000005       3.08568160E-05
   1.95249999       3.08964518E-05
   1.95500004       3.09289826E-05
   1.95749998       3.09619936E-05
   1.96000004       3.10032701E-05
   1.96249998       3.10553696E-05
   1.96500003       3.11150579E-05
   1.96749997       3.11752265E-05
   1.97000003       3.12278462E-05
   1.97249997       3.12697375E-05
   1.97500002       3.13028395E-05
   1.97749996       3.13337951E-05
   1.98000002       3.13675228E-05