 -0.159999996       0.00000000    
 -0.157499999       0.00000000    
 -0.155000001       0.00000000    
 -0.152500004       0.00000000    
 -0.150000006       0.00000000    
 -0.147499993       0.00000000    
 -0.144999996       0.00000000    
 -0.142499998       0.00000000    
 -0.140000001       0.00000000    
 -0.137500003       0.00000000    
 -0.135000005       0.00000000    
 -0.132499993       0.00000000    
 -0.129999995       0.00000000    
 -0.127499998       0.00000000    
 -0.125000000       0.00000000    
 -0.122500002       0.00000000    
 -0.119999997       0.00000000    
 -0.117500000       0.00000000    
 -0.115000002       0.00000000    
 -0.112499997       0.00000000    
 -0.109999999       2.40837271E-38
 -0.107500002      -3.20496997E-38
 -0.104999997      -2.23505962E-37
 -0.102499999       6.02795327E-38
 -0.100000001       1.27883987E-36
  -9.74999964E-02   2.14025090E-37
  -9.49999988E-02  -5.47262143E-36
  -9.25000012E-02   5.62405735E-37
  -9.00000036E-02   3.09279107E-35
  -8.74999985E-02   3.32733657E-37
  -8.50000009E-02  -2.01808227E-34
  -8.25000033E-02  -2.29609840E-34
  -7.99999982E-02   7.58041960E-34
  -7.75000006E-02   2.16861883E-33
  -7.50000030E-02  -1.41545629E-36
  -7.24999979E-02  -8.40524746E-33
  -7.00000003E-02  -1.28344088E-32
  -6.75000027E-02   7.96952623E-33
  -6.49999976E-02   5.16336952E-32
  -6.25000000E-02   5.71239532E-32
  -5.99999987E-02  -5.01106365E-32
  -5.75000010E-02  -2.23631805E-31
  -5.49999997E-02  -2.33519194E-31
  -5.24999984E-02   1.37001092E-31
  -5.00000007E-02   7.35252062E-31
  -4.74999994E-02   9.40888248E-31
  -4.50000018E-02   1.05998369E-31
  -4.25000004E-02  -1.73519329E-30
  -3.99999991E-02  -3.44968810E-30
  -3.75000015E-02  -2.99770394E-30
  -3.50000001E-02   1.58805751E-30
  -3.24999988E-02   1.00089541E-29
  -2.99999993E-02   1.66912885E-29
  -2.74999999E-02   1.04439081E-29
  -2.50000004E-02  -1.76285619E-29
  -2.25000009E-02  -5.79963409E-29
  -1.99999996E-02  -7.24458771E-29
  -1.75000001E-02  -1.23412914E-29
  -1.49999997E-02   1.28671404E-28
  -1.25000002E-02   2.63463148E-28
  -9.99999978E-03   2.28409995E-28
  -7.49999983E-03  -9.40944311E-29
  -4.99999989E-03  -6.06177157E-28
  -2.49999994E-03  -9.30033111E-28
   0.00000000      -5.86948288E-28
   2.49999994E-03   6.03953816E-28
   4.99999989E-03   2.15335377E-27
   7.49999983E-03   2.90626642E-27
   9.99999978E-03   1.62636810E-27
   1.25000002E-02  -2.00849995E-27
   1.49999997E-02  -6.56773080E-27
   1.75000001E-02  -8.91923580E-27
   1.99999996E-02  -5.63536731E-27
   2.25000009E-02   4.51110725E-27
   2.50000004E-02   1.81831314E-26
   2.74999999E-02   2.71200673E-26
   2.99999993E-02   2.13035246E-26
   3.24999988E-02  -4.58464965E-27
   3.50000001E-02  -4.43071339E-26
   3.75000015E-02  -7.76948304E-26
   3.99999991E-02  -7.69611097E-26
   4.25000004E-02  -2.17713993E-26
   4.50000018E-02   8.29524096E-26
   4.74999994E-02   1.96920340E-25
   5.00000007E-02   2.51680698E-25
   5.24999984E-02   1.77941542E-25
   5.49999997E-02  -5.42128264E-26
   5.75000010E-02  -3.97957992E-25
   5.99999987E-02  -7.14540643E-25
   6.25000000E-02  -7.97429463E-25
   6.49999976E-02  -4.45312721E-25
   6.75000027E-02   4.21314980E-25
   7.00000003E-02   1.63016528E-24
   7.24999979E-02   2.67744815E-24
   7.50000030E-02   2.78919227E-24
   7.75000006E-02   1.20424153E-24
   7.99999982E-02  -2.32129816E-24
   8.25000033E-02  -6.94707674E-24
   8.50000009E-02  -1.04624957E-23
   8.74999985E-02  -9.71444576E-24
   9.00000036E-02  -2.02380589E-24
   9.25000012E-02   1.26256494E-23
   9.49999988E-02   2.95682706E-23
   9.74999964E-02   3.91557453E-23
  0.100000001       2.96708762E-23
  0.102499999      -6.20946576E-24
  0.104999997      -6.33090096E-23
  0.107500002      -1.18602157E-22
  0.109999999      -1.34177465E-22
  0.112499997      -7.22020279E-23
  0.115000002       8.00381114E-23
  0.117500000       2.84903869E-22
  0.119999997       4.45331141E-22
  0.122500002       4.28096310E-22
  0.125000000       1.24896851E-22
  0.127499998      -4.63819870E-22
  0.129999995      -1.16045130E-21
  0.132499993      -1.60818936E-21
  0.135000005      -1.37521776E-21
  0.137500003      -1.64167066E-22
  0.140000001       1.93615072E-21
  0.142499998       4.27728673E-21
  0.144999996       5.69458235E-21
  0.147499993       4.85571216E-21
  0.150000006       8.80550322E-22
  0.152500004      -5.96061947E-21
  0.155000001      -1.37912075E-20
  0.157499999      -1.92533865E-20
  0.159999996      -1.84102325E-20
  0.162499994      -8.32959568E-21
  0.165000007       1.10986426E-20
  0.167500004       3.58340037E-20
  0.170000002       5.76158632E-20
  0.172499999       6.56611253E-20
  0.174999997       5.00854727E-20
  0.177499995       6.30304276E-21
  0.180000007      -6.09680321E-20
  0.182500005      -1.35773439E-19
  0.185000002      -1.92539316E-19
  0.187500000      -2.01925825E-19
  0.189999998      -1.40320192E-19
  0.192499995      -8.47698670E-22
  0.194999993       1.97563908E-19
  0.197500005       4.07160683E-19
  0.200000003       5.57855878E-19
  0.202500001       5.74521086E-19
  0.204999998       4.02696208E-19
  0.207499996       3.60210209E-20
  0.209999993      -4.64751789E-19
  0.212500006      -9.71922434E-19
  0.215000004      -1.31715174E-18
  0.217500001      -1.34238654E-18
  0.219999999      -9.62633506E-19
  0.222499996      -2.17966279E-19
  0.224999994       7.11020621E-19
  0.227500007       1.54245682E-18
  0.230000004       1.98645501E-18
  0.232500002       1.86666892E-18
  0.234999999       1.22304547E-18
  0.237499997       3.42330273E-19
  0.239999995      -3.20507233E-19
  0.242500007      -3.27731828E-19
  0.245000005       5.01284531E-19
  0.247500002       1.89026362E-18
  0.250000000       3.05339310E-18
  0.252499998       2.86636714E-18
  0.254999995       2.65171073E-19
  0.257499993      -5.21841985E-18
  0.259999990      -1.29603916E-17
  0.262499988      -2.10012042E-17
  0.264999986      -2.62360051E-17
  0.267500013      -2.51092759E-17
  0.270000011      -1.47231300E-17
  0.272500008       5.89964403E-18
  0.275000006       3.47757979E-17
  0.277500004       6.65456016E-17
  0.280000001       9.29830153E-17
  0.282499999       1.04523892E-16
  0.284999996       9.26235954E-17
  0.287499994       5.24687644E-17
  0.289999992      -1.46454164E-17
  0.292499989      -1.00029019E-16
  0.294999987      -1.88027749E-16
  0.297500014      -2.58450849E-16
  0.300000012      -2.90762032E-16
  0.302500010      -2.69217802E-16
  0.305000007      -1.87664848E-16
  0.307500005      -5.25275405E-17
  0.310000002       1.17220400E-16
  0.312500000       2.93558194E-16
  0.314999998       4.45775864E-16
  0.317499995       5.47963084E-16
  0.319999993       5.85198705E-16
  0.322499990       5.56076071E-16
  0.324999988       4.70206624E-16
  0.327499986       3.41120550E-16
  0.330000013       1.77024857E-16
  0.332500011      -2.66033759E-17
  0.335000008      -2.88329751E-16
  0.337500006      -6.33151993E-16
  0.340000004      -1.07611820E-15
  0.342500001      -1.60111843E-15
  0.344999999      -2.14209529E-15
  0.347499996      -2.57536365E-15
  0.349999994      -2.73029085E-15
  0.352499992      -2.42114098E-15
  0.354999989      -1.49635983E-15
  0.357499987       1.05157572E-16
  0.360000014       2.30592374E-15
  0.362500012       4.86564397E-15
  0.365000010       7.39263675E-15
  0.367500007       9.39448900E-15
  0.370000005       1.03614279E-14
  0.372500002       9.86675477E-15
  0.375000000       7.66312994E-15
  0.377499998       3.75327118E-15
  0.379999995      -1.58115672E-15
  0.382499993      -7.79961914E-15
  0.384999990      -1.41681643E-14
  0.387499988      -1.98572644E-14
  0.389999986      -2.40530032E-14
  0.392500013      -2.60612556E-14
  0.395000011      -2.53876035E-14
  0.397500008      -2.17828498E-14
  0.400000006      -1.52530203E-14
  0.402500004      -6.04208041E-15
  0.405000001       5.39797622E-15
  0.407499999       1.84318079E-14
  0.409999996       3.22465985E-14
  0.412499994       4.58353279E-14
  0.414999992       5.79690918E-14
  0.417499989       6.71859148E-14
  0.419999987       7.18343977E-14
  0.422500014       7.02090499E-14
  0.425000012       6.07963658E-14
  0.427500010       4.26167585E-14
  0.430000007       1.56051218E-14
  0.432500005      -1.90652209E-14
  0.435000002      -5.88270345E-14
  0.437500000      -9.98291280E-14
  0.439999998      -1.37356001E-13
  0.442499995      -1.66524021E-13
  0.444999993      -1.83135842E-13
  0.447499990      -1.84514147E-13
  0.449999988      -1.70116877E-13
  0.452499986      -1.41776754E-13
  0.455000013      -1.03492220E-13
  0.457500011      -6.08081429E-14
  0.460000008      -1.99220286E-14
  0.462500006       1.32900511E-14
  0.465000004       3.41331848E-14
  0.467500001       3.96989435E-14
  0.469999999       2.91543523E-14
  0.472499996       3.73897199E-15
  0.474999994      -3.34683250E-14
  0.477499992      -7.79475090E-14
  0.479999989      -1.24272581E-13
  0.482499987      -1.66813937E-13
  0.485000014      -2.00676132E-13
  0.487500012      -2.22931835E-13
  0.490000010      -2.34176150E-13
  0.492500007      -2.40371037E-13
  0.495000005      -2.54849147E-13
  0.497500002      -3.00250222E-13
  0.500000000      -4.10092262E-13
  0.502499998      -6.29507297E-13
  0.504999995      -1.01458837E-12
  0.507499993      -1.62974072E-12
  0.509999990      -2.54236215E-12
  0.512499988      -3.81451468E-12
  0.514999986      -5.49127193E-12
  0.517499983      -7.58607847E-12
  0.519999981      -1.00636869E-11
  0.522499979      -1.28217914E-11
  0.524999976      -1.56727287E-11
  0.527499974      -1.83268366E-11
  0.529999971      -2.03792989E-11
  0.532500029      -2.13018804E-11
  0.535000026      -2.04412581E-11
  0.537500024      -1.70245935E-11
  0.540000021      -1.01738314E-11
  0.542500019       1.07110826E-12
  0.545000017       1.77197163E-11
  0.547500014       4.07880639E-11
  0.550000012       7.12463769E-11
  0.552500010       1.09959757E-10
  0.555000007       1.57625746E-10
  0.557500005       2.14716370E-10
  0.560000002       2.81431461E-10
  0.562500000       3.57678026E-10
  0.564999998       4.43080961E-10
  0.567499995       5.37043521E-10
  0.569999993       6.38872566E-10
  0.572499990       7.47975792E-10
  0.574999988       8.64150862E-10
  0.577499986       9.87974591E-10
  0.579999983       1.12130261E-09
  0.582499981       1.26787936E-09
  0.584999979       1.43403978E-09
  0.587499976       1.62951386E-09
  0.589999974       1.86827975E-09
  0.592499971       2.16945506E-09
  0.595000029       2.55814703E-09
  0.597500026       3.06629477E-09
  0.600000024       3.73334341E-09
  0.602500021       4.60673100E-09
  0.605000019       5.74215564E-09
  0.607500017       7.20350002E-09
  0.610000014       9.06231357E-09
  0.612500012       1.13967733E-08
  0.615000010       1.42901513E-08
  0.617500007       1.78287571E-08
  0.620000005       2.20992700E-08
  0.622500002       2.71856049E-08
  0.625000000       3.31653176E-08
  0.627499998       4.01055011E-08
  0.629999995       4.80589151E-08
  0.632499993       5.70597827E-08
  0.634999990       6.71203182E-08
  0.637499988       7.82277141E-08
  0.639999986       9.03420769E-08
  0.642499983       1.03395735E-07
  0.644999981       1.17293851E-07
  0.647499979       1.31918057E-07
  0.649999976       1.47132184E-07
  0.652499974       1.62791494E-07
  0.654999971       1.78754760E-07
  0.657500029       1.94900281E-07
  0.660000026       2.11144595E-07
  0.662500024       2.27464568E-07
  0.665000021       2.43922301E-07
  0.667500019       2.60693298E-07
  0.670000017       2.78098355E-07
  0.672500014       2.96635562E-07
  0.675000012       3.17015889E-07
  0.677500010       3.40197658E-07
  0.680000007       3.67422189E-07
  0.682500005       4.00239855E-07
  0.685000002       4.40535956E-07
  0.687500000       4.90550462E-07
  0.689999998       5.52899053E-07
  0.692499995       6.30579052E-07
  0.694999993       7.26973497E-07
  0.697499990       8.45844284E-07
  0.699999988       9.91330353E-07
  0.702499986       1.16790102E-06
  0.704999983       1.38033442E-06
  0.707499981       1.63366315E-06
  0.709999979       1.93315122E-06
  0.712499976       2.28420754E-06
  0.714999974       2.69237626E-06
  0.717499971       3.16326509E-06
  0.720000029       3.70249222E-06
  0.722500026       4.31561330E-06
  0.725000024       5.00810120E-06
  0.727500021       5.78528034E-06
  0.730000019       6.65232301E-06
  0.732500017       7.61421461E-06
  0.735000014       8.67577819E-06
  0.737500012       9.84167582E-06
  0.740000010       1.11163490E-05
  0.742500007       1.25042070E-05
  0.745000005       1.40094562E-05
  0.747500002       1.56362985E-05
  0.750000000       1.73888930E-05
  0.752499998       1.92714360E-05
  0.754999995       2.12882096E-05
  0.757499993       2.34436902E-05
  0.759999990       2.57423453E-05
  0.762499988       2.81887715E-05
  0.764999986       3.07877162E-05
  0.767499983       3.35439763E-05
  0.769999981       3.64624611E-05
  0.772499979       3.95479947E-05
  0.774999976       4.28053827E-05
  0.777499974       4.62392090E-05
  0.779999971       4.98537374E-05
  0.782500029       5.36526677E-05
  0.785000026       5.76392158E-05
  0.787500024       6.18158956E-05
  0.790000021       6.61845042E-05
  0.792500019       7.07460786E-05
  0.795000017       7.55008296E-05
  0.797500014       8.04477386E-05
  0.800000012       8.55851758E-05
  0.802500010       9.09103765E-05
  0.805000007       9.64198625E-05
  0.807500005       1.02109385E-04
  0.810000002       1.07974047E-04
  0.812500000       1.14008522E-04
  0.814999998       1.20207682E-04
  0.817499995       1.26565676E-04
  0.819999993       1.33077003E-04
  0.822499990       1.39736425E-04
  0.824999988       1.46538616E-04
  0.827499986       1.53479501E-04
  0.829999983       1.60555370E-04
  0.832499981       1.67762613E-04
  0.834999979       1.75098554E-04
  0.837499976       1.82560500E-04
  0.839999974       1.90146020E-04
  0.842499971       1.97852467E-04
  0.845000029       2.05677177E-04
  0.847500026       2.13616455E-04
  0.850000024       2.21665367E-04
  0.852500021       2.29818354E-04
  0.855000019       2.38066990E-04
  0.857500017       2.46401614E-04
  0.860000014       2.54808780E-04
  0.862500012       2.63273512E-04
  0.865000010       2.71776662E-04
  0.867500007       2.80296168E-04
  0.870000005       2.88806565E-04
  0.872500002       2.97280058E-04
  0.875000000       3.05685680E-04
  0.877499998       3.13990284E-04
  0.879999995       3.22157692E-04
  0.882499993       3.30150273E-04
  0.884999990       3.37931066E-04
  0.887499988       3.45459557E-04
  0.889999986       3.52697680E-04
  0.892499983       3.59608239E-04
  0.894999981       3.66157852E-04
  0.897499979       3.72312206E-04
  0.899999976       3.78042401E-04
  0.902499974       3.83322884E-04
  0.904999971       3.88130808E-04
  0.907500029       3.92450049E-04
  0.910000026       3.96269228E-04
  0.912500024       3.99581942E-04
  0.915000021       4.02385747E-04
  0.917500019       4.04684310E-04
  0.920000017       4.06484556E-04
  0.922500014       4.07797634E-04
  0.925000012       4.08638123E-04
  0.927500010       4.09025524E-04
  0.930000007       4.08981112E-04
  0.932500005       4.08527208E-04
  0.935000002       4.07688378E-04
  0.937500000       4.06489329E-04
  0.939999998       4.04955383E-04
  0.942499995       4.03112383E-04
  0.944999993       4.00984514E-04
  0.947499990       3.98593314E-04
  0.949999988       3.95958516E-04
  0.952499986       3.93101363E-04
  0.954999983       3.90038535E-04
  0.957499981       3.86787113E-04
  0.959999979       3.83361126E-04
  0.962499976       3.79773759E-04
  0.964999974       3.76036332E-04
  0.967499971       3.72157810E-04
  0.970000029       3.68147797E-04
  0.972500026       3.64012521E-04
  0.975000024       3.59760073E-04
  0.977500021       3.55395256E-04
  0.980000019       3.50927032E-04
  0.982500017       3.46361951E-04
  0.985000014       3.41706880E-04
  0.987500012       3.36967845E-04
  0.990000010       3.32150492E-04
  0.992500007       3.27262300E-04
  0.995000005       3.22308944E-04
  0.997500002       3.17298516E-04
   1.00000000       3.12238466E-04
   1.00250006       3.07135953E-04
   1.00500000       3.01998487E-04
   1.00750005       2.96833488E-04
   1.00999999       2.91647011E-04
   1.01250005       2.86445545E-04
   1.01499999       2.81234883E-04
   1.01750004       2.76022649E-04
   1.01999998       2.70813471E-04
   1.02250004       2.65614100E-04
   1.02499998       2.60430010E-04
   1.02750003       2.55263818E-04
   1.02999997       2.50120385E-04
   1.03250003       2.45003233E-04
   1.03499997       2.39914487E-04
   1.03750002       2.34857420E-04
   1.03999996       2.29836209E-04
   1.04250002       2.24853575E-04
   1.04499996       2.19913360E-04
   1.04750001       2.15016204E-04
   1.04999995       2.10165075E-04
   1.05250001       2.05361459E-04
   1.05499995       2.00607479E-04
   1.05750000       1.95905814E-04
   1.05999994       1.91258223E-04
   1.06250000       1.86668636E-04
   1.06500006       1.82139411E-04
   1.06750000       1.77674461E-04
   1.07000005       1.73277062E-04
   1.07249999       1.68950806E-04
   1.07500005       1.64698664E-04
   1.07749999       1.60525145E-04
   1.08000004       1.56433511E-04
   1.08249998       1.52427980E-04
   1.08500004       1.48513282E-04
   1.08749998       1.44693651E-04
   1.09000003       1.40972959E-04
   1.09249997       1.37353607E-04
   1.09500003       1.33838854E-04
   1.09749997       1.30430504E-04
   1.10000002       1.27130974E-04
   1.10249996       1.23941412E-04
   1.10500002       1.20863951E-04
   1.10749996       1.17897980E-04
   1.11000001       1.15041999E-04
   1.11249995       1.12293921E-04
   1.11500001       1.09650464E-04
   1.11749995       1.07107728E-04
   1.12000000       1.04664228E-04
   1.12249994       1.02316975E-04
   1.12500000       1.00064179E-04
   1.12750006       9.79016404E-05
   1.13000000       9.58251912E-05
   1.13250005       9.38297453E-05
   1.13499999       9.19102167E-05
   1.13750005       9.00642117E-05
   1.13999999       8.82881577E-05
   1.14250004       8.65814436E-05
   1.14499998       8.49422795E-05
   1.14750004       8.33703743E-05
   1.14999998       8.18633198E-05
   1.15250003       8.04190495E-05
   1.15499997       7.90354461E-05
   1.15750003       7.77111709E-05
   1.15999997       7.64436918E-05
   1.16250002       7.52326960E-05
   1.16499996       7.40761170E-05
   1.16750002       7.29733292E-05
   1.16999996       7.19216478E-05
   1.17250001       7.09179440E-05
   1.17499995       6.99592274E-05
   1.17750001       6.90411543E-05
   1.17999995       6.81594029E-05
   1.18250000       6.73100876E-05
   1.18499994       6.64891631E-05
   1.18750000       6.56925986E-05
   1.19000006       6.49174035E-05
   1.19250000       6.41601437E-05
   1.19500005       6.34161843E-05
   1.19749999       6.26814872E-05
   1.20000005       6.19550119E-05
   1.20249999       6.12340737E-05
   1.20500004       6.05201494E-05
   1.20749998       5.98134066E-05
   1.21000004       5.91129356E-05
   1.21249998       5.84190420E-05
   1.21500003       5.77327701E-05
   1.21749997       5.70551638E-05
   1.22000003       5.63884714E-05
   1.22249997       5.57364256E-05
   1.22500002       5.51008161E-05
   1.22749996       5.44852337E-05
   1.23000002       5.38914719E-05
   1.23249996       5.33204256E-05
   1.23500001       5.27732882E-05
   1.23749995       5.22494665E-05
   1.24000001       5.17491135E-05
   1.24249995       5.12702754E-05
   1.24500000       5.08131125E-05
   1.24749994       5.03767151E-05
   1.25000000       4.99600537E-05
   1.25250006       4.95623681E-05
   1.25500000       4.91809697E-05
   1.25750005       4.88125806E-05
   1.25999999       4.84544980E-05
   1.26250005       4.81038915E-05
   1.26499999       4.77597096E-05
   1.26750004       4.74213521E-05
   1.26999998       4.70883824E-05
   1.27250004       4.67591453E-05
   1.27499998       4.64334953E-05
   1.27750003       4.61114323E-05
   1.27999997       4.57947463E-05
   1.28250003       4.54843430E-05
   1.28499997       4.51812557E-05
   1.28750002       4.48875908E-05
   1.28999996       4.46048289E-05
   1.29250002       4.43335812E-05
   1.29499996       4.40748809E-05
   1.29750001       4.38300849E-05
   1.29999995       4.36008304E-05
   1.30250001       4.33878631E-05
   1.30499995       4.31934313E-05
   1.30750000       4.30181244E-05
   1.30999994       4.28622516E-05
   1.31250000       4.27258019E-05
   1.31500006       4.26081860E-05
   1.31750000       4.25079088E-05
   1.32000005       4.24233149E-05
   1.32249999       4.23529273E-05
   1.32500005       4.22958365E-05
   1.32749999       4.22513003E-05
   1.33000004       4.22187222E-05
   1.33249998       4.21985424E-05
   1.33500004       4.21892801E-05
   1.33749998       4.21906225E-05
   1.34000003       4.22012381E-05
   1.34249997       4.22193189E-05
   1.34500003       4.22442754E-05
   1.34749997       4.22762605E-05
   1.35000002       4.23160127E-05
   1.35249996       4.23644342E-05
   1.35500002       4.24206264E-05
   1.35749996       4.24853388E-05
   1.36000001       4.25585677E-05
   1.36249995       4.26404658E-05
   1.36500001       4.27322266E-05
   1.36749995       4.28335552E-05
   1.37000000       4.29445972E-05
   1.37249994       4.30650507E-05
   1.37500000       4.31934313E-05
   1.37750006       4.33288333E-05
   1.38000000       4.34696121E-05
   1.38250005       4.36150258E-05
   1.38499999       4.37653725E-05
   1.38750005       4.39200558E-05
   1.38999999       4.40783188E-05
   1.39250004       4.42392775E-05
   1.39499998       4.44009820E-05
   1.39750004       4.45607438E-05
   1.39999998       4.47167658E-05
   1.40250003       4.48678620E-05
   1.40499997       4.50135740E-05
   1.40750003       4.51533087E-05
   1.40999997       4.52879613E-05
   1.41250002       4.54175388E-05
   1.41499996       4.55417321E-05
   1.41750002       4.56608432E-05
   1.41999996       4.57754686E-05
   1.42250001       4.58859104E-05
   1.42499995       4.59914227E-05
   1.42750001       4.60924493E-05
   1.42999995       4.61894415E-05
   1.43250000       4.62822500E-05
   1.43499994       4.63720680E-05
   1.43750000       4.64596487E-05
   1.44000006       4.65445337E-05
   1.44250000       4.66268830E-05
   1.44500005       4.67069112E-05
   1.44749999       4.67835052E-05
   1.45000005       4.68558392E-05
   1.45249999       4.69232400E-05
   1.45500004       4.69845145E-05
   1.45749998       4.70384657E-05
   1.46000004       4.70848681E-05
   1.46249998       4.71220810E-05
   1.46500003       4.71500316E-05
   1.46749997       4.71684871E-05
   1.47000003       4.71772291E-05
   1.47249997       4.71763342E-05
   1.47500002       4.71653475E-05
   1.47749996       4.71442763E-05
   1.48000002       4.71125932E-05
   1.48249996       4.70700761E-05
   1.48500001       4.70167979E-05
   1.48749995       4.69534316E-05
   1.49000001       4.68803482E-05
   1.49249995       4.68000180E-05
   1.49500000       4.67126665E-05
   1.49749994       4.66200800E-05
   1.50000000       4.65230878E-05
   1.50250006       4.64222103E-05
   1.50500000       4.63182696E-05
   1.50750005       4.62106618E-05
   1.50999999       4.60998490E-05
   1.51250005       4.59855182E-05
   1.51499999       4.58675277E-05
   1.51750004       4.57460264E-05
   1.51999998       4.56218331E-05
   1.52250004       4.54955516E-05
   1.52499998       4.53669491E-05
   1.52750003       4.52355816E-05
   1.52999997       4.50997322E-05
   1.53250003       4.49587278E-05
   1.53499997       4.48114442E-05
   1.53750002       4.46579616E-05
   1.53999996       4.44984980E-05
   1.54250002       4.43331301E-05
   1.54499996       4.41614866E-05
   1.54750001       4.39841642E-05
   1.54999995       4.38007919E-05
   1.55250001       4.36119662E-05
   1.55499995       4.34183530E-05
   1.55750000       4.32211527E-05
   1.55999994       4.30211912E-05
   1.56250000       4.28183121E-05
   1.56500006       4.26122970E-05
   1.56750000       4.24035170E-05
   1.57000005       4.21918958E-05
   1.57249999       4.19781827E-05
   1.57500005       4.17644696E-05
   1.57749999       4.15512040E-05
   1.58000004       4.13390590E-05
   1.58249998       4.11280380E-05
   1.58500004       4.09169406E-05
   1.58749998       4.07050975E-05
   1.59000003       4.04919811E-05
   1.59249997       4.02775222E-05
   1.59500003       4.00614917E-05
   1.59749997       3.98444936E-05
   1.60000002       3.96261457E-05
   1.60249996       3.94064555E-05
   1.60500002       3.91848225E-05
   1.60749996       3.89615452E-05
   1.61000001       3.87367727E-05
   1.61249995       3.85105050E-05
   1.61500001       3.82824473E-05
   1.61749995       3.80532656E-05
   1.62000000       3.78222903E-05
   1.62249994       3.75899726E-05
   1.62500000       3.73568291E-05
   1.62750006       3.71233909E-05
   1.63000000       3.68911460E-05
   1.63250005       3.66601707E-05
   1.63499999       3.64308435E-05
   1.63750005       3.62036044E-05
   1.63999999       3.59781588E-05
   1.64250004       3.57545832E-05
   1.64499998       3.55326520E-05
   1.64750004       3.53126597E-05
   1.64999998       3.50948758E-05
   1.65250003       3.48791837E-05
   1.65499997       3.46659945E-05
   1.65750003       3.44556429E-05
   1.65999997       3.42482090E-05
   1.66250002       3.40434999E-05
   1.66499996       3.38409955E-05
   1.66750002       3.36400590E-05
   1.66999996       3.34401338E-05
   1.67250001       3.32409945E-05
   1.67499995       3.30428957E-05
   1.67750001       3.28461501E-05
   1.67999995       3.26509689E-05
   1.68250000       3.24571702E-05
   1.68499994       3.22643027E-05
   1.68750000       3.20716244E-05
   1.69000006       3.18785387E-05
   1.69250000       3.16853366E-05
   1.69500005       3.14920617E-05
   1.69749999       3.12990851E-05
   1.70000005       3.11066324E-05
   1.70249999       3.09145507E-05
   1.70500004       3.07223963E-05
   1.70749998       3.05298709E-05
   1.71000004       3.03369306E-05
   1.71249998       3.01436903E-05
   1.71500003       2.99507901E-05
   1.71749997       2.97585229E-05
   1.72000003       2.95668542E-05
   1.72249997       2.93753346E-05
   1.72500002       2.91835913E-05
   1.72749996       2.89914005E-05
   1.73000002       2.87990952E-05
   1.73249996       2.86075756E-05
   1.73500001       2.84177004E-05
   1.73749995       2.82298042E-05
   1.74000001       2.80440017E-05
   1.74249995       2.78595053E-05
   1.74500000       2.76760020E-05
   1.74749994       2.74936356E-05
   1.75000000       2.73129135E-05
   1.75250006       2.71349945E-05
   1.75500000       2.69607735E-05
   1.75750005       2.67909818E-05
   1.75999999       2.66256520E-05
   1.76250005       2.64645460E-05
   1.76499999       2.63071561E-05
   1.76750004       2.61533169E-05
   1.76999998       2.60031957E-05
   1.77250004       2.58574437E-05
   1.77499998       2.57167740E-05
   1.77750003       2.55814866E-05
   1.77999997       2.54513161E-05
   1.78250003       2.53255894E-05
   1.78499997       2.52034170E-05
   1.78750002       2.50840985E-05
   1.78999996       2.49675104E-05
   1.79250002       2.48539109E-05
   1.79499996       2.47436710E-05
   1.79750001       2.46368163E-05
   1.79999995       2.45329666E-05
   1.80250001       2.44312014E-05
   1.80499995       2.43305749E-05
   1.80750000       2.42306960E-05
   1.80999994       2.41319576E-05
   1.81250000       2.40354111E-05
   1.81500006       2.39422116E-05
   1.81750000       2.38531029E-05
   1.82000005       2.37679178E-05
   1.82249999       2.36858687E-05
   1.82500005       2.36060732E-05
   1.82749999       2.35280822E-05
   1.83000004       2.34524759E-05
   1.83249998       2.33804876E-05
   1.83500004       2.33133705E-05
   1.83749998       2.32517341E-05
   1.84000003       2.31951653E-05
   1.84249997       2.31424256E-05
   1.84500003       2.30921523E-05
   1.84749997       2.30435780E-05
   1.85000002       2.29967973E-05
   1.85249996       2.29524958E-05
   1.85500002       2.29113684E-05
   1.85749996       2.28734207E-05
   1.86000001       2.28378049E-05
   1.86249995       2.28031640E-05
   1.86500001       2.27683067E-05
   1.86749995       2.27328765E-05
   1.87000000       2.26975226E-05
   1.87249994       2.26634875E-05
   1.87500000       2.26319135E-05
   1.87750006       2.26031370E-05
   1.88000000       2.25765070E-05
   1.88250005       2.25508938E-05
   1.88499999       2.25255153E-05
   1.88750005       2.25006570E-05
   1.88999999       2.24779760E-05
   1.89250004       2.24598334E-05
   1.89499998       2.24484356E-05
   1.89750004       2.24448795E-05
   1.89999998       2.24486703E-05
   1.90250003       2.24583564E-05
   1.90499997       2.24723390E-05
   1.90750003       2.24899832E-05
   1.90999997       2.25120748E-05
   1.91250002       2.25404710E-05
   1.91499996       2.25770491E-05
   1.91750002       2.26227603E-05
   1.91999996       2.26770117E-05
   1.92250001       2.27379296E-05
   1.92499995       2.28033332E-05
   1.92750001       2.28716872E-05
   1.92999995       2.29427333E-05
   1.93250000       2.30172518E-05
   1.93499994       2.30963469E-05
   1.93750000       2.31805043E-05
   1.94000006       2.32690163E-05
   1.94250000       2.33604042E-05
   1.94500005       2.34531763E-05
   1.94749999       2.35467123E-05
   1.95000005       2.36415763E-05
   1.95249999       2.37392214E-05
   1.95500004       2.38412231E-05
   1.95749998       2.39480596E-05
   1.96000004       2.40590434E-05
   1.96249998       2.41728685E-05
   1.96500003       2.42883561E-05
   1.96749997       2.44056173E-05
   1.97000003       2.45257561E-05
   1.97249997       2.46508826E-05
   1.97500002       2.47827720E-05
   1.97749996       2.49218538E-05
   1.98000002       2.50671001E-05