   0.00000000       0.00000000    
   2.49999994E-03   0.00000000    
   4.99999989E-03   0.00000000    
   7.49999983E-03   0.00000000    
   9.99999978E-03   0.00000000    
   1.25000002E-02   0.00000000    
   1.49999997E-02   0.00000000    
   1.75000001E-02   0.00000000    
   1.99999996E-02   0.00000000    
   2.25000009E-02   0.00000000    
   2.50000004E-02   0.00000000    
   2.74999999E-02   0.00000000    
   2.99999993E-02   0.00000000    
   3.24999988E-02   0.00000000    
   3.50000001E-02   0.00000000    
   3.75000015E-02   0.00000000    
   3.99999991E-02  -4.38606419E-43
   4.25000004E-02   2.31354376E-42
   4.50000018E-02   2.20143989E-42
   4.74999994E-02  -1.07276404E-40
   5.00000007E-02  -2.17764584E-40
   5.24999984E-02   1.09395307E-39
   5.49999997E-02   3.58525155E-39
   5.75000010E-02  -4.17340174E-39
   5.99999987E-02  -2.74992941E-38
   6.25000000E-02  -5.72531737E-39
   6.49999976E-02   1.07947390E-37
   6.75000027E-02   3.58002583E-38
   7.00000003E-02  -4.62103123E-37
   7.24999979E-02   7.96234491E-38
   7.50000030E-02   3.70130950E-36
   7.75000006E-02   4.05334078E-36
   7.99999982E-02  -1.59590219E-35
   8.25000033E-02  -4.79701767E-35
   8.50000009E-02  -9.46770084E-36
   8.74999985E-02   1.80264745E-34
   9.00000036E-02   3.45232933E-34
   9.25000012E-02  -2.38899726E-35
   9.49999988E-02  -1.12867184E-33
   9.74999964E-02  -1.84572119E-33
  0.100000001      -3.32688578E-35
  0.102499999       4.70099991E-33
  0.104999997       8.09221699E-33
  0.107500002       3.04841997E-33
  0.109999999      -1.25136678E-32
  0.112499997      -2.86025341E-32
  0.115000002      -2.62287496E-32
  0.117500000       8.58153782E-33
  0.119999997       6.97264399E-32
  0.122500002       1.23981517E-31
  0.125000000       1.12579903E-31
  0.127499998      -3.34106439E-32
  0.129999995      -3.39162869E-31
  0.132499993      -6.77676678E-31
  0.135000005      -6.77290834E-31
  0.137500003       1.62078772E-31
  0.140000001       1.97020038E-30
  0.142499998       3.79231141E-30
  0.144999996       3.38292792E-30
  0.147499993      -1.55989003E-30
  0.150000006      -1.06196544E-29
  0.152500004      -1.81027620E-29
  0.155000001      -1.39617899E-29
  0.157499999       9.51024207E-30
  0.159999996       4.72840146E-29
  0.162499994       7.50853039E-29
  0.165000007       5.62368835E-29
  0.167500004      -3.43639768E-29
  0.170000002      -1.77717400E-28
  0.172499999      -2.90928401E-28
  0.174999997      -2.45767198E-28
  0.177499995       5.98803097E-29
  0.180000007       5.92388943E-28
  0.182500005       1.09186342E-27
  0.185000002       1.09414959E-27
  0.187500000       1.49913713E-28
  0.189999998      -1.77036353E-27
  0.192499995      -3.87756296E-27
  0.194999993      -4.53514093E-27
  0.197500005      -1.94804058E-27
  0.200000003       4.43720315E-27
  0.202500001       1.24632651E-26
  0.204999998       1.69183408E-26
  0.207499996       1.14381534E-26
  0.209999993      -7.28146195E-27
  0.212500006      -3.46905188E-26
  0.215000004      -5.63096186E-26
  0.217500001      -5.17148921E-26
  0.219999999      -5.55482069E-27
  0.222499996       7.78720345E-26
  0.224999994       1.64569007E-25
  0.227500007       1.95210644E-25
  0.230000004       1.09978217E-25
  0.232500002      -1.10326561E-25
  0.234999999      -4.04741530E-25
  0.237499997      -6.22028805E-25
  0.239999995      -5.65150651E-25
  0.242500007      -9.41693400E-26
  0.245000005       7.45399205E-25
  0.247500002       1.63830662E-24
  0.250000000       2.04056149E-24
  0.252499998       1.39193580E-24
  0.254999995      -5.37940669E-25
  0.257499993      -3.31325958E-24
  0.259999990      -5.72008407E-24
  0.262499988      -6.06920038E-24
  0.264999986      -2.95243796E-24
  0.267500013       3.75938685E-24
  0.270000011       1.21386319E-23
  0.272500008       1.82099878E-23
  0.275000006       1.71467595E-23
  0.277500004       5.58216396E-24
  0.280000001      -1.56962652E-23
  0.282499999      -3.99765708E-23
  0.284999996      -5.52267194E-23
  0.287499994      -4.79541855E-23
  0.289999992      -9.88388677E-24
  0.292499989       5.47176264E-23
  0.294999987       1.24695319E-22
  0.297500014       1.64528264E-22
  0.300000012       1.35962424E-22
  0.302500010       1.72959741E-23
  0.305000007      -1.76005975E-22
  0.307500005      -3.79747997E-22
  0.310000002      -4.89504676E-22
  0.312500000      -3.95219818E-22
  0.314999998      -3.70723384E-23
  0.317499995       5.36157279E-22
  0.319999993       1.13598909E-21
  0.322499990       1.46077592E-21
  0.324999988       1.19493782E-21
  0.327499986       1.65280370E-22
  0.330000013      -1.49835872E-21
  0.332500011      -3.27810041E-21
  0.335000008      -4.33745685E-21
  0.337500006      -3.78266382E-21
  0.340000004      -1.07521171E-21
  0.342500001       3.53735024E-21
  0.344999999       8.77244184E-21
  0.347499996       1.24450777E-20
  0.349999994       1.20860749E-20
  0.352499992       5.96513342E-21
  0.354999989      -5.78505887E-21
  0.357499987      -2.04200213E-20
  0.360000014      -3.27070478E-20
  0.362500012      -3.62180126E-20
  0.365000010      -2.56744729E-20
  0.367500007       2.90366093E-22
  0.370000005       3.70110236E-20
  0.372500002       7.34725214E-20
  0.375000000       9.45831981E-20
  0.377499998       8.59766876E-20
  0.379999995       4.01814259E-20
  0.382499993      -3.79631214E-20
  0.384999990      -1.29126176E-19
  0.387499988      -2.02459615E-19
  0.389999986      -2.24117427E-19
  0.392500013      -1.69579935E-19
  0.395000011      -3.60009876E-20
  0.397500008       1.50298640E-19
  0.400000006       3.35523197E-19
  0.402500004       4.51195953E-19
  0.405000001       4.36157241E-19
  0.407499999       2.61772549E-19
  0.409999996      -4.84803836E-20
  0.412499994      -4.14054561E-19
  0.414999992      -7.12808779E-19
  0.417499989      -8.16513188E-19
  0.419999987      -6.38342723E-19
  0.422500014      -1.77684276E-19
  0.425000012       4.55464877E-19
  0.427500010       1.05167154E-18
  0.430000007       1.35522170E-18
  0.432500005       1.15194320E-18
  0.435000002       3.68988857E-19
  0.437500000      -8.48284627E-19
  0.439999998      -2.12041091E-18
  0.442499995      -2.90661320E-18
  0.444999993      -2.66893133E-18
  0.447499990      -1.09462785E-18
  0.449999988       1.69186022E-18
  0.452499986       5.01692155E-18
  0.455000013       7.72649062E-18
  0.457500011       8.47093993E-18
  0.460000008       6.16620257E-18
  0.462500006       5.06883096E-19
  0.465000004      -7.65272099E-18
  0.467500001      -1.62376630E-17
  0.469999999      -2.23292725E-17
  0.472499996      -2.29622112E-17
  0.474999994      -1.61605879E-17
  0.477499992      -1.89805049E-18
  0.479999989       1.73791424E-17
  0.482499987       3.69497047E-17
  0.485000014       5.08230985E-17
  0.487500012       5.33779881E-17
  0.490000010       4.12092812E-17
  0.492500007       1.46196332E-17
  0.495000005      -2.17818443E-17
  0.497500002      -5.97003181E-17
  0.500000000      -8.89827103E-17
  0.502499998      -1.00264448E-16
  0.504999995      -8.77560346E-17
  0.507499993      -5.13719659E-17
  0.509999990       2.49049193E-18
  0.512499988       6.19085131E-17
  0.514999986       1.12073047E-16
  0.517499983       1.39086105E-16
  0.519999981       1.34005509E-16
  0.522499979       9.60243731E-17
  0.524999976       3.37334544E-17
  0.527499974      -3.62314406E-17
  0.529999971      -9.32285887E-17
  0.532500029      -1.18610010E-16
  0.535000026      -1.02191177E-16
  0.537500024      -4.71932778E-17
  0.540000021       2.83039897E-17
  0.542500019       9.46751489E-17
  0.545000017       1.18788165E-16
  0.547500014       7.51017660E-17
  0.550000012      -4.32827252E-17
  0.552500010      -2.17414498E-16
  0.555000007      -4.02404257E-16
  0.557500005      -5.35970632E-16
  0.560000002      -5.54461520E-16
  0.562500000      -4.12427171E-16
  0.564999998      -9.99732143E-17
  0.567499995       3.48006160E-16
  0.569999993       8.54648144E-16
  0.572499990       1.31634945E-15
  0.574999988       1.62661423E-15
  0.577499986       1.70154064E-15
  0.579999983       1.49906684E-15
  0.582499981       1.02600889E-15
  0.584999979       3.31242266E-16
  0.587499976      -5.11524626E-16
  0.589999974      -1.42388928E-15
  0.592499971      -2.33718222E-15
  0.595000029      -3.19502246E-15
  0.597500026      -3.94291042E-15
  0.600000024      -4.50994646E-15
  0.602500021      -4.79201944E-15
  0.605000019      -4.64669781E-15
  0.607500017      -3.90671839E-15
  0.610000014      -2.41288198E-15
  0.612500012      -6.04348413E-17
  0.615000010       3.15162071E-15
  0.617500007       7.07998122E-15
  0.620000005       1.14144009E-14
  0.622500002       1.56783003E-14
  0.625000000       1.92537416E-14
  0.627499998       2.14303181E-14
  0.629999995       2.14768016E-14
  0.632499993       1.87339768E-14
  0.634999990       1.27244779E-14
  0.637499988       3.26900529E-15
  0.639999986      -9.40932733E-15
  0.642499983      -2.46162428E-14
  0.644999981      -4.11770464E-14
  0.647499979      -5.75006283E-14
  0.649999976      -7.17146408E-14
  0.652499974      -8.18503387E-14
  0.654999971      -8.60431179E-14
  0.657500029      -8.27135127E-14
  0.660000026      -7.07056958E-14
  0.662500024      -4.93798897E-14
  0.665000021      -1.86729718E-14
  0.667500019       2.08478356E-14
  0.670000017       6.79240532E-14
  0.672500014       1.20541801E-13
  0.675000012       1.75898711E-13
  0.677500010       2.30454165E-13
  0.680000007       2.80114934E-13
  0.682500005       3.20587740E-13
  0.685000002       3.47895757E-13
  0.687500000       3.58993895E-13
  0.689999998       3.52422572E-13
  0.692499995       3.28900400E-13
  0.694999993       2.91800113E-13
  0.697499990       2.47488418E-13
  0.699999988       2.05562929E-13
  0.702499986       1.79050080E-13
  0.704999983       1.84669147E-13
  0.707499981       2.43240974E-13
  0.709999979       3.80320043E-13
  0.712499976       6.27148507E-13
  0.714999974       1.02178043E-12
  0.717499971       1.61056606E-12
  0.720000029       2.44982984E-12
  0.722500026       3.60755284E-12
  0.725000024       5.16514435E-12
  0.727500021       7.21863281E-12
  0.730000019       9.87885641E-12
  0.732500017       1.32701636E-11
  0.735000014       1.75265219E-11
  0.737500012       2.27851349E-11
  0.740000010       2.91757729E-11
  0.742500007       3.68058604E-11
  0.745000005       4.57392249E-11
  0.747500002       5.59695797E-11
  0.750000000       6.73845008E-11
  0.752499998       7.97222982E-11
  0.754999995       9.25200888E-11
  0.757499993       1.05048602E-10
  0.759999990       1.16233537E-10
  0.762499988       1.24566510E-10
  0.764999986       1.27999597E-10
  0.767499983       1.23807145E-10
  0.769999981       1.08418108E-10
  0.772499979       7.72308675E-11
  0.774999976       2.43574258E-11
  0.777499974      -5.76941377E-11
  0.779999971      -1.78413312E-10
  0.782500029      -3.49807350E-10
  0.785000026      -5.87082938E-10
  0.787500024      -9.09450737E-10
  0.790000021      -1.34127265E-09
  0.792500019      -1.91346583E-09
  0.795000017      -2.66517408E-09
  0.797500014      -3.64601260E-09
  0.800000012      -4.91875474E-09
  0.802500010      -6.56263133E-09
  0.805000007      -8.67745875E-09
  0.807500005      -1.13883321E-08
  0.810000002      -1.48514037E-08
  0.812500000      -1.92604741E-08
  0.814999998      -2.48549501E-08
  0.817499995      -3.19283906E-08
  0.819999993      -4.08386036E-08
  0.822499990      -5.20185495E-08
  0.824999988      -6.59888144E-08
  0.827499986      -8.33712051E-08
  0.829999983      -1.04902860E-07
  0.832499981      -1.31451387E-07
  0.834999979      -1.64030297E-07
  0.837499976      -2.03814864E-07
  0.839999974      -2.52158657E-07
  0.842499971      -3.10609579E-07
  0.845000029      -3.80924376E-07
  0.847500026      -4.65080490E-07
  0.850000024      -5.65291316E-07
  0.852500021      -6.84010843E-07
  0.855000019      -8.23946777E-07
  0.857500017      -9.88061174E-07
  0.860000014      -1.17956859E-06
  0.862500012      -1.40193617E-06
  0.865000010      -1.65886831E-06
  0.867500007      -1.95429698E-06
  0.870000005      -2.29235548E-06
  0.872500002      -2.67736186E-06
  0.875000000      -3.11379381E-06
  0.877499998      -3.60623676E-06
  0.879999995      -4.15935529E-06
  0.882499993      -4.77784261E-06
  0.884999990      -5.46636784E-06
  0.887499988      -6.22953621E-06
  0.889999986      -7.07183926E-06
  0.892499983      -7.99757800E-06
  0.894999981      -9.01081785E-06
  0.897499979      -1.01153319E-05
  0.899999976      -1.13145506E-05
  0.902499974      -1.26115092E-05
  0.904999971      -1.40087650E-05
  0.907500029      -1.55084199E-05
  0.910000026      -1.71120373E-05
  0.912500024      -1.88206159E-05
  0.915000021      -2.06346485E-05
  0.917500019      -2.25538661E-05
  0.920000017      -2.45775136E-05
  0.922500014      -2.67041487E-05
  0.925000012      -2.89317359E-05
  0.927500010      -3.12576449E-05
  0.930000007      -3.36786725E-05
  0.932500005      -3.61910570E-05
  0.935000002      -3.87903783E-05
  0.937500000      -4.14716778E-05
  0.939999998      -4.42294877E-05
  0.942499995      -4.70578052E-05
  0.944999993      -4.99502457E-05
  0.947499990      -5.28999153E-05
  0.949999988      -5.58994143E-05
  0.952499986      -5.89408774E-05
  0.954999983      -6.20159190E-05
  0.957499981      -6.51156588E-05
  0.959999979      -6.82306563E-05
  0.962499976      -7.13510672E-05
  0.964999974      -7.44663921E-05
  0.967499971      -7.75656663E-05
  0.970000029      -8.06370954E-05
  0.972500026      -8.36686668E-05
  0.975000024      -8.66472765E-05
  0.977500021      -8.95591584E-05
  0.980000019      -9.23901680E-05
  0.982500017      -9.51252878E-05
  0.985000014      -9.77490345E-05
  0.987500012      -1.00245285E-04
  0.990000010      -1.02597500E-04
  0.992500007      -1.04788487E-04
  0.995000005      -1.06801213E-04
  0.997500002      -1.08618035E-04
   1.00000000      -1.10221612E-04
   1.00250006      -1.11594803E-04
   1.00500000      -1.12720954E-04
   1.00750005      -1.13583665E-04
   1.00999999      -1.14167924E-04
   1.01250005      -1.14459144E-04
   1.01499999      -1.14444556E-04
   1.01750004      -1.14112838E-04
   1.01999998      -1.13454211E-04
   1.02250004      -1.12461399E-04
   1.02499998      -1.11129149E-04
   1.02750003      -1.09454704E-04
   1.02999997      -1.07436608E-04
   1.03250003      -1.05076877E-04
   1.03499997      -1.02380247E-04
   1.03750002      -9.93538270E-05
   1.03999996      -9.60081161E-05
   1.04250002      -9.23556654E-05
   1.04499996      -8.84118635E-05
   1.04750001      -8.41936780E-05
   1.04999995      -7.97192843E-05
   1.05250001      -7.50102117E-05
   1.05499995      -7.00889141E-05
   1.05750000      -6.49787544E-05
   1.05999994      -5.97060243E-05
   1.06250000      -5.42967391E-05
   1.06500006      -4.87772159E-05
   1.06750000      -4.31737608E-05
   1.07000005      -3.75122436E-05
   1.07249999      -3.18182720E-05
   1.07500005      -2.61157493E-05
   1.07749999      -2.04288244E-05
   1.08000004      -1.47805686E-05
   1.08249998      -9.19201830E-06
   1.08500004      -3.68254655E-06
   1.08749998       1.73075534E-06
   1.09000003       7.03228761E-06
   1.09249997       1.22068441E-05
   1.09500003       1.72419641E-05
   1.09749997       2.21267182E-05
   1.10000002       2.68532913E-05
   1.10249996       3.14145327E-05
   1.10500002       3.58050165E-05
   1.10749996       4.00227182E-05
   1.11000001       4.40651893E-05
   1.11249995       4.79320624E-05
   1.11500001       5.16232649E-05
   1.11749995       5.51404410E-05
   1.12000000       5.84856571E-05
   1.12249994       6.16618490E-05
   1.12500000       6.46726257E-05
   1.12750006       6.75244373E-05
   1.13000000       7.02231337E-05
   1.13250005       7.27741499E-05
   1.13499999       7.51836342E-05
   1.13750005       7.74579603E-05
   1.13999999       7.96027307E-05
   1.14250004       8.16251850E-05
   1.14499998       8.35311366E-05
   1.14750004       8.53286620E-05
   1.14999998       8.70248550E-05
   1.15250003       8.86257985E-05
   1.15499997       9.01391249E-05
   1.15750003       9.15699638E-05
   1.15999997       9.29262169E-05
   1.16250002       9.42137995E-05
   1.16499996       9.54397401E-05
   1.16750002       9.66098596E-05
   1.16999996       9.77284071E-05
   1.17250001       9.88006504E-05
   1.17499995       9.98312389E-05
   1.17750001       1.00824211E-04
   1.17999995       1.01785095E-04
   1.18250000       1.02718921E-04
   1.18499994       1.03628547E-04
   1.18750000       1.04517225E-04
   1.19000006       1.05388594E-04
   1.19250000       1.06244152E-04
   1.19500005       1.07085310E-04
   1.19749999       1.07913540E-04
   1.20000005       1.08730725E-04
   1.20249999       1.09537868E-04
   1.20500004       1.10336230E-04
   1.20749998       1.11127694E-04
   1.21000004       1.11912130E-04
   1.21249998       1.12688460E-04
   1.21500003       1.13455833E-04
   1.21749997       1.14213472E-04
   1.22000003       1.14961855E-04
   1.22249997       1.15700073E-04
   1.22500002       1.16428200E-04
   1.22749996       1.17145988E-04
   1.23000002       1.17851938E-04
   1.23249996       1.18545242E-04
   1.23500001       1.19223936E-04
   1.23749995       1.19887569E-04
   1.24000001       1.20534431E-04
   1.24249995       1.21163808E-04
   1.24500000       1.21775360E-04
   1.24749994       1.22367986E-04
   1.25000000       1.22941783E-04
   1.25250006       1.23494960E-04
   1.25500000       1.24027050E-04
   1.25750005       1.24536353E-04
   1.25999999       1.25022198E-04
   1.26250005       1.25484716E-04
   1.26499999       1.25924344E-04
   1.26750004       1.26341460E-04
   1.26999998       1.26735962E-04
   1.27250004       1.27108287E-04
   1.27499998       1.27456689E-04
   1.27750003       1.27779669E-04
   1.27999997       1.28077707E-04
   1.28250003       1.28350948E-04
   1.28499997       1.28600659E-04
   1.28750002       1.28828833E-04
   1.28999996       1.29036445E-04
   1.29250002       1.29223015E-04
   1.29499996       1.29387554E-04
   1.29750001       1.29529624E-04
   1.29999995       1.29649139E-04
   1.30250001       1.29745720E-04
   1.30499995       1.29822452E-04
   1.30750000       1.29879918E-04
   1.30999994       1.29920096E-04
   1.31250000       1.29942826E-04
   1.31500006       1.29947366E-04
   1.31750000       1.29932640E-04
   1.32000005       1.29899185E-04
   1.32249999       1.29847860E-04
   1.32500005       1.29778680E-04
   1.32749999       1.29693901E-04
   1.33000004       1.29594249E-04
   1.33249998       1.29479828E-04
   1.33500004       1.29349821E-04
   1.33749998       1.29203880E-04
   1.34000003       1.29042281E-04
   1.34249997       1.28866508E-04
   1.34500003       1.28676547E-04
   1.34749997       1.28474305E-04
   1.35000002       1.28259315E-04
   1.35249996       1.28030413E-04
   1.35500002       1.27787091E-04
   1.35749996       1.27529245E-04
   1.36000001       1.27257998E-04
   1.36249995       1.26973740E-04
   1.36500001       1.26677653E-04
   1.36749995       1.26370738E-04
   1.37000000       1.26052502E-04
   1.37249994       1.25722174E-04
   1.37500000       1.25379491E-04
   1.37750006       1.25023347E-04
   1.38000000       1.24654893E-04
   1.38250005       1.24273545E-04
   1.38499999       1.23881255E-04
   1.38750005       1.23480146E-04
   1.38999999       1.23069010E-04
   1.39250004       1.22648577E-04
   1.39499998       1.22217985E-04
   1.39750004       1.21777688E-04
   1.39999998       1.21327605E-04
   1.40250003       1.20867786E-04
   1.40499997       1.20399389E-04
   1.40750003       1.19923017E-04
   1.40999997       1.19439799E-04
   1.41250002       1.18949960E-04
   1.41499996       1.18453914E-04
   1.41750002       1.17951524E-04
   1.41999996       1.17442221E-04
   1.42250001       1.16926887E-04
   1.42499995       1.16405645E-04
   1.42750001       1.15879440E-04
   1.42999995       1.15348557E-04
   1.43250000       1.14813527E-04
   1.43499994       1.14273789E-04
   1.43750000       1.13728696E-04
   1.44000006       1.13178881E-04
   1.44250000       1.12624708E-04
   1.44500005       1.12067042E-04
   1.44749999       1.11506080E-04
   1.45000005       1.10942019E-04
   1.45249999       1.10374654E-04
   1.45500004       1.09804765E-04
   1.45749998       1.09231463E-04
   1.46000004       1.08655368E-04
   1.46249998       1.08076987E-04
   1.46500003       1.07496693E-04
   1.46749997       1.06914529E-04
   1.47000003       1.06330699E-04
   1.47249997       1.05744788E-04
   1.47500002       1.05156745E-04
   1.47749996       1.04567065E-04
   1.48000002       1.03976417E-04
   1.48249996       1.03385661E-04
   1.48500001       1.02795435E-04
   1.48749995       1.02205588E-04
   1.49000001       1.01615762E-04
   1.49249995       1.01026097E-04
   1.49500000       1.00436351E-04
   1.49749994       9.98465475E-05
   1.50000000       9.92571295E-05
   1.50250006       9.86685263E-05
   1.50500000       9.80809855E-05
   1.50750005       9.74951254E-05
   1.50999999       9.69105895E-05
   1.51250005       9.63274506E-05
   1.51499999       9.57452576E-05
   1.51750004       9.51641414E-05
   1.51999998       9.45836655E-05
   1.52250004       9.40043756E-05
   1.52499998       9.34272248E-05
   1.52750003       9.28520894E-05
   1.52999997       9.22793988E-05
   1.53250003       9.17087600E-05
   1.53499997       9.11395400E-05
   1.53750002       9.05713168E-05
   1.53999996       9.00045052E-05
   1.54250002       8.94396362E-05
   1.54499996       8.88769791E-05
   1.54750001       8.83172324E-05
   1.54999995       8.77606362E-05
   1.55250001       8.72069577E-05
   1.55499995       8.66556293E-05
   1.55750000       8.61062508E-05
   1.55999994       8.55582257E-05
   1.56250000       8.50120778E-05
   1.56500006       8.44680326E-05
   1.56750000       8.39272398E-05
   1.57000005       8.33898885E-05
   1.57249999       8.28560151E-05
   1.57500005       8.23250884E-05
   1.57749999       8.17965192E-05
   1.58000004       8.12703802E-05
   1.58249998       8.07469769E-05
   1.58500004       8.02264476E-05
   1.58749998       7.97089160E-05
   1.59000003       7.91938073E-05
   1.59249997       7.86811361E-05
   1.59500003       7.81704366E-05
   1.59749997       7.76615052E-05
   1.60000002       7.71548002E-05
   1.60249996       7.66509329E-05
   1.60500002       7.61508563E-05
   1.60749996       7.56545123E-05
   1.61000001       7.51621337E-05
   1.61249995       7.46729565E-05
   1.61500001       7.41862459E-05
   1.61749995       7.37011651E-05
   1.62000000       7.32179542E-05
   1.62249994       7.27371298E-05
   1.62500000       7.22597906E-05
   1.62750006       7.17866715E-05
   1.63000000       7.13180270E-05
   1.63250005       7.08539374E-05
   1.63499999       7.03933692E-05
   1.63750005       6.99361190E-05
   1.63999999       6.94810515E-05
   1.64250004       6.90285742E-05
   1.64499998       6.85791310E-05
   1.64750004       6.81333331E-05
   1.64999998       6.76919517E-05
   1.65250003       6.72550013E-05
   1.65499997       6.68219509E-05
   1.65750003       6.63917963E-05
   1.65999997       6.59641009E-05
   1.66250002       6.55393524E-05
   1.66499996       6.51181253E-05
   1.66750002       6.47014167E-05
   1.66999996       6.42895320E-05
   1.67250001       6.38817364E-05
   1.67499995       6.34769458E-05
   1.67750001       6.30744180E-05
   1.67999995       6.26739638E-05
   1.68250000       6.22761145E-05
   1.68499994       6.18820923E-05
   1.68750000       6.14935416E-05
   1.69000006       6.11110881E-05
   1.69250000       6.07344045E-05
   1.69500005       6.03617518E-05
   1.69749999       5.99917985E-05
   1.70000005       5.96233258E-05
   1.70249999       5.92565557E-05
   1.70500004       5.88926887E-05
   1.70749998       5.85330636E-05
   1.71000004       5.81790482E-05
   1.71249998       5.78302097E-05
   1.71500003       5.74861697E-05
   1.71749997       5.71462551E-05
   1.72000003       5.68091928E-05
   1.72249997       5.64744514E-05
   1.72500002       5.61426787E-05
   1.72749996       5.58146567E-05
   1.73000002       5.54908584E-05
   1.73249996       5.51711564E-05
   1.73500001       5.48555872E-05
   1.73749995       5.45432849E-05
   1.74000001       5.42341695E-05
   1.74249995       5.39278917E-05
   1.74500000       5.36248517E-05
   1.74749994       5.33258863E-05
   1.75000000       5.30315447E-05
   1.75250006       5.27420343E-05
   1.75500000       5.24573588E-05
   1.75750005       5.21764377E-05
   1.75999999       5.18982815E-05
   1.76250005       5.16225664E-05
   1.76499999       5.13495033E-05
   1.76750004       5.10799910E-05
   1.76999998       5.08152989E-05
   1.77250004       5.05560674E-05
   1.77499998       5.03019983E-05
   1.77750003       5.00517308E-05
   1.77999997       4.98039808E-05
   1.78250003       4.95580789E-05
   1.78499997       4.93137486E-05
   1.78750002       4.90722196E-05
   1.78999996       4.88342812E-05
   1.79250002       4.86009085E-05
   1.79499996       4.83721233E-05
   1.79750001       4.81473398E-05
   1.79999995       4.79259616E-05
   1.80250001       4.77074827E-05
   1.80499995       4.74915978E-05
   1.80750000       4.72787578E-05
   1.80999994       4.70693740E-05
   1.81250000       4.68636281E-05
   1.81500006       4.66615056E-05
   1.81750000       4.64628902E-05
   1.82000005       4.62673379E-05
   1.82249999       4.60746123E-05
   1.82500005       4.58849026E-05
   1.82749999       4.56985981E-05
   1.83000004       4.55159534E-05
   1.83249998       4.53372559E-05
   1.83500004       4.51622691E-05
   1.83749998       4.49906474E-05
   1.84000003       4.48215833E-05
   1.84249997       4.46544836E-05
   1.84500003       4.44895959E-05
   1.84749997       4.43275094E-05
   1.85000002       4.41691336E-05
   1.85249996       4.40151707E-05
   1.85500002       4.38658208E-05
   1.85749996       4.37203234E-05
   1.86000001       4.35775473E-05
   1.86249995       4.34365938E-05
   1.86500001       4.32970228E-05
   1.86749995       4.31590925E-05
   1.87000000       4.30237415E-05
   1.87249994       4.28917774E-05
   1.87500000       4.27640261E-05
   1.87750006       4.26407387E-05
   1.88000000       4.25214203E-05
   1.88250005       4.24050777E-05
   1.88499999       4.22908415E-05
   1.88750005       4.21778568E-05
   1.88999999       4.20659235E-05
   1.89250004       4.19555727E-05
   1.89499998       4.18477030E-05
   1.89750004       4.17433002E-05
   1.89999998       4.16430230E-05
   1.90250003       4.15466711E-05
   1.90499997       4.14535571E-05
   1.90750003       4.13624039E-05
   1.90999997       4.12723020E-05
   1.91250002       4.11828732E-05
   1.91499996       4.10945904E-05
   1.91750002       4.10082321E-05
   1.91999996       4.09246859E-05
   1.92250001       4.08443666E-05
   1.92499995       4.07670814E-05
   1.92750001       4.06921790E-05
   1.92999995       4.06188992E-05
   1.93250000       4.05469036E-05
   1.93499994       4.04763086E-05
   1.93750000       4.04075436E-05
   1.94000006       4.03411868E-05
   1.94250000       4.02774167E-05
   1.94500005       4.02161349E-05
   1.94749999       4.01569232E-05
   1.95000005       4.00993704E-05
   1.95249999       4.00432691E-05
   1.95500004       3.99888086E-05
   1.95749998       3.99363380E-05
   1.96000004       3.98862248E-05
   1.96249998       3.98385419E-05
   1.96500003       3.97929653E-05
   1.96749997       3.97490330E-05
   1.97000003       3.97062868E-05
   1.97249997       3.96645773E-05
   1.97500002       3.96242103E-05
   1.97749996       3.95856805E-05
   1.98000002       3.95494862E-05
   1.98249996       3.95157040E-05
   1.98500001       3.94839735E-05
   1.98749995       3.94536182E-05
   1.99000001       3.94240269E-05
   1.99249995       3.93950068E-05
   1.99500000       3.93669252E-05
   1.99749994       3.93405389E-05
   2.00000000       3.93165647E-05
   2.00250006       3.92952170E-05
   2.00500011       3.92759648E-05
   2.00749993       3.92578077E-05
   2.00999999       3.92397633E-05
   2.01250005       3.92214388E-05
   2.01500010       3.92033216E-05
   2.01749992       3.91866888E-05
   2.01999998       3.91728681E-05
   2.02250004       3.91625290E-05
   2.02500010       3.91551584E-05
   2.02749991       3.91493741E-05
   2.02999997       3.91435169E-05
   2.03250003       3.91365429E-05
   2.03500009       3.91287358E-05
   2.03749990       3.91215508E-05
   2.03999996       3.91169306E-05
   2.04250002       3.91160720E-05
   2.04500008       3.91188441E-05
   2.04749990       3.91238173E-05
   2.04999995       3.91288741E-05
   2.05250001       3.91325993E-05
   2.05500007       3.91347567E-05
   2.05749989       3.91365720E-05
   2.05999994       3.91397916E-05
   2.06250000       3.91459507E-05
   2.06500006       3.91551221E-05
   2.06750011       3.91661451E-05
   2.06999993       3.91773283E-05
   2.07249999       3.91873327E-05
   2.07500005       3.91958492E-05
   2.07750010       3.92038819E-05
   2.07999992       3.92130460E-05
   2.08249998       3.92247421E-05
   2.08500004       3.92392940E-05
   2.08750010       3.92558650E-05
   2.08999991       3.92728471E-05
   2.09249997       3.92887268E-05
   2.09500003       3.93029768E-05
   2.09750009       3.93161499E-05
   2.09999990       3.93295268E-05
   2.10249996       3.93444170E-05
   2.10500002       3.93613664E-05
   2.10750008       3.93798837E-05
   2.10999990       3.93989867E-05
   2.11249995       3.94175768E-05
   2.11500001       3.94352937E-05
   2.11750007       3.94525196E-05
   2.11999989       3.94701710E-05
   2.12249994       3.94891249E-05
   2.12500000       3.95093884E-05
   2.12750006       3.95305033E-05
   2.13000011       3.95515344E-05
   2.13249993       3.95719981E-05
   2.13499999       3.95921670E-05
   2.13750005       3.96131436E-05
   2.14000010       3.96362921E-05