 -0.159999996       0.00000000    
 -0.157499999       0.00000000    
 -0.155000001       0.00000000    
 -0.152500004       0.00000000    
 -0.150000006       0.00000000    
 -0.147499993       0.00000000    
 -0.144999996       0.00000000    
 -0.142499998       0.00000000    
 -0.140000001      -2.76954254E-20
 -0.137500003       3.36625881E-19
 -0.135000005      -1.80151769E-18
 -0.132499993       4.46642944E-19
 -0.129999995       1.89144525E-17
 -0.127499998      -2.45287523E-17
 -0.125000000      -1.03404948E-16
 -0.122500002       1.84172306E-16
 -0.119999997       3.86253191E-16
 -0.117500000      -8.88756520E-16
 -0.115000002      -1.06154648E-15
 -0.112499997       3.57014138E-15
 -0.109999999       2.44478887E-15
 -0.107500002      -1.29779237E-14
 -0.104999997      -6.98007495E-15
 -0.102499999       4.12724766E-14
 -0.100000001       2.86561851E-14
  -9.74999964E-02  -1.06294043E-13
  -9.49999988E-02  -1.11703974E-13
  -9.25000012E-02   2.03777885E-13
  -9.00000036E-02   3.32415898E-13
  -8.74999985E-02  -2.50948161E-13
  -8.50000009E-02  -7.27983971E-13
  -8.25000033E-02   8.26010064E-14
  -7.99999982E-02   1.17261203E-12
  -7.75000006E-02   3.84047855E-13
  -7.50000030E-02  -1.41930044E-12
  -7.24999979E-02  -9.59708441E-13
  -7.00000003E-02   1.44926573E-12
  -6.75000027E-02   1.44134498E-12
  -6.49999976E-02  -1.58973475E-12
  -6.25000000E-02  -2.20888303E-12
  -5.99999987E-02   1.69179211E-12
  -5.75000010E-02   3.78783636E-12
  -5.49999997E-02  -5.27554129E-13
  -5.24999984E-02  -5.10965402E-12
  -5.00000007E-02  -2.27363007E-12
  -4.74999994E-02   3.96035938E-12
  -4.50000018E-02   3.98904911E-12
  -4.25000004E-02  -1.24711504E-12
  -3.99999991E-02  -2.39330517E-12
  -3.75000015E-02   1.26842037E-12
  -3.50000001E-02   1.09456368E-12
  -3.24999988E-02  -3.53903387E-12
  -2.99999993E-02  -3.32062568E-12
  -2.74999999E-02   2.38066793E-12
  -2.50000004E-02   3.17344219E-12
  -2.25000009E-02  -1.37042558E-12
  -1.99999996E-02   7.46936963E-13
  -1.75000001E-02   8.86946593E-12
  -1.49999997E-02   5.89917091E-12
  -1.25000002E-02  -1.08660919E-11
  -9.99999978E-03  -1.99291261E-11
  -7.49999983E-03  -8.50943534E-12
  -4.99999989E-03   8.95789692E-12
  -2.49999994E-03   1.68327019E-11
   0.00000000       1.74320020E-11
   2.49999994E-03   1.27941217E-11
   4.99999989E-03  -4.24480806E-12
   7.49999983E-03  -2.61137587E-11
   9.99999978E-03  -2.71672494E-11
   1.25000002E-02  -3.25339712E-12
   1.49999997E-02   1.38555903E-11
   1.75000001E-02   4.36735804E-12
   1.99999996E-02  -5.50110218E-12
   2.25000009E-02   1.24891018E-11
   2.50000004E-02   3.60529280E-11
   2.74999999E-02   2.44561576E-11
   2.99999993E-02  -1.36775122E-11
   3.24999988E-02  -3.45202998E-11
   3.50000001E-02  -3.48022236E-11
   3.75000015E-02  -5.21921673E-11
   3.99999991E-02  -8.00622207E-11
   4.25000004E-02  -5.38078054E-11
   4.50000018E-02   4.45830178E-11
   4.74999994E-02   1.40640707E-10
   5.00000007E-02   1.73646195E-10
   5.24999984E-02   1.70230510E-10
   5.49999997E-02   1.45081294E-10
   5.75000010E-02   1.34451313E-11
   5.99999987E-02  -2.87456059E-10
   6.25000000E-02  -6.26975361E-10
   6.49999976E-02  -7.34517502E-10
   6.75000027E-02  -4.46178289E-10
   7.00000003E-02   1.24492194E-10
   7.24999979E-02   6.54797772E-10
   7.50000030E-02   8.52471094E-10
   7.75000006E-02   6.52625787E-10
   7.99999982E-02   1.99376099E-10
   8.25000033E-02  -3.11759424E-10
   8.50000009E-02  -7.02976677E-10
   8.74999985E-02  -7.73992870E-10
   9.00000036E-02  -3.26613958E-10
   9.25000012E-02   7.43341055E-10
   9.49999988E-02   2.41086262E-09
   9.74999964E-02   4.47487247E-09
  0.100000001       6.45415810E-09
  0.102499999       7.72947928E-09
  0.104999997       8.10635292E-09
  0.107500002       8.30029201E-09
  0.109999999       9.72172565E-09
  0.112499997       1.36862406E-08
  0.115000002       2.07661301E-08
  0.117500000       3.07740393E-08
  0.119999997       4.32801173E-08
  0.122500002       5.81911195E-08
  0.125000000       7.59759402E-08
  0.127499998       9.75405712E-08
  0.129999995       1.24093674E-07
  0.132499993       1.57223155E-07
  0.135000005       1.99108143E-07
  0.137500003       2.52666808E-07
  0.140000001       3.21422760E-07
  0.142499998       4.08992776E-07
  0.144999996       5.18523279E-07
  0.147499993       6.52669655E-07
  0.150000006       8.14327109E-07
  0.152500004       1.00768000E-06
  0.155000001       1.23880523E-06
  0.157499999       1.51547351E-06
  0.159999996       1.84628914E-06
  0.162499994       2.23985262E-06
  0.165000007       2.70464261E-06
  0.167500004       3.24948519E-06
  0.170000002       3.88420131E-06
  0.172499999       4.61953960E-06
  0.174999997       5.46663750E-06
  0.177499995       6.43618159E-06
  0.180000007       7.53813083E-06
  0.182500005       8.78202718E-06
  0.185000002       1.01774631E-05
  0.187500000       1.17342270E-05
  0.189999998       1.34613783E-05
  0.192499995       1.53663459E-05
  0.194999993       1.74538509E-05
  0.197500005       1.97253848E-05
  0.200000003       2.21795199E-05
  0.202500001       2.48120723E-05
  0.204999998       2.76165101E-05
  0.207499996       3.05829089E-05
  0.209999993       3.36973826E-05
  0.212500006       3.69415538E-05
  0.215000004       4.02929727E-05
  0.217500001       4.37255985E-05
  0.219999999       4.72112479E-05
  0.222499996       5.07188997E-05
  0.224999994       5.42138696E-05
  0.227500007       5.76564198E-05
  0.230000004       6.10033203E-05
  0.232500002       6.42077212E-05
  0.234999999       6.72211900E-05
  0.237499997       6.99982193E-05
  0.239999995       7.24933489E-05
  0.242500007       7.46624428E-05
  0.245000005       7.64601355E-05
  0.247500002       7.78413814E-05
  0.250000000       7.87589743E-05
  0.252499998       7.91683924E-05
  0.254999995       7.90300619E-05
  0.257499993       7.83029536E-05
  0.259999990       7.69503240E-05
  0.262499988       7.49314859E-05
  0.264999986       7.22034747E-05
  0.267500013       6.87277643E-05
  0.270000011       6.44615429E-05
  0.272500008       5.93613950E-05
  0.275000006       5.33822604E-05
  0.277500004       4.64713048E-05
  0.280000001       3.85622516E-05
  0.282499999       2.95782120E-05
  0.284999996       1.94326130E-05
  0.287499994       8.03118928E-06
  0.289999992      -4.73440878E-06
  0.292499989      -1.89894199E-05
  0.294999987      -3.48590838E-05
  0.297500014      -5.25046526E-05
  0.300000012      -7.20935132E-05
  0.302500010      -9.38036610E-05
  0.305000007      -1.17837451E-04
  0.307500005      -1.44398946E-04
  0.310000002      -1.73699256E-04
  0.312500000      -2.05953897E-04
  0.314999998      -2.41375805E-04
  0.317499995      -2.80187814E-04
  0.319999993      -3.22588283E-04
  0.322499990      -3.68759909E-04
  0.324999988      -4.18857031E-04
  0.327499986      -4.73008840E-04
  0.330000013      -5.31301426E-04
  0.332500011      -5.93773671E-04
  0.335000008      -6.60409918E-04
  0.337500006      -7.31143111E-04
  0.340000004      -8.05829302E-04
  0.342500001      -8.84253997E-04
  0.344999999      -9.66125808E-04
  0.347499996      -1.05109310E-03
  0.349999994      -1.13870867E-03
  0.352499992      -1.22846419E-03
  0.354999989      -1.31977524E-03
  0.357499987      -1.41197944E-03
  0.360000014      -1.50436151E-03
  0.362500012      -1.59616256E-03
  0.365000010      -1.68657256E-03
  0.367500007      -1.77477801E-03
  0.370000005      -1.85995363E-03
  0.372500002      -1.94127846E-03
  0.375000000      -2.01794528E-03
  0.377499998      -2.08917796E-03
  0.379999995      -2.15424527E-03
  0.382499993      -2.21249228E-03
  0.384999990      -2.26335018E-03
  0.387499988      -2.30634911E-03
  0.389999986      -2.34111096E-03
  0.392500013      -2.36736401E-03
  0.395000011      -2.38494785E-03
  0.397500008      -2.39381031E-03
  0.400000006      -2.39401613E-03
  0.402500004      -2.38575204E-03
  0.405000001      -2.36931094E-03
  0.407499999      -2.34508445E-03
  0.409999996      -2.31354497E-03
  0.412499994      -2.27523595E-03
  0.414999992      -2.23075412E-03
  0.417499989      -2.18074676E-03
  0.419999987      -2.12590024E-03
  0.422500014      -2.06692540E-03
  0.425000012      -2.00453703E-03
  0.427500010      -1.93944050E-03
  0.430000007      -1.87230960E-03
  0.432500005      -1.80378661E-03
  0.435000002      -1.73447153E-03
  0.437500000      -1.66491780E-03
  0.439999998      -1.59563392E-03
  0.442499995      -1.52706157E-03
  0.444999993      -1.45958317E-03
  0.447499990      -1.39352132E-03
  0.449999988      -1.32912991E-03
  0.452499986      -1.26661872E-03
  0.455000013      -1.20615307E-03
  0.457500011      -1.14784716E-03
  0.460000008      -1.09177956E-03
  0.462500006      -1.03796867E-03
  0.465000004      -9.86404251E-04
  0.467500001      -9.37039498E-04
  0.469999999      -8.89815099E-04
  0.472499996      -8.44665978E-04
  0.474999994      -8.01521586E-04
  0.477499992      -7.60296418E-04
  0.479999989      -7.20902288E-04
  0.482499987      -6.83234888E-04
  0.485000014      -6.47196197E-04
  0.487500012      -6.12684118E-04
  0.490000010      -5.79597661E-04
  0.492500007      -5.47859818E-04
  0.495000005      -5.17403125E-04
  0.497500002      -4.88146412E-04
  0.500000000      -4.60025854E-04
  0.502499998      -4.32971778E-04
  0.504999995      -4.06915409E-04
  0.507499993      -3.81816149E-04
  0.509999990      -3.57623998E-04
  0.512499988      -3.34310025E-04
  0.514999986      -3.11841664E-04
  0.517499983      -2.90178374E-04
  0.519999981      -2.69293698E-04
  0.522499979      -2.49154662E-04
  0.524999976      -2.29731158E-04
  0.527499974      -2.11006918E-04
  0.529999971      -1.92959415E-04
  0.532500029      -1.75573208E-04
  0.535000026      -1.58828596E-04
  0.537500024      -1.42715551E-04
  0.540000021      -1.27216452E-04
  0.542500019      -1.12317539E-04
  0.545000017      -9.80008772E-05
  0.547500014      -8.42416630E-05
  0.550000012      -7.10100066E-05
  0.552500010      -5.82881221E-05
  0.555000007      -4.60516494E-05
  0.557500005      -3.42919229E-05
  0.560000002      -2.29992238E-05
  0.562500000      -1.21517342E-05
  0.564999998      -1.73465969E-06
  0.567499995       8.28263728E-06
  0.569999993       1.79301969E-05
  0.572499990       2.72316320E-05
  0.574999988       3.61971070E-05
  0.577499986       4.48303508E-05
  0.579999983       5.31258411E-05
  0.582499981       6.10970237E-05
  0.584999979       6.87563152E-05
  0.587499976       7.61270130E-05
  0.589999974       8.32248043E-05
  0.592499971       9.00540472E-05
  0.595000029       9.66027728E-05
  0.597500026       1.02863363E-04
  0.600000024       1.08825050E-04
  0.602500021       1.14473791E-04
  0.605000019       1.19823635E-04
  0.607500017       1.24883984E-04
  0.610000014       1.29663982E-04
  0.612500012       1.34167785E-04
  0.615000010       1.38382413E-04
  0.617500007       1.42305624E-04
  0.620000005       1.45924234E-04
  0.622500002       1.49244253E-04
  0.625000000       1.52269262E-04
  0.627499998       1.55015994E-04
  0.629999995       1.57493851E-04
  0.632499993       1.59717063E-04
  0.634999990       1.61696385E-04
  0.637499988       1.63433579E-04
  0.639999986       1.64952435E-04
  0.642499983       1.66262660E-04
  0.644999981       1.67375911E-04
  0.647499979       1.68297251E-04
  0.649999976       1.69040621E-04
  0.652499974       1.69615858E-04
  0.654999971       1.70038053E-04
  0.657500029       1.70323940E-04
  0.660000026       1.70478626E-04
  0.662500024       1.70511499E-04
  0.665000021       1.70431405E-04
  0.667500019       1.70233077E-04
  0.670000017       1.69927021E-04
  0.672500014       1.69522900E-04
  0.675000012       1.69022853E-04
  0.677500010       1.68429382E-04
  0.680000007       1.67748032E-04
  0.682500005       1.66982558E-04
  0.685000002       1.66129495E-04
  0.687500000       1.65192745E-04
  0.689999998       1.64184559E-04
  0.692499995       1.63101940E-04
  0.694999993       1.61948949E-04
  0.697499990       1.60726006E-04
  0.699999988       1.59437303E-04
  0.702499986       1.58092254E-04
  0.704999983       1.56700888E-04
  0.707499981       1.55252565E-04
  0.709999979       1.53754634E-04
  0.712499976       1.52208275E-04
  0.714999974       1.50616790E-04
  0.717499971       1.48986524E-04
  0.720000029       1.47323532E-04
  0.722500026       1.45639904E-04
  0.725000024       1.43936399E-04
  0.727500021       1.42212884E-04
  0.730000019       1.40466029E-04
  0.732500017       1.38691990E-04
  0.735000014       1.36886811E-04
  0.737500012       1.35052527E-04
  0.740000010       1.33195252E-04
  0.742500007       1.31331311E-04
  0.745000005       1.29466047E-04
  0.747500002       1.27597013E-04
  0.750000000       1.25710081E-04
  0.752499998       1.23793390E-04
  0.754999995       1.21848148E-04
  0.757499993       1.19880198E-04
  0.759999990       1.17909556E-04
  0.762499988       1.15950053E-04
  0.764999986       1.14008108E-04
  0.767499983       1.12074908E-04
  0.769999981       1.10132882E-04
  0.772499979       1.08167849E-04
  0.774999976       1.06177104E-04
  0.777499974       1.04170671E-04
  0.779999971       1.02166552E-04
  0.782500029       1.00185003E-04
  0.785000026       9.82301281E-05
  0.787500024       9.62941631E-05
  0.790000021       9.43638806E-05
  0.792500019       9.24249907E-05
  0.795000017       9.04695262E-05
  0.797500014       8.84987312E-05
  0.800000012       8.65247275E-05
  0.802500010       8.45584218E-05
  0.805000007       8.26070609E-05
  0.807500005       8.06695971E-05
  0.810000002       7.87443860E-05
  0.812500000       7.68247846E-05
  0.814999998       7.49035389E-05
  0.817499995       7.29810999E-05
  0.819999993       7.10620880E-05
  0.822499990       6.91544410E-05
  0.824999988       6.72669703E-05
  0.827499986       6.54007963E-05
  0.829999983       6.35482211E-05
  0.832499981       6.17028199E-05
  0.834999979       5.98569677E-05
  0.837499976       5.80117157E-05
  0.839999974       5.61797679E-05
  0.842499971       5.43742681E-05
  0.845000029       5.26073272E-05
  0.847500026       5.08803641E-05
  0.850000024       4.91756655E-05
  0.852500021       4.74796398E-05
  0.855000019       4.57762908E-05
  0.857500017       4.40642725E-05
  0.860000014       4.23603269E-05
  0.862500012       4.06798390E-05
  0.865000010       3.90328314E-05
  0.867500007       3.74145202E-05
  0.870000005       3.58162324E-05
  0.872500002       3.42214589E-05
  0.875000000       3.26275804E-05
  0.877499998       3.10362375E-05
  0.879999995       2.94577567E-05
  0.882499993       2.78998195E-05
  0.884999990       2.63587717E-05
  0.887499988       2.48266915E-05
  0.889999986       2.32958791E-05
  0.892499983       2.17678335E-05
  0.894999981       2.02463652E-05
  0.897499979       1.87459664E-05
  0.899999976       1.72724704E-05
  0.902499974       1.58201947E-05
  0.904999971       1.43776342E-05
  0.907500029       1.29361197E-05
  0.910000026       1.14902705E-05
  0.912500024       1.00470370E-05
  0.915000021       8.61478929E-06
  0.917500019       7.20137086E-06
  0.920000017       5.80461665E-06
  0.922500014       4.41921975E-06
  0.925000012       3.03965226E-06
  0.927500010       1.66583823E-06
  0.930000007       2.94863753E-07
  0.932500005      -1.07252390E-06
  0.935000002      -2.43438217E-06
  0.937500000      -3.78891696E-06
  0.939999998      -5.13695113E-06
  0.942499995      -6.47855859E-06
  0.944999993      -7.81179733E-06
  0.947499990      -9.13569511E-06
  0.949999988      -1.04515220E-05
  0.952499986      -1.17627924E-05
  0.954999983      -1.30757808E-05
  0.957499981      -1.43823418E-05
  0.959999979      -1.56756778E-05
  0.962499976      -1.69516024E-05
  0.964999974      -1.82097428E-05
  0.967499971      -1.94604854E-05
  0.970000029      -2.07179510E-05
  0.972500026      -2.19852827E-05
  0.975000024      -2.32573966E-05
  0.977500021      -2.45217398E-05
  0.980000019      -2.57600768E-05
  0.982500017      -2.69637439E-05
  0.985000014      -2.81464127E-05
  0.987500012      -2.93328158E-05
  0.990000010      -3.05362591E-05
  0.992500007      -3.17661506E-05
  0.995000005      -3.30059120E-05
  0.997500002      -3.42271342E-05
   1.00000000      -3.54136901E-05
   1.00250006      -3.65669148E-05
   1.00500000      -3.77055694E-05
   1.00750005      -3.88552871E-05
   1.00999999      -4.00285389E-05
   1.01250005      -4.12206246E-05
   1.01499999      -4.24117352E-05
   1.01750004      -4.35828188E-05
   1.01999998      -4.47241655E-05
   1.02250004      -4.58442155E-05
   1.02499998      -4.69613515E-05
   1.02750003      -4.80898452E-05
   1.02999997      -4.92348518E-05
   1.03250003      -5.03842639E-05
   1.03499997      -5.15265056E-05
   1.03750002      -5.26508920E-05
   1.03999996      -5.37601773E-05
   1.04250002      -5.48614735E-05
   1.04499996      -5.59610453E-05
   1.04750001      -5.70600205E-05
   1.04999995      -5.81551867E-05
   1.05250001      -5.92481083E-05
   1.05499995      -6.03373010E-05
   1.05750000      -6.14281307E-05
   1.05999994      -6.25209068E-05
   1.06250000      -6.36106197E-05
   1.06500006      -6.46875487E-05
   1.06750000      -6.57437849E-05
   1.07000005      -6.67846252E-05
   1.07249999      -6.78253928E-05
   1.07500005      -6.88819928E-05
   1.07749999      -6.99555676E-05
   1.08000004      -7.10314562E-05
   1.08249998      -7.20888129E-05
   1.08500004      -7.31140317E-05
   1.08749998      -7.41106342E-05
   1.09000003      -7.51006592E-05
   1.09249997      -7.61130359E-05
   1.09500003      -7.71553678E-05
   1.09749997      -7.82162388E-05
   1.10000002      -7.92627543E-05
   1.10249996      -8.02702707E-05
   1.10500002      -8.12344442E-05
   1.10749996      -8.21770955E-05
   1.11000001      -8.31297584E-05
   1.11249995      -8.41170258E-05
   1.11500001      -8.51386576E-05
   1.11749995      -8.61756926E-05
   1.12000000      -8.71968805E-05
   1.12249994      -8.81818924E-05
   1.12500000      -8.91373274E-05
   1.12750006      -9.00778177E-05
   1.13000000      -9.10255476E-05
   1.13250005      -9.19882223E-05
   1.13499999      -9.29589005E-05
   1.13750005      -9.39279271E-05
   1.13999999      -9.48886664E-05
   1.14250004      -9.58450692E-05
   1.14499998      -9.68040840E-05
   1.14750004      -9.77679592E-05
   1.14999998      -9.87267485E-05
   1.15250003      -9.96695526E-05
   1.15499997      -1.00587553E-04
   1.15750003      -1.01490521E-04
   1.15999997      -1.02396778E-04
   1.16250002      -1.03321276E-04
   1.16499996      -1.04265346E-04
   1.16750002      -1.05211060E-04
   1.16999996      -1.06137202E-04
   1.17250001      -1.07033302E-04
   1.17499995      -1.07906155E-04
   1.17750001      -1.08777822E-04
   1.17999995      -1.09665256E-04
   1.18250000      -1.10571214E-04
   1.18499994      -1.11480396E-04
   1.18750000      -1.12367605E-04
   1.19000006      -1.13218710E-04
   1.19250000      -1.14042406E-04
   1.19500005      -1.14863629E-04
   1.19749999      -1.15704883E-04
   1.20000005      -1.16572737E-04
   1.20249999      -1.17453295E-04
   1.20500004      -1.18319047E-04
   1.20749998      -1.19151038E-04
   1.21000004      -1.19952383E-04
   1.21249998      -1.20742974E-04
   1.21500003      -1.21545214E-04
   1.21749997      -1.22372192E-04
   1.22000003      -1.23209626E-04
   1.22249997      -1.24039754E-04
   1.22500002      -1.24848200E-04
   1.22749996      -1.25637001E-04
   1.23000002      -1.26421452E-04
   1.23249996      -1.27216976E-04
   1.23500001      -1.28026019E-04
   1.23749995      -1.28835512E-04
   1.24000001      -1.29631255E-04
   1.24249995      -1.30404733E-04
   1.24500000      -1.31165201E-04
   1.24749994      -1.31929410E-04
   1.25000000      -1.32707515E-04
   1.25250006      -1.33497437E-04
   1.25500000      -1.34279428E-04
   1.25750005      -1.35039241E-04
   1.25999999      -1.35776165E-04
   1.26250005      -1.36503077E-04
   1.26499999      -1.37239578E-04
   1.26750004      -1.37992800E-04
   1.26999998      -1.38753428E-04
   1.27250004      -1.39498807E-04
   1.27499998      -1.40212491E-04
   1.27750003      -1.40896896E-04
   1.27999997      -1.41577650E-04
   1.28250003      -1.42281249E-04
   1.28499997      -1.43019148E-04
   1.28750002      -1.43775906E-04
   1.28999996      -1.44520760E-04
   1.29250002      -1.45229133E-04
   1.29499996      -1.45899787E-04
   1.29750001      -1.46557155E-04
   1.29999995      -1.47233557E-04
   1.30250001      -1.47949875E-04
   1.30499995      -1.48696883E-04
   1.30750000      -1.49442727E-04
   1.30999994      -1.50158958E-04
   1.31250000      -1.50834545E-04
   1.31500006      -1.51485030E-04
   1.31750000      -1.52137596E-04
   1.32000005      -1.52807726E-04
   1.32249999      -1.53494664E-04
   1.32500005      -1.54176538E-04
   1.32749999      -1.54835085E-04
   1.33000004      -1.55466201E-04
   1.33249998      -1.56079695E-04
   1.33500004      -1.56697599E-04
   1.33749998      -1.57326853E-04
   1.34000003      -1.57954753E-04
   1.34249997      -1.58563169E-04
   1.34500003      -1.59137198E-04
   1.34749997      -1.59681949E-04
   1.35000002      -1.60218769E-04
   1.35249996      -1.60770316E-04
   1.35500002      -1.61347416E-04
   1.35749996      -1.61932068E-04
   1.36000001      -1.62501616E-04
   1.36249995      -1.63036413E-04
   1.36500001      -1.63537596E-04
   1.36749995      -1.64023382E-04
   1.37000000      -1.64517842E-04
   1.37249994      -1.65030229E-04
   1.37500000      -1.65553152E-04
   1.37750006      -1.66067490E-04
   1.38000000      -1.66560741E-04
   1.38250005      -1.67033373E-04
   1.38499999      -1.67500330E-04
   1.38750005      -1.67973703E-04
   1.38999999      -1.68457103E-04
   1.39250004      -1.68938088E-04
   1.39499998      -1.69400431E-04
   1.39750004      -1.69839434E-04
   1.39999998      -1.70264699E-04
   1.40250003      -1.70694126E-04
   1.40499997      -1.71141961E-04
   1.40750003      -1.71606298E-04
   1.40999997      -1.72067492E-04
   1.41250002      -1.72507469E-04
   1.41499996      -1.72919812E-04
   1.41750002      -1.73318389E-04
   1.41999996      -1.73722656E-04
   1.42250001      -1.74149041E-04
   1.42499995      -1.74594083E-04
   1.42750001      -1.75037800E-04
   1.42999995      -1.75461653E-04
   1.43250000      -1.75859634E-04
   1.43499994      -1.76243411E-04
   1.43750000      -1.76630929E-04
   1.44000006      -1.77033406E-04
   1.44250000      -1.77445138E-04
   1.44500005      -1.77845141E-04
   1.44749999      -1.78216520E-04
   1.45000005      -1.78554197E-04
   1.45249999      -1.78875445E-04
   1.45500004      -1.79204304E-04
   1.45749998      -1.79554394E-04
   1.46000004      -1.79916882E-04
   1.46249998      -1.80265473E-04
   1.46500003      -1.80574090E-04
   1.46749997      -1.80838004E-04
   1.47000003      -1.81072945E-04
   1.47249997      -1.81309006E-04
   1.47500002      -1.81566138E-04
   1.47749996      -1.81845608E-04
   1.48000002      -1.82127318E-04
   1.48249996      -1.82387696E-04
   1.48500001      -1.82612275E-04
   1.48749995      -1.82808581E-04
   1.49000001      -1.82998308E-04
   1.49249995      -1.83200333E-04
   1.49500000      -1.83417200E-04
   1.49749994      -1.83637982E-04
   1.50000000      -1.83850207E-04
   1.50250006      -1.84047924E-04
   1.50500000      -1.84238292E-04
   1.50750005      -1.84433287E-04
   1.50999999      -1.84638542E-04
   1.51250005      -1.84847842E-04
   1.51499999      -1.85049765E-04
   1.51750004      -1.85233686E-04
   1.51999998      -1.85403173E-04
   1.52250004      -1.85570927E-04
   1.52499998      -1.85750047E-04
   1.52750003      -1.85946046E-04
   1.52999997      -1.86144855E-04
   1.53250003      -1.86330843E-04
   1.53499997      -1.86493184E-04
   1.53750002      -1.86634104E-04
   1.53999996      -1.86772464E-04
   1.54250002      -1.86922029E-04
   1.54499996      -1.87089419E-04
   1.54750001      -1.87263300E-04
   1.54999995      -1.87427388E-04
   1.55250001      -1.87569356E-04
   1.55499995      -1.87691461E-04
   1.55750000      -1.87807658E-04
   1.55999994      -1.87935439E-04
   1.56250000      -1.88078688E-04
   1.56500006      -1.88229038E-04
   1.56750000      -1.88369828E-04
   1.57000005      -1.88488397E-04
   1.57249999      -1.88588543E-04
   1.57500005      -1.88684440E-04
   1.57749999      -1.88790742E-04
   1.58000004      -1.88915190E-04
   1.58249998      -1.89046681E-04
   1.58500004      -1.89169572E-04
   1.58749998      -1.89269165E-04
   1.59000003      -1.89340673E-04
   1.59249997      -1.89396378E-04
   1.59500003      -1.89449594E-04
   1.59749997      -1.89509214E-04
   1.60000002      -1.89573708E-04
   1.60249996      -1.89636237E-04
   1.60500002      -1.89689192E-04
   1.60749996      -1.89732280E-04
   1.61000001      -1.89768733E-04
   1.61249995      -1.89804676E-04
   1.61500001      -1.89840401E-04
   1.61749995      -1.89870116E-04
   1.62000000      -1.89889033E-04
   1.62249994      -1.89895844E-04
   1.62500000      -1.89899962E-04
   1.62750006      -1.89915125E-04
   1.63000000      -1.89947401E-04
   1.63250005      -1.89994040E-04
   1.63499999      -1.90040664E-04
   1.63750005      -1.90074585E-04
   1.63999999      -1.90087958E-04
   1.64250004      -1.90088249E-04
   1.64499998      -1.90087580E-04
   1.64750004      -1.90099250E-04
   1.64999998      -1.90124279E-04
   1.65250003      -1.90157982E-04
   1.65499997      -1.90186154E-04
   1.65750003      -1.90199673E-04
   1.65999997      -1.90196763E-04
   1.66250002      -1.90184961E-04
   1.66499996      -1.90172243E-04
   1.66750002      -1.90164821E-04
   1.66999996      -1.90160004E-04
   1.67250001      -1.90154547E-04
   1.67499995      -1.90143153E-04
   1.67750001      -1.90124541E-04
   1.67999995      -1.90099294E-04
   1.68250000      -1.90067673E-04
   1.68499994      -1.90035251E-04
   1.68750000      -1.90000719E-04
   1.69000006      -1.89967061E-04
   1.69250000      -1.89935570E-04
   1.69500005      -1.89907354E-04
   1.69749999      -1.89884027E-04
   1.70000005      -1.89862287E-04
   1.70249999      -1.89840473E-04
   1.70500004      -1.89813421E-04
   1.70749998      -1.89779792E-04
   1.71000004      -1.89743252E-04
   1.71249998      -1.89706421E-04
   1.71500003      -1.89672268E-04
   1.71749997      -1.89639686E-04
   1.72000003      -1.89605606E-04
   1.72249997      -1.89563812E-04
   1.72500002      -1.89512735E-04
   1.72749996      -1.89456347E-04
   1.73000002      -1.89399565E-04
   1.73249996      -1.89348604E-04
   1.73500001      -1.89302562E-04
   1.73749995      -1.89256607E-04
   1.74000001      -1.89201877E-04
   1.74249995      -1.89134211E-04
   1.74500000      -1.89052880E-04
   1.74749994      -1.88965336E-04
   1.75000000      -1.88879741E-04
   1.75250006      -1.88804828E-04
   1.75500000      -1.88744860E-04
   1.75750005      -1.88691396E-04
   1.75999999      -1.88635837E-04
   1.76250005      -1.88569742E-04
   1.76499999      -1.88489677E-04
   1.76750004      -1.88398990E-04
   1.76999998      -1.88306411E-04
   1.77250004      -1.88220743E-04
   1.77499998      -1.88147329E-04
   1.77750003      -1.88083592E-04
   1.77999997      -1.88024176E-04
   1.78250003      -1.87965445E-04
   1.78499997      -1.87901256E-04
   1.78750002      -1.87829079E-04
   1.78999996      -1.87749421E-04
   1.79250002      -1.87663478E-04
   1.79499996      -1.87575715E-04
   1.79750001      -1.87486905E-04
   1.79999995      -1.87397280E-04
   1.80250001      -1.87309997E-04
   1.80499995      -1.87222191E-04
   1.80750000      -1.87134923E-04
   1.80999994      -1.87045924E-04
   1.81250000      -1.86953548E-04
   1.81500006      -1.86857171E-04
   1.81750000      -1.86757228E-04
   1.82000005      -1.86656907E-04
   1.82249999      -1.86559118E-04
   1.82500005      -1.86470046E-04
   1.82749999      -1.86387173E-04
   1.83000004      -1.86306774E-04
   1.83249998      -1.86221150E-04
   1.83500004      -1.86124482E-04
   1.83749998      -1.86019082E-04
   1.84000003      -1.85913610E-04
   1.84249997      -1.85819503E-04
   1.84500003      -1.85741854E-04
   1.84749997      -1.85675948E-04
   1.85000002      -1.85608937E-04
   1.85249996      -1.85527955E-04
   1.85500002      -1.85428464E-04
   1.85749996      -1.85316007E-04
   1.86000001      -1.85204961E-04
   1.86249995      -1.85107085E-04
   1.86500001      -1.85026220E-04
   1.86749995      -1.84954115E-04
   1.87000000      -1.84876466E-04
   1.87249994      -1.84781529E-04
   1.87500000      -1.84667166E-04
   1.87750006      -1.84545192E-04
   1.88000000      -1.84427787E-04
   1.88250005      -1.84325007E-04
   1.88499999      -1.84237011E-04
   1.88750005      -1.84156044E-04
   1.88999999      -1.84073375E-04
   1.89250004      -1.83981450E-04
   1.89499998      -1.83882701E-04
   1.89750004      -1.83781129E-04
   1.89999998      -1.83682409E-04
   1.90250003      -1.83589524E-04
   1.90499997      -1.83503143E-04
   1.90750003      -1.83421391E-04
   1.90999997      -1.83343538E-04
   1.91250002      -1.83265962E-04
   1.91499996      -1.83186086E-04
   1.91750002      -1.83102136E-04
   1.91999996      -1.83012467E-04
   1.92250001      -1.82919510E-04
   1.92499995      -1.82828458E-04
   1.92750001      -1.82744508E-04
   1.92999995      -1.82670934E-04
   1.93250000      -1.82600998E-04
   1.93499994      -1.82525007E-04
   1.93750000      -1.82433680E-04
   1.94000006      -1.82328135E-04
   1.94250000      -1.82215677E-04
   1.94500005      -1.82114265E-04
   1.94749999      -1.82033051E-04
   1.95000005      -1.81971511E-04
   1.95249999      -1.81916475E-04
   1.95500004      -1.81850191E-04
   1.95749998      -1.81763520E-04
   1.96000004      -1.81659285E-04
   1.96249998      -1.81553012E-04
   1.96500003      -1.81462601E-04
   1.96749997      -1.81395415E-04
   1.97000003      -1.81344949E-04
   1.97249997      -1.81297466E-04
   1.97500002      -1.81237876E-04
   1.97749996      -1.81162279E-04
   1.98000002      -1.81079784E-04