   0.00000000       0.00000000    
   2.49999994E-03   0.00000000    
   4.99999989E-03   0.00000000    
   7.49999983E-03   0.00000000    
   9.99999978E-03   0.00000000    
   1.25000002E-02   0.00000000    
   1.49999997E-02   0.00000000    
   1.75000001E-02   0.00000000    
   1.99999996E-02   0.00000000    
   2.25000009E-02   0.00000000    
   2.50000004E-02   0.00000000    
   2.74999999E-02   0.00000000    
   2.99999993E-02   1.29098309E-33
   3.24999988E-02  -1.76878604E-32
   3.50000001E-02   1.36654862E-31
   3.75000015E-02   1.90659577E-31
   3.99999991E-02  -2.33328350E-30
   4.25000004E-02  -1.28035588E-30
   4.50000018E-02   2.08365082E-29
   4.74999994E-02   1.12397452E-29
   5.00000007E-02  -1.20124752E-28
   5.24999984E-02  -6.91354021E-29
   5.49999997E-02   5.28156339E-28
   5.75000010E-02   2.12123248E-28
   5.99999987E-02  -2.34186495E-27
   6.25000000E-02  -6.19240933E-28
   6.49999976E-02   1.14251411E-26
   6.75000027E-02   8.00072283E-27
   7.00000003E-02  -4.52579424E-26
   7.24999979E-02  -7.17188085E-26
   7.50000030E-02   9.72646699E-26
   7.75000006E-02   3.43311477E-25
   7.99999982E-02   7.45421663E-26
   8.25000033E-02  -8.90675731E-25
   8.50000009E-02  -1.21668335E-24
   8.74999985E-02   7.42636664E-25
   9.00000036E-02   3.61393550E-24
   9.25000012E-02   2.77551223E-24
   9.49999988E-02  -3.62665864E-24
   9.74999964E-02  -9.45666022E-24
  0.100000001      -5.95404877E-24
  0.102499999       6.67286475E-24
  0.104999997       1.77442349E-23
  0.107500002       1.78391569E-23
  0.109999999       5.48917738E-24
  0.112499997      -2.01234094E-23
  0.115000002      -5.80939069E-23
  0.117500000      -8.06004367E-23
  0.119999997      -2.43991917E-23
  0.122500002       1.42577269E-22
  0.125000000       3.15304776E-22
  0.127499998       2.57048673E-22
  0.129999995      -1.84925859E-22
  0.132499993      -7.98409682E-22
  0.135000005      -9.93969587E-22
  0.137500003      -2.44850308E-22
  0.140000001       1.28726439E-21
  0.142499998       2.53886448E-21
  0.144999996       2.14185394E-21
  0.147499993      -4.44053615E-22
  0.150000006      -4.11339430E-21
  0.152500004      -6.37056016E-21
  0.155000001      -4.70129151E-21
  0.157499999       1.63310020E-21
  0.159999996       1.03333729E-20
  0.162499994       1.61633596E-20
  0.165000007       1.29961286E-20
  0.167500004      -2.23546712E-21
  0.170000002      -2.51871004E-20
  0.172499999      -4.26497070E-20
  0.174999997      -3.74839253E-20
  0.177499995      -1.60642713E-22
  0.180000007       5.88632516E-20
  0.182500005       1.06159597E-19
  0.185000002       9.95653005E-20
  0.187500000       1.66924030E-20
  0.189999998      -1.18700121E-19
  0.192499995      -2.34213321E-19
  0.194999993      -2.41332374E-19
  0.197500005      -9.11138540E-20
  0.200000003       1.79193041E-19
  0.202500001       4.42536458E-19
  0.204999998       5.34275079E-19
  0.207499996       3.40643652E-19
  0.209999993      -1.20677121E-19
  0.212500006      -6.74777444E-19
  0.215000004      -1.04397173E-18
  0.217500001      -9.70508782E-19
  0.219999999      -3.57288904E-19
  0.222499996       6.43875528E-19
  0.224999994       1.65252799E-18
  0.227500007       2.19354774E-18
  0.230000004       1.88663251E-18
  0.232500002       6.01250032E-19
  0.234999999      -1.48041993E-18
  0.237499997      -3.87085454E-18
  0.239999995      -5.78272702E-18
  0.242500007      -6.11798291E-18
  0.245000005      -3.58365082E-18
  0.247500002       2.80575156E-18
  0.250000000       1.27069633E-17
  0.252499998       2.32293608E-17
  0.254999995       2.84180182E-17
  0.257499993       2.05744088E-17
  0.259999990      -6.00682141E-18
  0.262499988      -4.97178264E-17
  0.264999986      -9.72665867E-17
  0.267500013      -1.23737868E-16
  0.270000011      -9.97732086E-17
  0.272500008      -5.68995458E-18
  0.275000006       1.51820174E-16
  0.277500004       3.28470060E-16
  0.280000001       4.45629063E-16
  0.282499999       4.13442393E-16
  0.284999996       1.70943385E-16
  0.287499994      -2.70233950E-16
  0.289999992      -7.99819913E-16
  0.292499989      -1.22135481E-15
  0.294999987      -1.31170802E-15
  0.297500014      -9.14504310E-16
  0.300000012      -3.19027184E-17
  0.302500010       1.13121102E-15
  0.305000007       2.20518082E-15
  0.307500005       2.77732363E-15
  0.310000002       2.55743070E-15
  0.312500000       1.51730611E-15
  0.314999998      -6.50473327E-17
  0.317499995      -1.69098397E-15
  0.319999993      -2.83432153E-15
  0.322499990      -3.16685015E-15
  0.324999988      -2.71721033E-15
  0.327499986      -1.88236555E-15
  0.330000013      -1.26644078E-15
  0.332500011      -1.39363051E-15
  0.335000008      -2.40205076E-15
  0.337500006      -3.84860897E-15
  0.340000004      -4.72826963E-15
  0.342500001      -3.74040898E-15
  0.344999999       2.54954614E-16
  0.347499996       7.72127537E-15
  0.349999994       1.80260504E-14
  0.352499992       2.92459131E-14
  0.354999989       3.82657874E-14
  0.357499987       4.11915036E-14
  0.360000014       3.40760711E-14
  0.362500012       1.39515305E-14
  0.365000010      -1.98961720E-14
  0.367500007      -6.46219664E-14
  0.370000005      -1.12921689E-13
  0.372500002      -1.53147894E-13
  0.375000000      -1.70998645E-13
  0.377499998      -1.52930362E-13
  0.379999995      -9.07322923E-14
  0.382499993       1.40598609E-14
  0.384999990       1.47655556E-13
  0.387499988       2.84908653E-13
  0.389999986       3.94155330E-13
  0.392500013       4.45097843E-13
  0.395000011       4.17504193E-13
  0.397500008       3.07828388E-13
  0.400000006       1.31228741E-13
  0.402500004      -8.21331528E-14
  0.405000001      -2.95632415E-13
  0.407499999      -4.76779694E-13
  0.409999996      -6.06067551E-13
  0.412499994      -6.80596150E-13
  0.414999992      -7.10799312E-13
  0.417499989      -7.11282704E-13
  0.419999987      -6.89401281E-13
  0.422500014      -6.36593480E-13
  0.425000012      -5.26896560E-13
  0.427500010      -3.24510384E-13
  0.430000007       1.33710863E-15
  0.432500005       4.59138044E-13
  0.435000002       1.02170139E-12
  0.437500000       1.62173064E-12
  0.439999998       2.15843554E-12
  0.442499995       2.51354081E-12
  0.444999993       2.57225469E-12
  0.447499990       2.24379174E-12
  0.449999988       1.47697761E-12
  0.452499986       2.68521696E-13
  0.455000013      -1.33620003E-12
  0.457500011      -3.24845597E-12
  0.460000008      -5.34555429E-12
  0.462500006      -7.48248859E-12
  0.465000004      -9.50448401E-12
  0.467500001      -1.12596096E-11
  0.469999999      -1.26105905E-11
  0.472499996      -1.34445545E-11
  0.474999994      -1.36787734E-11
  0.477499992      -1.32600736E-11
  0.479999989      -1.21563992E-11
  0.482499987      -1.03405054E-11
  0.485000014      -7.76812122E-12
  0.487500012      -4.35420320E-12
  0.490000010       5.05544533E-14
  0.492500007       5.68523657E-12
  0.495000005       1.29127473E-11
  0.497500002       2.22746335E-11
  0.500000000       3.45748118E-11
  0.502499998       5.09968491E-11
  0.504999995       7.32418848E-11
  0.507499993       1.03668157E-10
  0.509999990       1.45403731E-10
  0.512499988       2.02415668E-10
  0.514999986       2.79532536E-10
  0.517499983       3.82449489E-10
  0.519999981       5.17762000E-10
  0.522499979       6.93104907E-10
  0.524999976       9.17448673E-10
  0.527499974       1.20159593E-09
  0.529999971       1.55887614E-09
  0.532500029       2.00601691E-09
  0.535000026       2.56411381E-09
  0.537500024       3.25967697E-09
  0.540000021       4.12571310E-09
  0.542500019       5.20285726E-09
  0.545000017       6.54055210E-09
  0.547500014       8.19824564E-09
  0.550000012       1.02466506E-08
  0.552500010       1.27688891E-08
  0.555000007       1.58614242E-08
  0.557500005       1.96345198E-08
  0.560000002       2.42117402E-08
  0.562500000       2.97286427E-08
  0.564999998       3.63301282E-08
  0.567499995       4.41664483E-08
  0.569999993       5.33875415E-08
  0.572499990       6.41358469E-08
  0.574999988       7.65371269E-08
  0.577499986       9.06891415E-08
  0.579999983       1.06648834E-07
  0.582499981       1.24417156E-07
  0.584999979       1.43921554E-07
  0.587499976       1.64997019E-07
  0.589999974       1.87365302E-07
  0.592499971       2.10611432E-07
  0.595000029       2.34159998E-07
  0.597500026       2.57250321E-07
  0.600000024       2.78908345E-07
  0.602500021       2.97921218E-07
  0.605000019       3.12810528E-07
  0.607500017       3.21806056E-07
  0.610000014       3.22816334E-07
  0.612500012       3.13405081E-07
  0.615000010       2.90770743E-07
  0.617500007       2.51715846E-07
  0.620000005       1.92630779E-07
  0.622500002       1.09467081E-07
  0.625000000      -2.29455610E-09
  0.627499998      -1.47651235E-07
  0.629999995      -3.32108982E-07
  0.632499993      -5.61700858E-07
  0.634999990      -8.43004784E-07
  0.637499988      -1.18316848E-06
  0.639999986      -1.58990986E-06
  0.642499983      -2.07153130E-06
  0.644999981      -2.63693141E-06
  0.647499979      -3.29559498E-06
  0.649999976      -4.05757510E-06
  0.652499974      -4.93346488E-06
  0.654999971      -5.93438654E-06
  0.657500029      -7.07180152E-06
  0.660000026      -8.35759511E-06
  0.662500024      -9.80387540E-06
  0.665000021      -1.14228642E-05
  0.667500019      -1.32267205E-05
  0.670000017      -1.52273278E-05
  0.672500014      -1.74361139E-05
  0.675000012      -1.98637699E-05
  0.677500010      -2.25199219E-05
  0.680000007      -2.54129209E-05
  0.682500005      -2.85495535E-05
  0.685000002      -3.19346836E-05
  0.687500000      -3.55708617E-05
  0.689999998      -3.94581330E-05
  0.692499995      -4.35935290E-05
  0.694999993      -4.79711707E-05
  0.697499990      -5.25814612E-05
  0.699999988      -5.74113037E-05
  0.702499986      -6.24438471E-05
  0.704999983      -6.76582204E-05
  0.707499981      -7.30299435E-05
  0.709999979      -7.85307857E-05
  0.712499976      -8.41281799E-05
  0.714999974      -8.97861610E-05
  0.717499971      -9.54649586E-05
  0.720000029      -1.01122001E-04
  0.722500026      -1.06711879E-04
  0.725000024      -1.12187183E-04
  0.727500021      -1.17498210E-04
  0.730000019      -1.22593410E-04
  0.732500017      -1.27419888E-04
  0.735000014      -1.31923560E-04
  0.737500012      -1.36050323E-04
  0.740000010      -1.39745520E-04
  0.742500007      -1.42955119E-04
  0.745000005      -1.45624959E-04
  0.747500002      -1.47701852E-04
  0.750000000      -1.49132029E-04
  0.752499998      -1.49862375E-04
  0.754999995      -1.49840329E-04
  0.757499993      -1.49013053E-04
  0.759999990      -1.47328465E-04
  0.762499988      -1.44734135E-04
  0.764999986      -1.41178098E-04
  0.767499983      -1.36607749E-04
  0.769999981      -1.30970293E-04
  0.772499979      -1.24213097E-04
  0.774999976      -1.16284260E-04
  0.777499974      -1.07132422E-04
  0.779999971      -9.67097440E-05
  0.782500029      -8.49708013E-05
  0.785000026      -7.18739029E-05
  0.787500024      -5.73834513E-05
  0.790000021      -4.14707247E-05
  0.792500019      -2.41163780E-05
  0.795000017      -5.31262867E-06
  0.797500014       1.49350999E-05
  0.800000012       3.66060740E-05
  0.802500010       5.96617720E-05
  0.805000007       8.40446155E-05
  0.807500005       1.09675784E-04
  0.810000002       1.36454022E-04
  0.812500000       1.64255121E-04
  0.814999998       1.92932421E-04
  0.817499995       2.22316259E-04
  0.819999993       2.52215163E-04
  0.822499990       2.82416440E-04
  0.824999988       3.12689604E-04
  0.827499986       3.42788146E-04
  0.829999983       3.72453273E-04
  0.832499981       4.01418889E-04
  0.834999979       4.29416745E-04
  0.837499976       4.56180598E-04
  0.839999974       4.81451949E-04
  0.842499971       5.04985044E-04
  0.845000029       5.26550226E-04
  0.847500026       5.45940420E-04
  0.850000024       5.62974717E-04
  0.852500021       5.77504339E-04
  0.855000019       5.89413801E-04
  0.857500017       5.98626153E-04
  0.860000014       6.05101639E-04
  0.862500012       6.08838745E-04
  0.865000010       6.09873969E-04
  0.867500007       6.08280709E-04
  0.870000005       6.04168861E-04
  0.872500002       5.97679056E-04
  0.875000000       5.88978932E-04
  0.877499998       5.78262901E-04
  0.879999995       5.65736031E-04
  0.882499993       5.51622477E-04
  0.884999990       5.36154432E-04
  0.887499988       5.19567169E-04
  0.889999986       5.02091949E-04
  0.892499983       4.83957119E-04
  0.894999981       4.65376535E-04
  0.897499979       4.46547492E-04
  0.899999976       4.27648687E-04
  0.902499974       4.08839725E-04
  0.904999971       3.90261237E-04
  0.907500029       3.72034527E-04
  0.910000026       3.54258227E-04
  0.912500024       3.37008649E-04
  0.915000021       3.20342195E-04
  0.917500019       3.04292684E-04
  0.920000017       2.88877403E-04
  0.922500014       2.74101360E-04
  0.925000012       2.59961613E-04
  0.927500010       2.46448413E-04
  0.930000007       2.33548388E-04
  0.932500005       2.21237497E-04
  0.935000002       2.09491656E-04
  0.937500000       1.98279668E-04
  0.939999998       1.87572950E-04
  0.942499995       1.77348076E-04
  0.944999993       1.67589766E-04
  0.947499990       1.58288181E-04
  0.949999988       1.49436732E-04
  0.952499986       1.41030512E-04
  0.954999983       1.33063062E-04
  0.957499981       1.25529012E-04
  0.959999979       1.18426127E-04
  0.962499976       1.11754860E-04
  0.964999974       1.05520274E-04
  0.967499971       9.97307579E-05
  0.970000029       9.43889827E-05
  0.972500026       8.95006378E-05
  0.975000024       8.50603537E-05
  0.977500021       8.10586862E-05
  0.980000019       7.74808723E-05
  0.982500017       7.43143391E-05
  0.985000014       7.15435453E-05
  0.987500012       6.91542955E-05
  0.990000010       6.71273156E-05
  0.992500007       6.54373362E-05
  0.995000005       6.40513390E-05
  0.997500002       6.29367423E-05
   1.00000000       6.20597784E-05
   1.00250006       6.13851662E-05
   1.00500000       6.08807713E-05
   1.00750005       6.05146197E-05
   1.00999999       6.02593609E-05
   1.01250005       6.00877938E-05
   1.01499999       5.99694285E-05
   1.01750004       5.98814004E-05
   1.01999998       5.97938269E-05
   1.02250004       5.96860737E-05
   1.02499998       5.95411075E-05
   1.02750003       5.93513068E-05
   1.02999997       5.91175667E-05
   1.03250003       5.88440744E-05
   1.03499997       5.85326197E-05
   1.03750002       5.81847053E-05
   1.03999996       5.78031613E-05
   1.04250002       5.73905309E-05
   1.04499996       5.69523436E-05
   1.04750001       5.65021255E-05
   1.04999995       5.60546032E-05
   1.05250001       5.56279228E-05
   1.05499995       5.52312849E-05
   1.05750000       5.48719327E-05
   1.05999994       5.45520379E-05
   1.06250000       5.42708476E-05
   1.06500006       5.40297842E-05
   1.06750000       5.38276545E-05
   1.07000005       5.36652806E-05
   1.07249999       5.35410873E-05
   1.07500005       5.34473802E-05
   1.07749999       5.33782586E-05
   1.08000004       5.33285674E-05
   1.08249998       5.32897866E-05
   1.08500004       5.32548911E-05
   1.08749998       5.32183512E-05
   1.09000003       5.31740370E-05
   1.09249997       5.31176229E-05
   1.09500003       5.30479010E-05
   1.09749997       5.29629397E-05
   1.10000002       5.28596720E-05
   1.10249996       5.27380944E-05
   1.10500002       5.25976102E-05
   1.10749996       5.24376992E-05
   1.11000001       5.22598566E-05
   1.11249995       5.20690082E-05
   1.11500001       5.18706875E-05
   1.11749995       5.16699802E-05
   1.12000000       5.14669518E-05
   1.12249994       5.12581682E-05
   1.12500000       5.10374339E-05
   1.12750006       5.08000339E-05
   1.13000000       5.05444004E-05
   1.13250005       5.02723269E-05
   1.13499999       4.99872549E-05
   1.13750005       4.96905959E-05
   1.13999999       4.93797379E-05
   1.14250004       4.90482635E-05
   1.14499998       4.86901808E-05
   1.14750004       4.83014628E-05
   1.14999998       4.78797920E-05
   1.15250003       4.74292756E-05
   1.15499997       4.69539518E-05
   1.15750003       4.64566619E-05
   1.15999997       4.59427793E-05
   1.16250002       4.54176879E-05
   1.16499996       4.48837782E-05
   1.16750002       4.43474055E-05
   1.16999996       4.38131246E-05
   1.17250001       4.32852685E-05
   1.17499995       4.27668274E-05
   1.17750001       4.22598932E-05
   1.17999995       4.17685042E-05
   1.18250000       4.12962436E-05
   1.18499994       4.08455053E-05
   1.18750000       4.04189013E-05
   1.19000006       4.00139688E-05
   1.19250000       3.96295109E-05
   1.19500005       3.92631373E-05
   1.19749999       3.89147681E-05
   1.20000005       3.85823914E-05
   1.20249999       3.82663820E-05
   1.20500004       3.79662852E-05
   1.20749998       3.76774005E-05
   1.21000004       3.73957628E-05
   1.21249998       3.71144233E-05
   1.21500003       3.68295005E-05
   1.21749997       3.65414344E-05
   1.22000003       3.62553146E-05
   1.22249997       3.59780097E-05
   1.22500002       3.57149038E-05
   1.22749996       3.54640542E-05
   1.23000002       3.52225470E-05
   1.23249996       3.49868642E-05
   1.23500001       3.47554414E-05
   1.23749995       3.45329099E-05
   1.24000001       3.43251013E-05
   1.24249995       3.41376144E-05
   1.24500000       3.39757644E-05
   1.24749994       3.38399877E-05
   1.25000000       3.37299207E-05
   1.25250006       3.36436096E-05
   1.25500000       3.35813638E-05
   1.25750005       3.35418335E-05
   1.25999999       3.35240511E-05
   1.26250005       3.35274890E-05
   1.26499999       3.35512523E-05
   1.26750004       3.35936202E-05
   1.26999998       3.36552694E-05
   1.27250004       3.37353740E-05
   1.27499998       3.38330392E-05
   1.27750003       3.39477410E-05
   1.27999997       3.40796287E-05
   1.28250003       3.42254170E-05
   1.28499997       3.43833126E-05
   1.28750002       3.45537592E-05
   1.28999996       3.47366076E-05
   1.29250002       3.49335096E-05
   1.29499996       3.51462477E-05
   1.29750001       3.53739379E-05
   1.29999995       3.56161217E-05
   1.30250001       3.58719772E-05
   1.30499995       3.61415841E-05
   1.30750000       3.64240404E-05
   1.30999994       3.67204011E-05
   1.31250000       3.70279704E-05
   1.31500006       3.73441289E-05
   1.31750000       3.76646967E-05
   1.32000005       3.79858648E-05
   1.32249999       3.83068036E-05
   1.32500005       3.86285719E-05
   1.32749999       3.89504858E-05
   1.33000004       3.92725487E-05
   1.33249998       3.95926691E-05
   1.33500004       3.99055425E-05
   1.33749998       4.02069090E-05
   1.34000003       4.04921302E-05
   1.34249997       4.07618099E-05
   1.34500003       4.10172979E-05
   1.34749997       4.12626941E-05
   1.35000002       4.15015857E-05
   1.35249996       4.17340561E-05
   1.35500002       4.19604730E-05
   1.35749996       4.21788936E-05
   1.36000001       4.23870006E-05
   1.36249995       4.25827784E-05
   1.36500001       4.27636151E-05
   1.36749995       4.29307729E-05
   1.37000000       4.30868749E-05
   1.37249994       4.32381166E-05
   1.37500000       4.33911518E-05
   1.37750006       4.35486727E-05
   1.38000000       4.37112722E-05
   1.38250005       4.38742863E-05
   1.38499999       4.40295262E-05
   1.38750005       4.41716875E-05
   1.38999999       4.43007011E-05
   1.39250004       4.44189936E-05
   1.39499998       4.45331352E-05
   1.39750004       4.46482081E-05
   1.39999998       4.47661223E-05
   1.40250003       4.48853461E-05
   1.40499997       4.50013213E-05
   1.40750003       4.51094493E-05
   1.40999997       4.52059903E-05
   1.41250002       4.52906570E-05
   1.41499996       4.53656030E-05
   1.41750002       4.54330038E-05
   1.41999996       4.54955152E-05
   1.42250001       4.55532354E-05
   1.42499995       4.56072230E-05
   1.42750001       4.56563575E-05
   1.42999995       4.57011156E-05
   1.43250000       4.57441602E-05
   1.43499994       4.57886599E-05
   1.43750000       4.58359209E-05
   1.44000006       4.58855029E-05
   1.44250000       4.59351177E-05
   1.44500005       4.59822659E-05
   1.44749999       4.60240408E-05
   1.45000005       4.60615520E-05
   1.45249999       4.60980918E-05
   1.45500004       4.61398631E-05
   1.45749998       4.61913478E-05
   1.46000004       4.62533717E-05
   1.46249998       4.63230135E-05
   1.46500003       4.63909782E-05
   1.46749997       4.64484765E-05
   1.47000003       4.64909208E-05
   1.47249997       4.65198355E-05
   1.47500002       4.65403500E-05
   1.47749996       4.65613848E-05
   1.48000002       4.65884004E-05
   1.48249996       4.66221391E-05
   1.48500001       4.66574056E-05
   1.48749995       4.66861384E-05
   1.49000001       4.67030623E-05
   1.49249995       4.67072859E-05
   1.49500000       4.67023165E-05
   1.49749994       4.66952552E-05
   1.50000000       4.66926394E-05
   1.50250006       4.66983911E-05
   1.50500000       4.67111713E-05
   1.50750005       4.67285063E-05
   1.50999999       4.67466671E-05
   1.51250005       4.67621358E-05
   1.51499999       4.67735663E-05
   1.51750004       4.67813734E-05
   1.51999998       4.67861573E-05
   1.52250004       4.67887730E-05
   1.52499998       4.67911632E-05
   1.52750003       4.67932223E-05
   1.52999997       4.67949394E-05
   1.53250003       4.67950886E-05
   1.53499997       4.67910140E-05
   1.53750002       4.67806640E-05
   1.53999996       4.67634418E-05
   1.54250002       4.67395294E-05
   1.54499996       4.67109821E-05
   1.54750001       4.66785896E-05
   1.54999995       4.66428355E-05
   1.55250001       4.66036799E-05
   1.55499995       4.65609337E-05
   1.55750000       4.65183803E-05
   1.55999994       4.64800833E-05
   1.56250000       4.64491895E-05
   1.56500006       4.64265067E-05
   1.56750000       4.64078985E-05
   1.57000005       4.63873512E-05
   1.57249999       4.63589204E-05
   1.57500005       4.63222641E-05
   1.57749999       4.62805729E-05
   1.58000004       4.62402568E-05
   1.58249998       4.62061435E-05
   1.58500004       4.61797317E-05
   1.58749998       4.61580603E-05
   1.59000003       4.61359377E-05
   1.59249997       4.61090422E-05
   1.59500003       4.60759366E-05
   1.59749997       4.60373049E-05
   1.60000002       4.59939256E-05
   1.60249996       4.59467374E-05
   1.60500002       4.58954783E-05
   1.60749996       4.58418217E-05
   1.61000001       4.57885835E-05
   1.61249995       4.57397509E-05
   1.61500001       4.56985399E-05
   1.61749995       4.56649504E-05
   1.62000000       4.56329690E-05
   1.62249994       4.55952686E-05
   1.62500000       4.55468107E-05
   1.62750006       4.54856490E-05
   1.63000000       4.54176115E-05
   1.63250005       4.53492030E-05
   1.63499999       4.52863205E-05
   1.63750005       4.52288587E-05
   1.63999999       4.51723645E-05
   1.64250004       4.51098567E-05
   1.64499998       4.50383450E-05
   1.64750004       4.49582039E-05
   1.64999998       4.48730534E-05
   1.65250003       4.47867496E-05
   1.65499997       4.46995837E-05
   1.65750003       4.46087506E-05
   1.65999997       4.45111255E-05
   1.66250002       4.44063589E-05
   1.66499996       4.42977107E-05
   1.66750002       4.41907832E-05
   1.66999996       4.40900549E-05
   1.67250001       4.39961987E-05
   1.67499995       4.39053329E-05
   1.67750001       4.38122624E-05
   1.67999995       4.37135532E-05
   1.68250000       4.36088994E-05
   1.68499994       4.35009206E-05
   1.68750000       4.33936184E-05
   1.69000006       4.32897505E-05
   1.69250000       4.31906265E-05
   1.69500005       4.30973341E-05
   1.69749999       4.30097934E-05
   1.70000005       4.29271495E-05
   1.70249999       4.28465573E-05
   1.70500004       4.27646228E-05
   1.70749998       4.26791339E-05
   1.71000004       4.25893159E-05
   1.71249998       4.24988248E-05
   1.71500003       4.24137179E-05
   1.71749997       4.23405982E-05
   1.72000003       4.22820522E-05
   1.72249997       4.22333687E-05
   1.72500002       4.21852455E-05
   1.72749996       4.21287878E-05
   1.73000002       4.20597826E-05
   1.73249996       4.19809476E-05
   1.73500001       4.19017379E-05
   1.73749995       4.18309719E-05
   1.74000001       4.17717565E-05
   1.74249995       4.17206065E-05
   1.74500000       4.16692710E-05
   1.74749994       4.16097137E-05
   1.75000000       4.15393988E-05
   1.75250006       4.14616479E-05
   1.75500000       4.13828893E-05
   1.75750005       4.13081616E-05
   1.75999999       4.12393420E-05
   1.76250005       4.11735091E-05
   1.76499999       4.11070396E-05
   1.76750004       4.10382927E-05
   1.76999998       4.09691711E-05
   1.77250004       4.09033019E-05
   1.77499998       4.08416199E-05
   1.77750003       4.07828484E-05
   1.77999997       4.07242987E-05
   1.78250003       4.06623149E-05
   1.78499997       4.05960382E-05
   1.78750002       4.05272913E-05
   1.78999996       4.04585808E-05
   1.79250002       4.03923004E-05
   1.79499996       4.03288977E-05
   1.79750001       4.02678634E-05
   1.79999995       4.02091100E-05
   1.80250001       4.01544312E-05
   1.80499995       4.01044417E-05
   1.80750000       4.00587087E-05
   1.80999994       4.00128847E-05
   1.81250000       3.99613054E-05
   1.81500006       3.99007986E-05
   1.81750000       3.98332668E-05
   1.82000005       3.97655094E-05
   1.82249999       3.97065342E-05
   1.82500005       3.96610449E-05
   1.82749999       3.96267424E-05
   1.83000004       3.95955467E-05
   1.83249998       3.95579591E-05
   1.83500004       3.95083807E-05
   1.83749998       3.94485469E-05
   1.84000003       3.93869705E-05
   1.84249997       3.93319351E-05
   1.84500003       3.92885013E-05
   1.84749997       3.92551192E-05
   1.85000002       3.92279362E-05
   1.85249996       3.92023830E-05
   1.85500002       3.91781141E-05
   1.85749996       3.91583490E-05
   1.86000001       3.91479844E-05
   1.86249995       3.91497560E-05
   1.86500001       3.91625181E-05
   1.86749995       3.91821486E-05
   1.87000000       3.92042493E-05
   1.87249994       3.92259608E-05
   1.87500000       3.92471629E-05
   1.87750006       3.92695256E-05
   1.88000000       3.92953807E-05
   1.88250005       3.93260707E-05
   1.88499999       3.93623304E-05
   1.88750005       3.94040835E-05
   1.88999999       3.94495728E-05
   1.89250004       3.94948365E-05
   1.89499998       3.95337702E-05
   1.89750004       3.95613788E-05
   1.89999998       3.95763818E-05
   1.90250003       3.95834613E-05
   1.90499997       3.95929128E-05
   1.90750003       3.96150317E-05
   1.90999997       3.96546748E-05
   1.91250002       3.97081749E-05
   1.91499996       3.97644435E-05
   1.91750002       3.98109041E-05
   1.91999996       3.98411285E-05
   1.92250001       3.98576813E-05
   1.92499995       3.98724187E-05
   1.92750001       3.98970406E-05
   1.92999995       3.99373566E-05
   1.93250000       3.99886922E-05
   1.93499994       4.00389254E-05
   1.93750000       4.00763420E-05
   1.94000006       4.00948738E-05
   1.94250000       4.00980134E-05
   1.94500005       4.00948011E-05
   1.94749999       4.00939425E-05
   1.95000005       4.00980898E-05
   1.95249999       4.01023281E-05
   1.95500004       4.00984609E-05
   1.95749998       4.00808822E-05
   1.96000004       4.00495737E-05
   1.96249998       4.00107565E-05
   1.96500003       3.99725322E-05
   1.96749997       3.99405144E-05
   1.97000003       3.99150340E-05
   1.97249997       3.98916818E-05
   1.97500002       3.98653792E-05
   1.97749996       3.98330230E-05
   1.98000002       3.97957519E-05
   1.98249996       3.97583317E-05
   1.98500001       3.97264848E-05
   1.98749995       3.97053191E-05
   1.99000001       3.96967807E-05
   1.99249995       3.96997493E-05
   1.99500000       3.97102704E-05
   1.99749994       3.97237563E-05
   2.00000000       3.97373951E-05
   2.00250006       3.97520198E-05
   2.00500011       3.97730000E-05
   2.00749993       3.98086631E-05
   2.00999999       3.98671145E-05
   2.01250005       3.99516466E-05
   2.01500010       4.00578501E-05
   2.01749992       4.01764955E-05
   2.01999998       4.02971382E-05
   2.02250004       4.04142520E-05
   2.02500010       4.05301653E-05
   2.02749991       4.06530526E-05
   2.02999997       4.07915722E-05
   2.03250003       4.09485874E-05
   2.03500009       4.11185210E-05
   2.03749990       4.12899026E-05
   2.03999996       4.14511596E-05
   2.04250002       4.15953946E-05
   2.04500008       4.17232513E-05
   2.04749990       4.18397394E-05
   2.04999995       4.19490134E-05
   2.05250001       4.20505348E-05
   2.05500007       4.21385303E-05
   2.05749989       4.22061603E-05
   2.05999994       4.22495177E-05
   2.06250000       4.22702979E-05
   2.06500006       4.22740923E-05
   2.06750011       4.22665798E-05
   2.06999993       4.22493285E-05
   2.07249999       4.22189260E-05
   2.07500005       4.21702898E-05
   2.07750010       4.21010009E-05
   2.07999992       4.20148353E-05
   2.08249998       4.19199350E-05
   2.08500004       4.18266136E-05
   2.08750010       4.17422125E-05
   2.08999991       4.16686999E-05
   2.09249997       4.16038602E-05
   2.09500003       4.15440845E-05
   2.09750009       4.14882015E-05
   2.09999990       4.14385286E-05
   2.10249996       4.14006645E-05
   2.10500002       4.13799899E-05
   2.10750008       4.13800190E-05
   2.10999990       4.14009155E-05
   2.11249995       4.14399037E-05
   2.11500001       4.14931710E-05
   2.11750007       4.15569593E-05
   2.11999989       4.16289840E-05
   2.12249994       4.17075207E-05
   2.12500000       4.17923693E-05
   2.12750006       4.18830386E-05
   2.13000011       4.19787139E-05
   2.13249993       4.20766119E-05
   2.13499999       4.21731093E-05
   2.13750005       4.22635749E-05
   2.14000010       4.23452220E-05