 -0.159999996       0.00000000    
 -0.157499999       0.00000000    
 -0.155000001       0.00000000    
 -0.152500004       0.00000000    
 -0.150000006       0.00000000    
 -0.147499993       0.00000000    
 -0.144999996       9.10970038E-18
 -0.142499998      -2.12039511E-17
 -0.140000001       7.92028957E-16
 -0.137500003      -2.45168816E-15
 -0.135000005      -3.00602189E-15
 -0.132499993       2.16211326E-14
 -0.129999995       2.10372322E-15
 -0.127499998      -9.69514996E-14
 -0.125000000       7.83649811E-15
 -0.122500002       2.96017659E-13
 -0.119999997       2.68051098E-14
 -0.117500000      -6.49297890E-13
 -0.115000002      -3.71632683E-13
 -0.112499997       9.27321154E-13
 -0.109999999       1.62151694E-12
 -0.107500002      -2.84512323E-13
 -0.104999997      -4.33216006E-12
 -0.102499999      -2.60641010E-12
 -0.100000001       7.90617224E-12
  -9.74999964E-02   7.65759938E-12
  -9.49999988E-02  -9.87016979E-12
  -9.25000012E-02  -9.38696430E-12
  -9.00000036E-02   8.37990788E-12
  -8.74999985E-02  -5.07402627E-12
  -8.50000009E-02  -7.92562457E-12
  -8.25000033E-02   4.88641037E-11
  -7.99999982E-02   1.97945167E-11
  -7.75000006E-02  -1.19441859E-10
  -7.50000030E-02  -4.59038779E-11
  -7.24999979E-02   1.91035895E-10
  -7.00000003E-02   5.42082351E-11
  -6.75000027E-02  -2.30008068E-10
  -6.49999976E-02   2.49138488E-11
  -6.25000000E-02   2.15623935E-10
  -5.99999987E-02  -2.72401185E-10
  -5.75000010E-02  -1.39455197E-10
  -5.49999997E-02   7.57749585E-10
  -5.24999984E-02   1.62591052E-11
  -5.00000007E-02  -1.50048363E-09
  -4.74999994E-02   7.58852980E-11
  -4.50000018E-02   2.32783726E-09
  -4.25000004E-02  -8.75015616E-11
  -3.99999991E-02  -2.75021850E-09
  -3.75000015E-02   3.49730023E-10
  -3.50000001E-02   2.31237007E-09
  -3.24999988E-02  -1.66465142E-09
  -2.99999993E-02  -1.35352507E-09
  -2.74999999E-02   4.39101644E-09
  -2.50000004E-02   9.02498076E-10
  -2.25000009E-02  -7.34380201E-09
  -1.99999996E-02  -1.03923004E-09
  -1.75000001E-02   8.69166605E-09
  -1.49999997E-02   5.98934236E-11
  -1.25000002E-02  -8.25465207E-09
  -9.99999978E-03   3.48967788E-09
  -7.49999983E-03   7.44869766E-09
  -4.99999989E-03  -8.98514951E-09
  -2.49999994E-03  -7.25958138E-09
   0.00000000       1.45252157E-08
   2.49999994E-03   8.03098210E-09
   4.99999989E-03  -1.62933329E-08
   7.49999983E-03  -6.02927130E-09
   9.99999978E-03   1.38286733E-08
   1.25000002E-02  -5.09218445E-09
   1.49999997E-02  -2.08149284E-08
   1.75000001E-02   3.23372973E-09
   1.99999996E-02   7.01372027E-09
   2.25000009E-02  -2.99844629E-08
   2.50000004E-02  -3.46297568E-08
   2.74999999E-02  -6.67755451E-09
   2.99999993E-02  -2.52736978E-08
   3.24999988E-02  -7.10975812E-08
   3.50000001E-02  -7.30841307E-08
   3.75000015E-02  -7.28183167E-08
   3.99999991E-02  -1.25689382E-07
   4.25000004E-02  -1.76621427E-07
   4.50000018E-02  -2.03534171E-07
   4.74999994E-02  -2.79865219E-07
   5.00000007E-02  -4.01744217E-07
   5.24999984E-02  -4.99552755E-07
   5.49999997E-02  -6.18825425E-07
   5.75000010E-02  -8.36620643E-07
   5.99999987E-02  -1.10141366E-06
   6.25000000E-02  -1.37692643E-06
   6.49999976E-02  -1.75300363E-06
   6.75000027E-02  -2.26353382E-06
   7.00000003E-02  -2.84990620E-06
   7.24999979E-02  -3.55735597E-06
   7.50000030E-02  -4.48748460E-06
   7.75000006E-02  -5.61772913E-06
   7.99999982E-02  -6.93144511E-06
   8.25000033E-02  -8.55641156E-06
   8.50000009E-02  -1.05700356E-05
   8.74999985E-02  -1.29274213E-05
   9.00000036E-02  -1.56970764E-05
   9.25000012E-02  -1.90552564E-05
   9.49999988E-02  -2.30432070E-05
   9.74999964E-02  -2.76539922E-05
  0.100000001      -3.30502844E-05
  0.102499999      -3.94042399E-05
  0.104999997      -4.67304744E-05
  0.107500002      -5.51008889E-05
  0.109999999      -6.47429479E-05
  0.112499997      -7.57959569E-05
  0.115000002      -8.82873064E-05
  0.117500000      -1.02370403E-04
  0.119999997      -1.18265780E-04
  0.122500002      -1.36048810E-04
  0.125000000      -1.55781076E-04
  0.127499998      -1.77676047E-04
  0.129999995      -2.01905263E-04
  0.132499993      -2.28480043E-04
  0.135000005      -2.57472711E-04
  0.137500003      -2.89070013E-04
  0.140000001      -3.23344051E-04
  0.142499998      -3.60264530E-04
  0.144999996      -3.99903685E-04
  0.147499993      -4.42345656E-04
  0.150000006      -4.87515121E-04
  0.152500004      -5.35344065E-04
  0.155000001      -5.85892820E-04
  0.157499999      -6.39109290E-04
  0.159999996      -6.94759772E-04
  0.162499994      -7.52722844E-04
  0.165000007      -8.13003280E-04
  0.167500004      -8.75412952E-04
  0.170000002      -9.39619495E-04
  0.172499999      -1.00545189E-03
  0.174999997      -1.07277639E-03
  0.177499995      -1.14123127E-03
  0.180000007      -1.21043215E-03
  0.182500005      -1.28016155E-03
  0.185000002      -1.35008281E-03
  0.187500000      -1.41963351E-03
  0.189999998      -1.48834940E-03
  0.192499995      -1.55586272E-03
  0.194999993      -1.62157079E-03
  0.197500005      -1.68474147E-03
  0.200000003      -1.74479012E-03
  0.202500001      -1.80105201E-03
  0.204999998      -1.85258558E-03
  0.207499996      -1.89848826E-03
  0.209999993      -1.93798577E-03
  0.212500006      -1.97005435E-03
  0.215000004      -1.99347339E-03
  0.217500001      -2.00722250E-03
  0.219999999      -2.01032520E-03
  0.222499996      -2.00151559E-03
  0.224999994      -1.97954080E-03
  0.227500007      -1.94344006E-03
  0.230000004      -1.89220160E-03
  0.232500002      -1.82465685E-03
  0.234999999      -1.73994387E-03
  0.237499997      -1.63754693E-03
  0.239999995      -1.51687348E-03
  0.242500007      -1.37738709E-03
  0.245000005      -1.21906190E-03
  0.247500002      -1.04222365E-03
  0.250000000      -8.47231655E-04
  0.252499998      -6.34733180E-04
  0.254999995      -4.05917322E-04
  0.257499993      -1.62252603E-04
  0.259999990       9.46726213E-05
  0.262499988       3.62912979E-04
  0.264999986       6.40108134E-04
  0.267500013       9.23725136E-04
  0.270000011       1.21112773E-03
  0.272500008       1.49948185E-03
  0.275000006       1.78582489E-03
  0.277500004       2.06722016E-03
  0.280000001       2.34077964E-03
  0.282499999       2.60368572E-03
  0.284999996       2.85331905E-03
  0.287499994       3.08733387E-03
  0.289999992       3.30364401E-03
  0.292499989       3.50048020E-03
  0.294999987       3.67652345E-03
  0.297500014       3.83090647E-03
  0.300000012       3.96313332E-03
  0.302500010       4.07314207E-03
  0.305000007       4.16139094E-03
  0.307500005       4.22871578E-03
  0.310000002       4.27624164E-03
  0.312500000       4.30553267E-03
  0.314999998       4.31853347E-03
  0.317499995       4.31724172E-03
  0.319999993       4.30372264E-03
  0.322499990       4.28036321E-03
  0.324999988       4.24960162E-03
  0.327499986       4.21349099E-03
  0.330000013       4.17396706E-03
  0.332500011       4.13317000E-03
  0.335000008       4.09292942E-03
  0.337500006       4.05436708E-03
  0.340000004       4.01843712E-03
  0.342500001       3.98619054E-03
  0.344999999       3.95813351E-03
  0.347499996       3.93407233E-03
  0.349999994       3.91378114E-03
  0.352499992       3.89706157E-03
  0.354999989       3.88316577E-03
  0.357499987       3.87094170E-03
  0.360000014       3.85939819E-03
  0.362500012       3.84754920E-03
  0.365000010       3.83408810E-03
  0.367500007       3.81769752E-03
  0.370000005       3.79733974E-03
  0.372500002       3.77204176E-03
  0.375000000       3.74080194E-03
  0.377499998       3.70283215E-03
  0.379999995       3.65763670E-03
  0.382499993       3.60489963E-03
  0.384999990       3.54445400E-03
  0.387499988       3.47629073E-03
  0.389999986       3.40065174E-03
  0.392500013       3.31809348E-03
  0.395000011       3.22927395E-03
  0.397500008       3.13478312E-03
  0.400000006       3.03541543E-03
  0.402500004       2.93230079E-03
  0.405000001       2.82647368E-03
  0.407499999       2.71871057E-03
  0.409999996       2.60998728E-03
  0.412499994       2.50153197E-03
  0.414999992       2.39427364E-03
  0.417499989       2.28881324E-03
  0.419999987       2.18591746E-03
  0.422500014       2.08647200E-03
  0.425000012       1.99102238E-03
  0.427500010       1.89985137E-03
  0.430000007       1.81334815E-03
  0.432500005       1.73190935E-03
  0.435000002       1.65565731E-03
  0.437500000       1.58455025E-03
  0.439999998       1.51861343E-03
  0.442499995       1.45786267E-03
  0.444999993       1.40213559E-03
  0.447499990       1.35116850E-03
  0.449999988       1.30476186E-03
  0.452499986       1.26273429E-03
  0.455000013       1.22478465E-03
  0.457500011       1.19055202E-03
  0.460000008       1.15977693E-03
  0.462500006       1.13225891E-03
  0.465000004       1.10768725E-03
  0.467500001       1.08568161E-03
  0.469999999       1.06599752E-03
  0.472499996       1.04851648E-03
  0.474999994       1.03299785E-03
  0.477499992       1.01906387E-03
  0.479999989       1.00651360E-03
  0.482499987       9.95372538E-04
  0.485000014       9.85495513E-04
  0.487500012       9.76500276E-04
  0.490000010       9.68246604E-04
  0.492500007       9.60889796E-04
  0.495000005       9.54322750E-04
  0.497500002       9.48172587E-04
  0.500000000       9.42408398E-04
  0.502499998       9.37253528E-04
  0.504999995       9.32571478E-04
  0.507499993       9.28072201E-04
  0.509999990       9.23860352E-04
  0.512499988       9.20092571E-04
  0.514999986       9.16550052E-04
  0.517499983       9.13092983E-04
  0.519999981       9.09926195E-04
  0.522499979       9.07082635E-04
  0.524999976       9.04351065E-04
  0.527499974       9.01774503E-04
  0.529999971       8.99516977E-04
  0.532500029       8.97447229E-04
  0.535000026       8.95436970E-04
  0.537500024       8.93646444E-04
  0.540000021       8.92147305E-04
  0.542500019       8.90796364E-04
  0.545000017       8.89576797E-04
  0.547500014       8.88568524E-04
  0.550000012       8.87735747E-04
  0.552500010       8.87078582E-04
  0.555000007       8.86645867E-04
  0.557500005       8.86338705E-04
  0.560000002       8.86118272E-04
  0.562500000       8.86154885E-04
  0.564999998       8.86426657E-04
  0.567499995       8.86704540E-04
  0.569999993       8.87074566E-04
  0.572499990       8.87762755E-04
  0.574999988       8.88590468E-04
  0.577499986       8.89348856E-04
  0.579999983       8.90255382E-04
  0.582499981       8.91421281E-04
  0.584999979       8.92578857E-04
  0.587499976       8.93693010E-04
  0.589999974       8.94996163E-04
  0.592499971       8.96394078E-04
  0.595000029       8.97661841E-04
  0.597500026       8.98934435E-04
  0.600000024       9.00337473E-04
  0.602500021       9.01669497E-04
  0.605000019       9.02846630E-04
  0.607500017       9.04034183E-04
  0.610000014       9.05232504E-04
  0.612500012       9.06299392E-04
  0.615000010       9.07246198E-04
  0.617500007       9.08131537E-04
  0.620000005       9.08934046E-04
  0.622500002       9.09655297E-04
  0.625000000       9.10278934E-04
  0.627499998       9.10755538E-04
  0.629999995       9.11165087E-04
  0.632499993       9.11597337E-04
  0.634999990       9.11939947E-04
  0.637499988       9.12124931E-04
  0.639999986       9.12302407E-04
  0.642499983       9.12521558E-04
  0.644999981       9.12665913E-04
  0.647499979       9.12763411E-04
  0.649999976       9.12910502E-04
  0.652499974       9.13057360E-04
  0.654999971       9.13195312E-04
  0.657500029       9.13399621E-04
  0.660000026       9.13604687E-04
  0.662500024       9.13768192E-04
  0.665000021       9.14045668E-04
  0.667500019       9.14435950E-04
  0.670000017       9.14738572E-04
  0.672500014       9.15024313E-04
  0.675000012       9.15493176E-04
  0.677500010       9.16000572E-04
  0.680000007       9.16389981E-04
  0.682500005       9.16850055E-04
  0.685000002       9.17439524E-04
  0.687500000       9.17941099E-04
  0.689999998       9.18390404E-04
  0.692499995       9.18974110E-04
  0.694999993       9.19554674E-04
  0.697499990       9.20000079E-04
  0.699999988       9.20493272E-04
  0.702499986       9.21059633E-04
  0.704999983       9.21493745E-04
  0.707499981       9.21859639E-04
  0.709999979       9.22319945E-04
  0.712499976       9.22735839E-04
  0.714999974       9.23031243E-04
  0.717499971       9.23379557E-04
  0.720000029       9.23744461E-04
  0.722500026       9.23966989E-04
  0.725000024       9.24204011E-04
  0.727500021       9.24573629E-04
  0.730000019       9.24841501E-04
  0.732500017       9.24972410E-04
  0.735000014       9.25249653E-04
  0.737500012       9.25644243E-04
  0.740000010       9.25899076E-04
  0.742500007       9.26107110E-04
  0.745000005       9.26461827E-04
  0.747500002       9.26842040E-04
  0.750000000       9.27146641E-04
  0.752499998       9.27488203E-04
  0.754999995       9.27887217E-04
  0.757499993       9.28296475E-04
  0.759999990       9.28765861E-04
  0.762499988       9.29252710E-04
  0.764999986       9.29664238E-04
  0.767499983       9.30121518E-04
  0.769999981       9.30700218E-04
  0.772499979       9.31212504E-04
  0.774999976       9.31644230E-04
  0.777499974       9.32225783E-04
  0.779999971       9.32889991E-04
  0.782500029       9.33399540E-04
  0.785000026       9.33887379E-04
  0.787500024       9.34531679E-04
  0.790000021       9.35131276E-04
  0.792500019       9.35593969E-04
  0.795000017       9.36167664E-04
  0.797500014       9.36851837E-04
  0.800000012       9.37376346E-04
  0.802500010       9.37804347E-04
  0.805000007       9.38376412E-04
  0.807500005       9.38984158E-04
  0.810000002       9.39436373E-04
  0.812500000       9.39847669E-04
  0.814999998       9.40342899E-04
  0.817499995       9.40836151E-04
  0.819999993       9.41276026E-04
  0.822499990       9.41708917E-04
  0.824999988       9.42128885E-04
  0.827499986       9.42531857E-04
  0.829999983       9.42951418E-04
  0.832499981       9.43347986E-04
  0.834999979       9.43691819E-04
  0.837499976       9.44072439E-04
  0.839999974       9.44517320E-04
  0.842499971       9.44908068E-04
  0.845000029       9.45218198E-04
  0.847500026       9.45565349E-04
  0.850000024       9.45972919E-04
  0.852500021       9.46345855E-04
  0.855000019       9.46669548E-04
  0.857500017       9.47013556E-04
  0.860000014       9.47381894E-04
  0.862500012       9.47726367E-04
  0.865000010       9.48051980E-04
  0.867500007       9.48388828E-04
  0.870000005       9.48711240E-04
  0.872500002       9.48989764E-04
  0.875000000       9.49266891E-04
  0.877499998       9.49572888E-04
  0.879999995       9.49844252E-04
  0.882499993       9.50058631E-04
  0.884999990       9.50314628E-04
  0.887499988       9.50631162E-04
  0.889999986       9.50881338E-04
  0.892499983       9.51049849E-04
  0.894999981       9.51274240E-04
  0.897499979       9.51554743E-04
  0.899999976       9.51765571E-04
  0.902499974       9.51935421E-04
  0.904999971       9.52177739E-04
  0.907500029       9.52447415E-04
  0.910000026       9.52652888E-04
  0.912500024       9.52828559E-04
  0.915000021       9.53026582E-04
  0.917500019       9.53241368E-04
  0.920000017       9.53471172E-04
  0.922500014       9.53694107E-04
  0.925000012       9.53880313E-04
  0.927500010       9.54079500E-04
  0.930000007       9.54323332E-04
  0.932500005       9.54538409E-04
  0.935000002       9.54722520E-04
  0.937500000       9.54961928E-04
  0.939999998       9.55201103E-04
  0.942499995       9.55349824E-04
  0.944999993       9.55529802E-04
  0.947499990       9.55822819E-04
  0.949999988       9.56059142E-04
  0.952499986       9.56192205E-04
  0.954999983       9.56412754E-04
  0.957499981       9.56700474E-04
  0.959999979       9.56856413E-04
  0.962499976       9.56967764E-04
  0.964999974       9.57224634E-04
  0.967499971       9.57499084E-04
  0.970000029       9.57641751E-04
  0.972500026       9.57793090E-04
  0.975000024       9.58035700E-04
  0.977500021       9.58236458E-04
  0.980000019       9.58374236E-04
  0.982500017       9.58543154E-04
  0.985000014       9.58710501E-04
  0.987500012       9.58842575E-04
  0.990000010       9.59010213E-04
  0.992500007       9.59180645E-04
  0.995000005       9.59258410E-04
  0.997500002       9.59322322E-04
   1.00000000       9.59462370E-04
   1.00250006       9.59571567E-04
   1.00500000       9.59583675E-04
   1.00750005       9.59612778E-04
   1.00999999       9.59696772E-04
   1.01250005       9.59740952E-04
   1.01499999       9.59745550E-04
   1.01750004       9.59780824E-04
   1.01999998       9.59815399E-04
   1.02250004       9.59801080E-04
   1.02499998       9.59795143E-04
   1.02750003       9.59849393E-04
   1.02999997       9.59907018E-04
   1.03250003       9.59910278E-04
   1.03499997       9.59914818E-04
   1.03750002       9.59995668E-04
   1.03999996       9.60095727E-04
   1.04250002       9.60120931E-04
   1.04499996       9.60147823E-04
   1.04750001       9.60296602E-04
   1.04999995       9.60464706E-04
   1.05250001       9.60515696E-04
   1.05499995       9.60580190E-04
   1.05750000       9.60790669E-04
   1.05999994       9.60990787E-04
   1.06250000       9.61071055E-04
   1.06500006       9.61189624E-04
   1.06750000       9.61401500E-04
   1.07000005       9.61556798E-04
   1.07249999       9.61656158E-04
   1.07500005       9.61808953E-04
   1.07749999       9.61954589E-04
   1.08000004       9.62042890E-04
   1.08249998       9.62173275E-04
   1.08500004       9.62316582E-04
   1.08749998       9.62352962E-04
   1.09000003       9.62382765E-04
   1.09249997       9.62507678E-04
   1.09500003       9.62571474E-04
   1.09749997       9.62528167E-04
   1.10000002       9.62571416E-04
   1.10249996       9.62673512E-04
   1.10500002       9.62629740E-04
   1.10749996       9.62539751E-04
   1.11000001       9.62586084E-04
   1.11249995       9.62615188E-04
   1.11500001       9.62505641E-04
   1.11749995       9.62451042E-04
   1.12000000       9.62504128E-04
   1.12249994       9.62465885E-04
   1.12500000       9.62357910E-04
   1.12750006       9.62362974E-04
   1.13000000       9.62409598E-04
   1.13250005       9.62360529E-04
   1.13499999       9.62316699E-04
   1.13750005       9.62371647E-04
   1.13999999       9.62434977E-04
   1.14250004       9.62454942E-04
   1.14499998       9.62476130E-04
   1.14750004       9.62518388E-04
   1.14999998       9.62601684E-04
   1.15250003       9.62722756E-04
   1.15499997       9.62798775E-04
   1.15750003       9.62834107E-04
   1.15999997       9.62957391E-04
   1.16250002       9.63138824E-04
   1.16499996       9.63221886E-04
   1.16750002       9.63273458E-04
   1.16999996       9.63453669E-04
   1.17250001       9.63653787E-04
   1.17499995       9.63720959E-04
   1.17750001       9.63784463E-04
   1.17999995       9.63968516E-04
   1.18250000       9.64136736E-04
   1.18499994       9.64196515E-04
   1.18750000       9.64270264E-04
   1.19000006       9.64411825E-04
   1.19250000       9.64516948E-04
   1.19500005       9.64565726E-04
   1.19749999       9.64644190E-04
   1.20000005       9.64745472E-04
   1.20249999       9.64791747E-04
   1.20500004       9.64809384E-04
   1.20749998       9.64884530E-04
   1.21000004       9.64983075E-04
   1.21249998       9.65002517E-04
   1.21500003       9.64979641E-04
   1.21749997       9.65027430E-04
   1.22000003       9.65105137E-04
   1.22249997       9.65107291E-04
   1.22500002       9.65097395E-04
   1.22749996       9.65165033E-04
   1.23000002       9.65224230E-04
   1.23249996       9.65215266E-04
   1.23500001       9.65235173E-04
   1.23749995       9.65294603E-04
   1.24000001       9.65301530E-04
   1.24249995       9.65314161E-04
   1.24500000       9.65409155E-04
   1.24749994       9.65465151E-04
   1.25000000       9.65436338E-04
   1.25250006       9.65483137E-04
   1.25500000       9.65591520E-04
   1.25750005       9.65582905E-04
   1.25999999       9.65546351E-04
   1.26250005       9.65658284E-04
   1.26499999       9.65764397E-04
   1.26750004       9.65718122E-04
   1.26999998       9.65710671E-04
   1.27250004       9.65829182E-04
   1.27499998       9.65880405E-04
   1.27750003       9.65860614E-04
   1.27999997       9.65933839E-04
   1.28250003       9.66016261E-04
   1.28499997       9.66002641E-04
   1.28750002       9.66052816E-04
   1.28999996       9.66197287E-04
   1.29250002       9.66224179E-04
   1.29499996       9.66172374E-04
   1.29750001       9.66260268E-04
   1.29999995       9.66381398E-04
   1.30250001       9.66348045E-04
   1.30499995       9.66325053E-04
   1.30750000       9.66448337E-04
   1.30999994       9.66511783E-04
   1.31250000       9.66436579E-04
   1.31500006       9.66443331E-04
   1.31750000       9.66558349E-04
   1.32000005       9.66570398E-04
   1.32249999       9.66495601E-04
   1.32500005       9.66520689E-04
   1.32749999       9.66600783E-04
   1.33000004       9.66581574E-04
   1.33249998       9.66525578E-04
   1.33500004       9.66549909E-04
   1.33749998       9.66573774E-04
   1.34000003       9.66509688E-04
   1.34249997       9.66464926E-04
   1.34500003       9.66516614E-04
   1.34749997       9.66533262E-04
   1.35000002       9.66438558E-04
   1.35249996       9.66381398E-04
   1.35500002       9.66439024E-04
   1.35749996       9.66465857E-04
   1.36000001       9.66407068E-04
   1.36249995       9.66393447E-04
   1.36500001       9.66435939E-04
   1.36749995       9.66429128E-04
   1.37000000       9.66413820E-04
   1.37249994       9.66459804E-04
   1.37500000       9.66484135E-04
   1.37750006       9.66470630E-04
   1.38000000       9.66517662E-04
   1.38250005       9.66568128E-04
   1.38499999       9.66540654E-04
   1.38750005       9.66574822E-04
   1.38999999       9.66703868E-04
   1.39250004       9.66710097E-04
   1.39499998       9.66628315E-04
   1.39750004       9.66722320E-04
   1.39999998       9.66875756E-04
   1.40250003       9.66830819E-04
   1.40499997       9.66787920E-04
   1.40750003       9.66939842E-04
   1.40999997       9.66997468E-04
   1.41250002       9.66867257E-04
   1.41499996       9.66899912E-04
   1.41750002       9.67079366E-04
   1.41999996       9.67051834E-04
   1.42250001       9.66944033E-04
   1.42499995       9.67051601E-04
   1.42750001       9.67147294E-04
   1.42999995       9.67038563E-04
   1.43250000       9.67020809E-04
   1.43499994       9.67174710E-04
   1.43750000       9.67207889E-04
   1.44000006       9.67162952E-04
   1.44250000       9.67260567E-04
   1.44500005       9.67338972E-04
   1.44749999       9.67293105E-04
   1.45000005       9.67373198E-04
   1.45249999       9.67557251E-04
   1.45500004       9.67573025E-04
   1.45749998       9.67564236E-04
   1.46000004       9.67746077E-04
   1.46249998       9.67861968E-04
   1.46500003       9.67810571E-04
   1.46749997       9.67929605E-04
   1.47000003       9.68174194E-04
   1.47249997       9.68168606E-04
   1.47500002       9.68098175E-04
   1.47749996       9.68318491E-04
   1.48000002       9.68529959E-04
   1.48249996       9.68448294E-04
   1.48500001       9.68433102E-04
   1.48749995       9.68643290E-04
   1.49000001       9.68701439E-04
   1.49249995       9.68590262E-04
   1.49500000       9.68661450E-04
   1.49749994       9.68811219E-04
   1.50000000       9.68757609E-04
   1.50250006       9.68686712E-04
   1.50500000       9.68774955E-04
   1.50750005       9.68801149E-04
   1.50999999       9.68716980E-04
   1.51250005       9.68743814E-04
   1.51499999       9.68822918E-04
   1.51750004       9.68777342E-04
   1.51999998       9.68739914E-04
   1.52250004       9.68817214E-04
   1.52499998       9.68852255E-04
   1.52750003       9.68826644E-04
   1.52999997       9.68879438E-04
   1.53250003       9.68946144E-04
   1.53499997       9.68945213E-04
   1.53750002       9.69006855E-04
   1.53999996       9.69137123E-04
   1.54250002       9.69173212E-04
   1.54499996       9.69186483E-04
   1.54750001       9.69328335E-04
   1.54999995       9.69457673E-04
   1.55250001       9.69460467E-04
   1.55499995       9.69513843E-04
   1.55750000       9.69670014E-04
   1.55999994       9.69755871E-04
   1.56250000       9.69791901E-04
   1.56500006       9.69909306E-04
   1.56750000       9.70008085E-04
   1.57000005       9.70008667E-04
   1.57249999       9.70060762E-04
   1.57500005       9.70192137E-04
   1.57749999       9.70250752E-04
   1.58000004       9.70260706E-04
   1.58249998       9.70330846E-04
   1.58500004       9.70387482E-04
   1.58749998       9.70389636E-04
   1.59000003       9.70445806E-04
   1.59249997       9.70532943E-04
   1.59500003       9.70547437E-04
   1.59749997       9.70566762E-04
   1.60000002       9.70650231E-04
   1.60249996       9.70682479E-04
   1.60500002       9.70676949E-04
   1.60749996       9.70770139E-04
   1.61000001       9.70871013E-04
   1.61249995       9.70850582E-04
   1.61500001       9.70862398E-04
   1.61749995       9.70996334E-04
   1.62000000       9.71057743E-04
   1.62249994       9.71016590E-04
   1.62500000       9.71076195E-04
   1.62750006       9.71194590E-04
   1.63000000       9.71187721E-04
   1.63250005       9.71164554E-04
   1.63499999       9.71271307E-04
   1.63750005       9.71359434E-04
   1.63999999       9.71334812E-04
   1.64250004       9.71345231E-04
   1.64499998       9.71417816E-04
   1.64750004       9.71436501E-04
   1.64999998       9.71442845E-04
   1.65250003       9.71509435E-04
   1.65499997       9.71552625E-04
   1.65750003       9.71557514E-04
   1.65999997       9.71615722E-04
   1.66250002       9.71676491E-04
   1.66499996       9.71663685E-04
   1.66750002       9.71685629E-04
   1.66999996       9.71790694E-04
   1.67250001       9.71841335E-04
   1.67499995       9.71826783E-04
   1.67750001       9.71880567E-04
   1.67999995       9.71970614E-04
   1.68250000       9.71995702E-04
   1.68499994       9.72032256E-04
   1.68750000       9.72135749E-04
   1.69000006       9.72188020E-04
   1.69250000       9.72165901E-04
   1.69500005       9.72199603E-04
   1.69749999       9.72290698E-04
   1.70000005       9.72332258E-04
   1.70249999       9.72347043E-04
   1.70500004       9.72407346E-04
   1.70749998       9.72464622E-04
   1.71000004       9.72465263E-04
   1.71249998       9.72461945E-04
   1.71500003       9.72502632E-04
   1.71749997       9.72560199E-04
   1.72000003       9.72598442E-04
   1.72249997       9.72615031E-04
   1.72500002       9.72640351E-04
   1.72749996       9.72699665E-04
   1.73000002       9.72754904E-04
   1.73249996       9.72758513E-04
   1.73500001       9.72761423E-04
   1.73749995       9.72829876E-04
   1.74000001       9.72898444E-04
   1.74249995       9.72893147E-04
   1.74500000       9.72901238E-04
   1.74749994       9.73002228E-04
   1.75000000       9.73086862E-04
   1.75250006       9.73067305E-04
   1.75500000       9.73063870E-04
   1.75750005       9.73160320E-04
   1.75999999       9.73230461E-04
   1.76250005       9.73211427E-04
   1.76499999       9.73238901E-04
   1.76750004       9.73346469E-04
   1.76999998       9.73382848E-04
   1.77250004       9.73336108E-04
   1.77499998       9.73359856E-04
   1.77750003       9.73447750E-04
   1.77999997       9.73468181E-04
   1.78250003       9.73455899E-04
   1.78499997       9.73504561E-04
   1.78750002       9.73542745E-04
   1.78999996       9.73522197E-04
   1.79250002       9.73549963E-04
   1.79499996       9.73636052E-04
   1.79750001       9.73657996E-04
   1.79999995       9.73634655E-04
   1.80250001       9.73669288E-04
   1.80499995       9.73713177E-04
   1.80750000       9.73713468E-04
   1.80999994       9.73755901E-04
   1.81250000       9.73835296E-04
   1.81500006       9.73840768E-04
   1.81750000       9.73835995E-04
   1.82000005       9.73929826E-04
   1.82249999       9.73994611E-04
   1.82500005       9.73941933E-04
   1.82749999       9.73954506E-04
   1.83000004       9.74086986E-04
   1.83249998       9.74123657E-04
   1.83500004       9.74053517E-04
   1.83749998       9.74095718E-04
   1.84000003       9.74206312E-04
   1.84249997       9.74186463E-04
   1.84500003       9.74135182E-04
   1.84749997       9.74215800E-04
   1.85000002       9.74287454E-04
   1.85249996       9.74235649E-04
   1.85500002       9.74225055E-04
   1.85749996       9.74320574E-04
   1.86000001       9.74358583E-04
   1.86249995       9.74324648E-04
   1.86500001       9.74352413E-04
   1.86749995       9.74402297E-04
   1.87000000       9.74381866E-04
   1.87249994       9.74384078E-04
   1.87500000       9.74469411E-04
   1.87750006       9.74512019E-04
   1.88000000       9.74476046E-04
   1.88250005       9.74494207E-04
   1.88499999       9.74578550E-04
   1.88750005       9.74605908E-04
   1.88999999       9.74586292E-04
   1.89250004       9.74621391E-04
   1.89499998       9.74680821E-04
   1.89750004       9.74684721E-04
   1.89999998       9.74680181E-04
   1.90250003       9.74728260E-04
   1.90499997       9.74774826E-04
   1.90750003       9.74776223E-04
   1.90999997       9.74775525E-04
   1.91250002       9.74787923E-04
   1.91499996       9.74786759E-04
   1.91750002       9.74799215E-04
   1.91999996       9.74847528E-04
   1.92250001       9.74872557E-04
   1.92499995       9.74853290E-04
   1.92750001       9.74862487E-04
   1.92999995       9.74914175E-04
   1.93250000       9.74936178E-04
   1.93499994       9.74929309E-04
   1.93750000       9.74950497E-04
   1.94000006       9.74978087E-04
   1.94250000       9.74984490E-04
   1.94500005       9.75017319E-04
   1.94749999       9.75066214E-04
   1.95000005       9.75055154E-04
   1.95249999       9.75032512E-04
   1.95500004       9.75099625E-04
   1.95749998       9.75172035E-04
   1.96000004       9.75124538E-04
   1.96249998       9.75070696E-04
   1.96500003       9.75156552E-04
   1.96749997       9.75255040E-04
   1.97000003       9.75205505E-04
   1.97249997       9.75134899E-04
   1.97500002       9.75202129E-04
   1.97749996       9.75283911E-04
   1.98000002       9.75236529E-04