 -0.159999996       0.00000000    
 -0.157499999       0.00000000    
 -0.155000001       0.00000000    
 -0.152500004       0.00000000    
 -0.150000006       0.00000000    
 -0.147499993       0.00000000    
 -0.144999996       9.40759472E-16
 -0.142499998      -4.56516496E-15
 -0.140000001       1.23104787E-14
 -0.137500003       1.75114812E-14
 -0.135000005      -1.28018703E-13
 -0.132499993      -2.84016381E-14
 -0.129999995       5.90146855E-13
 -0.127499998       6.41822207E-14
 -0.125000000      -1.77002748E-12
 -0.122500002      -4.40586478E-13
 -0.119999997       3.60092034E-12
 -0.117500000       1.95404175E-12
 -0.115000002      -4.14169133E-12
 -0.112499997      -4.83480009E-12
 -0.109999999      -1.37750358E-12
 -0.107500002       5.60575024E-12
 -0.104999997       1.64577102E-11
 -0.102499999       3.21904396E-12
 -0.100000001      -3.24578975E-11
  -9.74999964E-02  -1.85659318E-11
  -9.49999988E-02   2.60233172E-11
  -9.25000012E-02  -2.88043894E-12
  -9.00000036E-02   5.68928672E-12
  -8.74999985E-02   1.45697676E-10
  -8.50000009E-02   1.62720670E-11
  -8.25000033E-02  -4.50607135E-10
  -7.99999982E-02  -2.39490233E-10
  -7.75000006E-02   7.91972377E-10
  -7.50000030E-02   7.02461145E-10
  -7.24999979E-02  -9.18409182E-10
  -7.00000003E-02  -1.13429532E-09
  -6.75000027E-02   7.51432416E-10
  -6.49999976E-02   1.04997677E-09
  -6.25000000E-02  -6.65931921E-10
  -5.99999987E-02  -2.12111551E-10
  -5.75000010E-02   1.31924605E-09
  -5.49999997E-02  -9.60792113E-10
  -5.24999984E-02  -2.98552782E-09
  -5.00000007E-02   1.57859925E-09
  -4.74999994E-02   4.88722618E-09
  -4.50000018E-02  -1.27059607E-09
  -4.25000004E-02  -5.47034684E-09
  -3.99999991E-02   1.16978649E-09
  -3.75000015E-02   4.01118783E-09
  -3.50000001E-02  -3.15588045E-09
  -3.24999988E-02  -1.68102510E-09
  -2.99999993E-02   7.65733610E-09
  -2.74999999E-02   7.13962223E-11
  -2.50000004E-02  -1.32570550E-08
  -2.25000009E-02   3.92272881E-10
  -1.99999996E-02   1.78734147E-08
  -1.75000001E-02  -3.78557630E-10
  -1.49999997E-02  -1.85943652E-08
  -1.25000002E-02   4.24090807E-09
  -9.99999978E-03   1.75563173E-08
  -7.49999983E-03  -1.39768730E-08
  -4.99999989E-03  -2.26452830E-08
  -2.49999994E-03   1.35230671E-08
   0.00000000       8.38932124E-09
   2.49999994E-03  -4.10277430E-08
   4.99999989E-03  -3.46760842E-08
   7.49999983E-03   4.69804640E-09
   9.99999978E-03  -2.90614857E-08
   1.25000002E-02  -8.35358875E-08
   1.49999997E-02  -6.24837639E-08
   1.75000001E-02  -5.78707890E-08
   1.99999996E-02  -1.48458412E-07
   2.25000009E-02  -2.07830482E-07
   2.50000004E-02  -1.93456742E-07
   2.74999999E-02  -2.69110103E-07
   2.99999993E-02  -4.44382607E-07
   3.24999988E-02  -5.50294658E-07
   3.50000001E-02  -6.39151438E-07
   3.75000015E-02  -8.89756336E-07
   3.99999991E-02  -1.21608002E-06
   4.25000004E-02  -1.49423568E-06
   4.50000018E-02  -1.89242007E-06
   4.74999994E-02  -2.51556207E-06
   5.00000007E-02  -3.18905268E-06
   5.24999984E-02  -3.92288894E-06
   5.49999997E-02  -4.98048075E-06
   5.75000010E-02  -6.35481683E-06
   5.99999987E-02  -7.86825785E-06
   6.25000000E-02  -9.69069788E-06
   6.49999976E-02  -1.20719851E-05
   6.75000027E-02  -1.49061752E-05
   7.00000003E-02  -1.81507585E-05
   7.24999979E-02  -2.21196660E-05
   7.50000030E-02  -2.69597549E-05
   7.75000006E-02  -3.25464862E-05
   7.99999982E-02  -3.90469540E-05
   8.25000033E-02  -4.68189719E-05
   8.50000009E-02  -5.58846405E-05
   8.74999985E-02  -6.62212988E-05
   9.00000036E-02  -7.81778654E-05
   9.25000012E-02  -9.20443708E-05
   9.49999988E-02  -1.07804146E-04
   9.74999964E-02  -1.25626510E-04
  0.100000001      -1.45902726E-04
  0.102499999      -1.68763407E-04
  0.104999997      -1.94246182E-04
  0.107500002      -2.22683899E-04
  0.109999999      -2.54367857E-04
  0.112499997      -2.89310905E-04
  0.115000002      -3.27664602E-04
  0.117500000      -3.69738234E-04
  0.119999997      -4.15568793E-04
  0.122500002      -4.65118996E-04
  0.125000000      -5.18641667E-04
  0.127499998      -5.76282560E-04
  0.129999995      -6.37815101E-04
  0.132499993      -7.03141501E-04
  0.135000005      -7.72407162E-04
  0.137500003      -8.45476170E-04
  0.140000001      -9.21974308E-04
  0.142499998      -1.00173580E-03
  0.144999996      -1.08461198E-03
  0.147499993      -1.17013266E-03
  0.150000006      -1.25777605E-03
  0.152500004      -1.34716707E-03
  0.155000001      -1.43778336E-03
  0.157499999      -1.52887602E-03
  0.159999996      -1.61971012E-03
  0.162499994      -1.70955097E-03
  0.165000007      -1.79751217E-03
  0.167500004      -1.88258733E-03
  0.170000002      -1.96368387E-03
  0.172499999      -2.03962368E-03
  0.174999997      -2.10921513E-03
  0.177499995      -2.17117043E-03
  0.180000007      -2.22399877E-03
  0.182500005      -2.26621609E-03
  0.185000002      -2.29642796E-03
  0.187500000      -2.31301389E-03
  0.189999998      -2.31420598E-03
  0.192499995      -2.29853834E-03
  0.194999993      -2.26465450E-03
  0.197500005      -2.21086759E-03
  0.200000003      -2.13559181E-03
  0.202500001      -2.03780038E-03
  0.204999998      -1.91650307E-03
  0.207499996      -1.77049940E-03
  0.209999993      -1.59910682E-03
  0.212500006      -1.40229356E-03
  0.215000004      -1.17998826E-03
  0.217500001      -9.32234980E-04
  0.219999999      -6.59876328E-04
  0.222499996      -3.64242034E-04
  0.224999994      -4.66950223E-05
  0.227500007       2.90886179E-04
  0.230000004       6.45893451E-04
  0.232500002       1.01553847E-03
  0.234999999       1.39683776E-03
  0.237499997       1.78619428E-03
  0.239999995       2.17973953E-03
  0.242500007       2.57366779E-03
  0.245000005       2.96384492E-03
  0.247500002       3.34586413E-03
  0.250000000       3.71562317E-03
  0.252499998       4.06915974E-03
  0.254999995       4.40235808E-03
  0.257499993       4.71153809E-03
  0.259999990       4.99365292E-03
  0.262499988       5.24565438E-03
  0.264999986       5.46479085E-03
  0.267500013       5.64939762E-03
  0.270000011       5.79833053E-03
  0.272500008       5.91035420E-03
  0.275000006       5.98510262E-03
  0.277500004       6.02344144E-03
  0.280000001       6.02624333E-03
  0.282499999       5.99433947E-03
  0.284999996       5.92975970E-03
  0.287499994       5.83531288E-03
  0.289999992       5.71332313E-03
  0.292499989       5.56629011E-03
  0.294999987       5.39776497E-03
  0.297500014       5.21127321E-03
  0.300000012       5.00965957E-03
  0.302500010       4.79613477E-03
  0.305000007       4.57437336E-03
  0.307500005       4.34739934E-03
  0.310000002       4.11777105E-03
  0.312500000       3.88839329E-03
  0.314999998       3.66195245E-03
  0.317499995       3.44032841E-03
  0.319999993       3.22526903E-03
  0.322499990       3.01859155E-03
  0.324999988       2.82154512E-03
  0.327499986       2.63493462E-03
  0.330000013       2.45955423E-03
  0.332500011       2.29587732E-03
  0.335000008       2.14399770E-03
  0.337500006       2.00406392E-03
  0.340000004       1.87600357E-03
  0.342500001       1.75923738E-03
  0.344999999       1.65333750E-03
  0.347499996       1.55813643E-03
  0.349999994       1.47292169E-03
  0.352499992       1.39670225E-03
  0.354999989       1.32909149E-03
  0.357499987       1.26973854E-03
  0.360000014       1.21761893E-03
  0.362500012       1.17190706E-03
  0.365000010       1.13242934E-03
  0.367500007       1.09866832E-03
  0.370000005       1.06968451E-03
  0.372500002       1.04508910E-03
  0.375000000       1.02477171E-03
  0.377499998       1.00811326E-03
  0.379999995       9.94531205E-04
  0.382499993       9.83964070E-04
  0.384999990       9.76191659E-04
  0.387499988       9.70688590E-04
  0.389999986       9.67244559E-04
  0.392500013       9.65790125E-04
  0.395000011       9.65991581E-04
  0.397500008       9.67630243E-04
  0.400000006       9.70665773E-04
  0.402500004       9.74800321E-04
  0.405000001       9.79789416E-04
  0.407499999       9.85754072E-04
  0.409999996       9.92527697E-04
  0.412499994       9.99608194E-04
  0.414999992       1.00703770E-03
  0.417499989       1.01510820E-03
  0.419999987       1.02341897E-03
  0.422500014       1.03151985E-03
  0.425000012       1.03974668E-03
  0.427500010       1.04829774E-03
  0.430000007       1.05663494E-03
  0.432500005       1.06456026E-03
  0.435000002       1.07250700E-03
  0.437500000       1.08046236E-03
  0.439999998       1.08798780E-03
  0.442499995       1.09515362E-03
  0.444999993       1.10226427E-03
  0.447499990       1.10916351E-03
  0.449999988       1.11564330E-03
  0.452499986       1.12184975E-03
  0.455000013       1.12786202E-03
  0.457500011       1.13355368E-03
  0.460000008       1.13891950E-03
  0.462500006       1.14401453E-03
  0.465000004       1.14879152E-03
  0.467500001       1.15325255E-03
  0.469999999       1.15743617E-03
  0.472499996       1.16125075E-03
  0.474999994       1.16464333E-03
  0.477499992       1.16771506E-03
  0.479999989       1.17046293E-03
  0.482499987       1.17274304E-03
  0.485000014       1.17456296E-03
  0.487500012       1.17604714E-03
  0.490000010       1.17714226E-03
  0.492500007       1.17767975E-03
  0.495000005       1.17766997E-03
  0.497500002       1.17726624E-03
  0.500000000       1.17644574E-03
  0.502499998       1.17498392E-03
  0.504999995       1.17284420E-03
  0.507499993       1.17026968E-03
  0.509999990       1.16727070E-03
  0.512499988       1.16350641E-03
  0.514999986       1.15893583E-03
  0.517499983       1.15389749E-03
  0.519999981       1.14834413E-03
  0.522499979       1.14188064E-03
  0.524999976       1.13458128E-03
  0.527499974       1.12677144E-03
  0.529999971       1.11825869E-03
  0.532500029       1.10875920E-03
  0.535000026       1.09850802E-03
  0.537500024       1.08765496E-03
  0.540000021       1.07589911E-03
  0.542500019       1.06318330E-03
  0.545000017       1.04978250E-03
  0.547500014       1.03565224E-03
  0.550000012       1.02061103E-03
  0.552500010       1.00481359E-03
  0.555000007       9.88371437E-04
  0.557500005       9.71158268E-04
  0.560000002       9.53263312E-04
  0.562500000       9.34861018E-04
  0.564999998       9.15847602E-04
  0.567499995       8.96277721E-04
  0.569999993       8.76511447E-04
  0.572499990       8.56563798E-04
  0.574999988       8.36258172E-04
  0.577499986       8.15939915E-04
  0.579999983       7.96009030E-04
  0.582499981       7.76303175E-04
  0.584999979       7.56820664E-04
  0.587499976       7.38118717E-04
  0.589999974       7.20466312E-04
  0.592499971       7.03739235E-04
  0.595000029       6.88217289E-04
  0.597500026       6.74381212E-04
  0.600000024       6.62305101E-04
  0.602500021       6.52090705E-04
  0.605000019       6.44175685E-04
  0.607500017       6.38801663E-04
  0.610000014       6.36032550E-04
  0.612500012       6.36198733E-04
  0.615000010       6.39579142E-04
  0.617500007       6.46158878E-04
  0.620000005       6.56114833E-04
  0.622500002       6.69752539E-04
  0.625000000       6.86994172E-04
  0.627499998       7.07735773E-04
  0.629999995       7.32202490E-04
  0.632499993       7.60352472E-04
  0.634999990       7.91785191E-04
  0.637499988       8.26437899E-04
  0.639999986       8.64344300E-04
  0.642499983       9.04973305E-04
  0.644999981       9.47779976E-04
  0.647499979       9.92696965E-04
  0.649999976       1.03939022E-03
  0.652499974       1.08705647E-03
  0.654999971       1.13523356E-03
  0.657500029       1.18370319E-03
  0.660000026       1.23179425E-03
  0.662500024       1.27877307E-03
  0.665000021       1.32433092E-03
  0.667500019       1.36804406E-03
  0.670000017       1.40920759E-03
  0.672500014       1.44743396E-03
  0.675000012       1.48254423E-03
  0.677500010       1.51407311E-03
  0.680000007       1.54162082E-03
  0.682500005       1.56516803E-03
  0.685000002       1.58460240E-03
  0.687500000       1.59963965E-03
  0.689999998       1.61031622E-03
  0.692499995       1.61686237E-03
  0.694999993       1.61930197E-03
  0.697499990       1.61771465E-03
  0.699999988       1.61243510E-03
  0.702499986       1.60372781E-03
  0.704999983       1.59176928E-03
  0.707499981       1.57693122E-03
  0.709999979       1.55962515E-03
  0.712499976       1.54010742E-03
  0.714999974       1.51870865E-03
  0.717499971       1.49587519E-03
  0.720000029       1.47191738E-03
  0.722500026       1.44707062E-03
  0.725000024       1.42165576E-03
  0.727500021       1.39595370E-03
  0.730000019       1.37017563E-03
  0.732500017       1.34460721E-03
  0.735000014       1.31946686E-03
  0.737500012       1.29479589E-03
  0.740000010       1.27072621E-03
  0.742500007       1.24750833E-03
  0.745000005       1.22517685E-03
  0.747500002       1.20364176E-03
  0.750000000       1.18304335E-03
  0.752499998       1.16355205E-03
  0.754999995       1.14505913E-03
  0.757499993       1.12747122E-03
  0.759999990       1.11093302E-03
  0.762499988       1.09548157E-03
  0.764999986       1.08093093E-03
  0.767499983       1.06724852E-03
  0.769999981       1.05456915E-03
  0.772499979       1.04282668E-03
  0.774999976       1.03184546E-03
  0.777499974       1.02168263E-03
  0.779999971       1.01244589E-03
  0.782500029       1.00398099E-03
  0.785000026       9.96121089E-04
  0.787500024       9.88969230E-04
  0.790000021       9.82609694E-04
  0.792500019       9.76858661E-04
  0.795000017       9.71584348E-04
  0.797500014       9.66915395E-04
  0.800000012       9.62906168E-04
  0.802500010       9.59373603E-04
  0.805000007       9.56224452E-04
  0.807500005       9.53566923E-04
  0.810000002       9.51404276E-04
  0.812500000       9.49563866E-04
  0.814999998       9.47983586E-04
  0.817499995       9.46776534E-04
  0.819999993       9.45976761E-04
  0.822499990       9.45437176E-04
  0.824999988       9.45051725E-04
  0.827499986       9.44908534E-04
  0.829999983       9.45087115E-04
  0.832499981       9.45433974E-04
  0.834999979       9.45788226E-04
  0.837499976       9.46280546E-04
  0.839999974       9.47059481E-04
  0.842499971       9.47938417E-04
  0.845000029       9.48746456E-04
  0.847500026       9.49679059E-04
  0.850000024       9.50846355E-04
  0.852500021       9.51973198E-04
  0.855000019       9.52947070E-04
  0.857500017       9.54030838E-04
  0.860000014       9.55279393E-04
  0.862500012       9.56447504E-04
  0.865000010       9.57522774E-04
  0.867500007       9.58685589E-04
  0.870000005       9.59893572E-04
  0.872500002       9.61021695E-04
  0.875000000       9.62100166E-04
  0.877499998       9.63154424E-04
  0.879999995       9.64181207E-04
  0.882499993       9.65231564E-04
  0.884999990       9.66236752E-04
  0.887499988       9.67105676E-04
  0.889999986       9.68021632E-04
  0.892499983       9.69085377E-04
  0.894999981       9.69987072E-04
  0.897499979       9.70642897E-04
  0.899999976       9.71444999E-04
  0.902499974       9.72399372E-04
  0.904999971       9.73079936E-04
  0.907500029       9.73613118E-04
  0.910000026       9.74434195E-04
  0.912500024       9.75299045E-04
  0.915000021       9.75811621E-04
  0.917500019       9.76287178E-04
  0.920000017       9.77015821E-04
  0.922500014       9.77646443E-04
  0.925000012       9.78013733E-04
  0.927500010       9.78452852E-04
  0.930000007       9.79034463E-04
  0.932500005       9.79525503E-04
  0.935000002       9.79928998E-04
  0.937500000       9.80319222E-04
  0.939999998       9.80647746E-04
  0.942499995       9.80993966E-04
  0.944999993       9.81387915E-04
  0.947499990       9.81626450E-04
  0.949999988       9.81767662E-04
  0.952499986       9.82106314E-04
  0.954999983       9.82473604E-04
  0.957499981       9.82552301E-04
  0.959999979       9.82616330E-04
  0.962499976       9.82918777E-04
  0.964999974       9.83084203E-04
  0.967499971       9.82971629E-04
  0.970000029       9.83026111E-04
  0.972500026       9.83283855E-04
  0.975000024       9.83310514E-04
  0.977500021       9.83168022E-04
  0.980000019       9.83213657E-04
  0.982500017       9.83317499E-04
  0.985000014       9.83239966E-04
  0.987500012       9.83131002E-04
  0.990000010       9.83110513E-04
  0.992500007       9.83080827E-04
  0.995000005       9.83031816E-04
  0.997500002       9.82972910E-04
   1.00000000       9.82861384E-04
   1.00250006       9.82814119E-04
   1.00500000       9.82874888E-04
   1.00750005       9.82796191E-04
   1.00999999       9.82572790E-04
   1.01250005       9.82550089E-04
   1.01499999       9.82670230E-04
   1.01750004       9.82555561E-04
   1.01999998       9.82345664E-04
   1.02250004       9.82398051E-04
   1.02499998       9.82489786E-04
   1.02750003       9.82315629E-04
   1.02999997       9.82132857E-04
   1.03250003       9.82163590E-04
   1.03499997       9.82149621E-04
   1.03750002       9.81954858E-04
   1.03999996       9.81805264E-04
   1.04250002       9.81780700E-04
   1.04499996       9.81707009E-04
   1.04750001       9.81516670E-04
   1.04999995       9.81321675E-04
   1.05250001       9.81215620E-04
   1.05499995       9.81133315E-04
   1.05750000       9.80937853E-04
   1.05999994       9.80687910E-04
   1.06250000       9.80587094E-04
   1.06500006       9.80570563E-04
   1.06750000       9.80395358E-04
   1.07000005       9.80159850E-04
   1.07249999       9.80115030E-04
   1.07500005       9.80130862E-04
   1.07749999       9.79993492E-04
   1.08000004       9.79864271E-04
   1.08249998       9.79902805E-04
   1.08500004       9.79950186E-04
   1.08749998       9.79910721E-04
   1.09000003       9.79904085E-04
   1.09249997       9.79975564E-04
   1.09500003       9.80084063E-04
   1.09749997       9.80210491E-04
   1.10000002       9.80306417E-04
   1.10249996       9.80399200E-04
   1.10500002       9.80600715E-04
   1.10749996       9.80821671E-04
   1.11000001       9.80929472E-04
   1.11249995       9.81128309E-04
   1.11500001       9.81528661E-04
   1.11749995       9.81797464E-04
   1.12000000       9.81876161E-04
   1.12249994       9.82176745E-04
   1.12500000       9.82645084E-04
   1.12750006       9.82843572E-04
   1.13000000       9.82976402E-04
   1.13250005       9.83449165E-04
   1.13499999       9.83915059E-04
   1.13750005       9.84058948E-04
   1.13999999       9.84310522E-04
   1.14250004       9.84820072E-04
   1.14499998       9.85126710E-04
   1.14750004       9.85271763E-04
   1.14999998       9.85692022E-04
   1.15250003       9.86180850E-04
   1.15499997       9.86386091E-04
   1.15750003       9.86597035E-04
   1.15999997       9.87020554E-04
   1.16250002       9.87361185E-04
   1.16499996       9.87589592E-04
   1.16750002       9.87932319E-04
   1.16999996       9.88265965E-04
   1.17250001       9.88494954E-04
   1.17499995       9.88829648E-04
   1.17750001       9.89189954E-04
   1.17999995       9.89361899E-04
   1.18250000       9.89605091E-04
   1.18499994       9.90054337E-04
   1.18750000       9.90308705E-04
   1.19000006       9.90378438E-04
   1.19250000       9.90728266E-04
   1.19500005       9.91160050E-04
   1.19749999       9.91228968E-04
   1.20000005       9.91316978E-04
   1.20249999       9.91764828E-04
   1.20500004       9.92053654E-04
   1.20749998       9.92010348E-04
   1.21000004       9.92217218E-04
   1.21249998       9.92647721E-04
   1.21500003       9.92740621E-04
   1.21749997       9.92707908E-04
   1.22000003       9.93011286E-04
   1.22249997       9.93310241E-04
   1.22500002       9.93300811E-04
   1.22749996       9.93369613E-04
   1.23000002       9.93642607E-04
   1.23249996       9.93780326E-04
   1.23500001       9.93823865E-04
   1.23749995       9.93983122E-04
   1.24000001       9.94097558E-04
   1.24249995       9.94137721E-04
   1.24500000       9.94314207E-04
   1.24749994       9.94463451E-04
   1.25000000       9.94411763E-04
   1.25250006       9.94492089E-04
   1.25500000       9.94780334E-04
   1.25750005       9.94838891E-04
   1.25999999       9.94734466E-04
   1.26250005       9.94923408E-04
   1.26499999       9.95167415E-04
   1.26750004       9.95061011E-04
   1.26999998       9.95001988E-04
   1.27250004       9.95305018E-04
   1.27499998       9.95482667E-04
   1.27750003       9.95344133E-04
   1.27999997       9.95383831E-04
   1.28250003       9.95650655E-04
   1.28499997       9.95700946E-04
   1.28750002       9.95611073E-04
   1.28999996       9.95737035E-04
   1.29250002       9.95946932E-04
   1.29499996       9.96001996E-04
   1.29750001       9.96024231E-04
   1.29999995       9.96134127E-04
   1.30250001       9.96266492E-04
   1.30499995       9.96374874E-04
   1.30750000       9.96429008E-04
   1.30999994       9.96466028E-04
   1.31250000       9.96629242E-04
   1.31500006       9.96837858E-04
   1.31750000       9.96851944E-04
   1.32000005       9.96835297E-04
   1.32249999       9.97074298E-04
   1.32500005       9.97300493E-04
   1.32749999       9.97247640E-04
   1.33000004       9.97286639E-04
   1.33249998       9.97590134E-04
   1.33500004       9.97714233E-04
   1.33749998       9.97625990E-04
   1.34000003       9.97803058E-04
   1.34249997       9.98130534E-04
   1.34500003       9.98154981E-04
   1.34749997       9.98097705E-04
   1.35000002       9.98313888E-04
   1.35249996       9.98522039E-04
   1.35500002       9.98524833E-04
   1.35749996       9.98608768E-04
   1.36000001       9.98813310E-04
   1.36249995       9.98911681E-04
   1.36500001       9.98994452E-04
   1.36749995       9.99163836E-04
   1.37000000       9.99251031E-04
   1.37249994       9.99309937E-04
   1.37500000       9.99518787E-04
   1.37750006       9.99675482E-04
   1.38000000       9.99668264E-04
   1.38250005       9.99813550E-04
   1.38499999       1.00009725E-03
   1.38750005       1.00014312E-03
   1.38999999       1.00010727E-03
   1.39250004       1.00034638E-03
   1.39499998       1.00056734E-03
   1.39750004       1.00050843E-03
   1.39999998       1.00056897E-03
   1.40250003       1.00086699E-03
   1.40499997       1.00096187E-03
   1.40750003       1.00088795E-03
   1.40999997       1.00104988E-03
   1.41250002       1.00127142E-03
   1.41499996       1.00124313E-03
   1.41750002       1.00123091E-03
   1.41999996       1.00141007E-03
   1.42250001       1.00150448E-03
   1.42499995       1.00148690E-03
   1.42750001       1.00156770E-03
   1.42999995       1.00164104E-03
   1.43250000       1.00161810E-03
   1.43499994       1.00169389E-03
   1.43750000       1.00181182E-03
   1.44000006       1.00176036E-03
   1.44250000       1.00172823E-03
   1.44500005       1.00187201E-03
   1.44749999       1.00191485E-03
   1.45000005       1.00182660E-03
   1.45249999       1.00192032E-03
   1.45500004       1.00206200E-03
   1.45749998       1.00195338E-03
   1.46000004       1.00187375E-03
   1.46249998       1.00204628E-03
   1.46500003       1.00210588E-03
   1.46749997       1.00196886E-03
   1.47000003       1.00203650E-03
   1.47249997       1.00222626E-03
   1.47500002       1.00214931E-03
   1.47749996       1.00203813E-03
   1.48000002       1.00222148E-03
   1.48249996       1.00237224E-03
   1.48500001       1.00226537E-03
   1.48749995       1.00226770E-03
   1.49000001       1.00247818E-03
   1.49249995       1.00254593E-03
   1.49500000       1.00249052E-03
   1.49749994       1.00260740E-03
   1.50000000       1.00278785E-03
   1.50250006       1.00281695E-03
   1.50500000       1.00283814E-03
   1.50750005       1.00296980E-03
   1.50999999       1.00307493E-03
   1.51250005       1.00312789E-03
   1.51499999       1.00323441E-03
   1.51750004       1.00335351E-03
   1.51999998       1.00342871E-03
   1.52250004       1.00352266E-03
   1.52499998       1.00362173E-03
   1.52750003       1.00366038E-03
   1.52999997       1.00372452E-03
   1.53250003       1.00387388E-03
   1.53499997       1.00397039E-03
   1.53750002       1.00396725E-03
   1.53999996       1.00402359E-03
   1.54250002       1.00415770E-03
   1.54499996       1.00420439E-03
   1.54750001       1.00418320E-03
   1.54999995       1.00426539E-03
   1.55250001       1.00439275E-03
   1.55499995       1.00438471E-03
   1.55750000       1.00434083E-03
   1.55999994       1.00445806E-03
   1.56250000       1.00460870E-03
   1.56500006       1.00458588E-03
   1.56750000       1.00453629E-03
   1.57000005       1.00465503E-03
   1.57249999       1.00477983E-03
   1.57500005       1.00475701E-03
   1.57749999       1.00477086E-03
   1.58000004       1.00492418E-03
   1.58249998       1.00501324E-03
   1.58500004       1.00498542E-03
   1.58749998       1.00504141E-03
   1.59000003       1.00519252E-03
   1.59249997       1.00527355E-03
   1.59500003       1.00530137E-03
   1.59749997       1.00537308E-03
   1.60000002       1.00545865E-03
   1.60249996       1.00554305E-03
   1.60500002       1.00564340E-03
   1.60749996       1.00569299E-03
   1.61000001       1.00572023E-03
   1.61249995       1.00585911E-03
   1.61500001       1.00600801E-03
   1.61749995       1.00598612E-03
   1.62000000       1.00597180E-03
   1.62249994       1.00615493E-03
   1.62500000       1.00630114E-03
   1.62750006       1.00626459E-03
   1.63000000       1.00631488E-03
   1.63250005       1.00651209E-03
   1.63499999       1.00657297E-03
   1.63750005       1.00652548E-03
   1.63999999       1.00663083E-03
   1.64250004       1.00680254E-03
   1.64499998       1.00685412E-03
   1.64750004       1.00689591E-03
   1.64999998       1.00699975E-03
   1.65250003       1.00705307E-03
   1.65499997       1.00709521E-03
   1.65750003       1.00720604E-03
   1.65999997       1.00727403E-03
   1.66250002       1.00729673E-03
   1.66499996       1.00740558E-03
   1.66750002       1.00749242E-03
   1.66999996       1.00745156E-03
   1.67250001       1.00750104E-03
   1.67499995       1.00767193E-03
   1.67750001       1.00766716E-03
   1.67999995       1.00756902E-03
   1.68250000       1.00770674E-03
   1.68499994       1.00787671E-03
   1.68750000       1.00778032E-03
   1.69000006       1.00773084E-03
   1.69250000       1.00793375E-03
   1.69500005       1.00800069E-03
   1.69749999       1.00786157E-03
   1.70000005       1.00793154E-03
   1.70249999       1.00813911E-03
   1.70500004       1.00810989E-03
   1.70749998       1.00804120E-03
   1.71000004       1.00819801E-03
   1.71249998       1.00829056E-03
   1.71500003       1.00820209E-03
   1.71749997       1.00826193E-03
   1.72000003       1.00843247E-03
   1.72249997       1.00841606E-03
   1.72500002       1.00838917E-03
   1.72749996       1.00854877E-03
   1.73000002       1.00860908E-03
   1.73249996       1.00851385E-03
   1.73500001       1.00860605E-03
   1.73749995       1.00879243E-03
   1.74000001       1.00874191E-03
   1.74249995       1.00867392E-03
   1.74500000       1.00883283E-03
   1.74749994       1.00890815E-03
   1.75000000       1.00879837E-03
   1.75250006       1.00886286E-03
   1.75500000       1.00903783E-03
   1.75750005       1.00897427E-03
   1.75999999       1.00889092E-03
   1.76250005       1.00906403E-03
   1.76499999       1.00915460E-03
   1.76750004       1.00901083E-03
   1.76999998       1.00904866E-03
   1.77250004       1.00927614E-03
   1.77499998       1.00926217E-03
   1.77750003       1.00913749E-03
   1.77999997       1.00928044E-03
   1.78250003       1.00944692E-03
   1.78499997       1.00936624E-03
   1.78750002       1.00935588E-03
   1.78999996       1.00955437E-03
   1.79250002       1.00962294E-03
   1.79499996       1.00954727E-03
   1.79750001       1.00962364E-03
   1.79999995       1.00976974E-03
   1.80250001       1.00977952E-03
   1.80499995       1.00978161E-03
   1.80750000       1.00985379E-03
   1.80999994       1.00986985E-03
   1.81250000       1.00987498E-03
   1.81500006       1.00994552E-03
   1.81750000       1.00995693E-03
   1.82000005       1.00993481E-03
   1.82249999       1.01002061E-03
   1.82500005       1.01004401E-03
   1.82749999       1.00990897E-03
   1.83000004       1.00993807E-03
   1.83249998       1.01013971E-03
   1.83500004       1.01007510E-03
   1.83749998       1.00985996E-03
   1.84000003       1.00998499E-03
   1.84249997       1.01020222E-03
   1.84500003       1.01005659E-03
   1.84749997       1.00992282E-03
   1.85000002       1.01014390E-03
   1.85249996       1.01025368E-03
   1.85500002       1.01007218E-03
   1.85749996       1.01009302E-03
   1.86000001       1.01032318E-03
   1.86249995       1.01032737E-03
   1.86500001       1.01025752E-03
   1.86749995       1.01041095E-03
   1.87000000       1.01051177E-03
   1.87249994       1.01043633E-03
   1.87500000       1.01050362E-03
   1.87750006       1.01065333E-03
   1.88000000       1.01061724E-03
   1.88250005       1.01061771E-03
   1.88499999       1.01078372E-03
   1.88750005       1.01078744E-03
   1.88999999       1.01068965E-03
   1.89250004       1.01083773E-03
   1.89499998       1.01096567E-03
   1.89750004       1.01080257E-03
   1.89999998       1.01079571E-03
   1.90250003       1.01105287E-03
   1.90499997       1.01100549E-03
   1.90750003       1.01076241E-03
   1.90999997       1.01093540E-03
   1.91250002       1.01120095E-03
   1.91499996       1.01099745E-03
   1.91750002       1.01082178E-03
   1.91999996       1.01108628E-03
   1.92250001       1.01118966E-03
   1.92499995       1.01093121E-03
   1.92750001       1.01094379E-03
   1.92999995       1.01121853E-03
   1.93250000       1.01118220E-03
   1.93499994       1.01100956E-03
   1.93750000       1.01112842E-03
   1.94000006       1.01125881E-03
   1.94250000       1.01116404E-03
   1.94500005       1.01114879E-03
   1.94749999       1.01125764E-03
   1.95000005       1.01124635E-03
   1.95249999       1.01122796E-03
   1.95500004       1.01132574E-03
   1.95749998       1.01133320E-03
   1.96000004       1.01127499E-03
   1.96249998       1.01135788E-03
   1.96500003       1.01140141E-03
   1.96749997       1.01127441E-03
   1.97000003       1.01129035E-03
   1.97249997       1.01146719E-03
   1.97500002       1.01142714E-03
   1.97749996       1.01128581E-03
   1.98000002       1.01140258E-03