 -0.159999996       0.00000000    
 -0.157499999       0.00000000    
 -0.155000001       0.00000000    
 -0.152500004       0.00000000    
 -0.150000006       0.00000000    
 -0.147499993      -1.58866429E-15
 -0.144999996       2.09192150E-14
 -0.142499998      -9.44275989E-14
 -0.140000001       1.22592163E-14
 -0.137500003       8.18730066E-13
 -0.135000005      -8.31530916E-13
 -0.132499993      -3.76468561E-12
 -0.129999995       5.28350107E-12
 -0.127499998       1.22723316E-11
 -0.125000000      -2.13099000E-11
 -0.122500002      -3.12491422E-11
 -0.119999997       6.85902585E-11
 -0.117500000       6.76144349E-11
 -0.115000002      -1.91339139E-10
 -0.112499997      -1.42127102E-10
 -0.109999999       4.67152150E-10
 -0.107500002       3.28138905E-10
 -0.104999997      -9.66835945E-10
 -0.102499999      -7.87796495E-10
 -0.100000001       1.62179914E-09
  -9.74999964E-02   1.68961301E-09
  -9.49999988E-02  -2.09083018E-09
  -9.25000012E-02  -2.93289570E-09
  -9.00000036E-02   1.89146121E-09
  -8.74999985E-02   3.92774346E-09
  -8.50000009E-02  -8.48156878E-10
  -8.25000033E-02  -3.83552212E-09
  -7.99999982E-02  -6.20102858E-10
  -7.75000006E-02   2.10271112E-09
  -7.50000030E-02   1.67987746E-09
  -7.24999979E-02   1.32794864E-09
  -7.00000003E-02  -1.08071740E-09
  -6.75000027E-02  -5.59087709E-09
  -6.49999976E-02  -2.82225043E-09
  -6.25000000E-02   7.50430118E-09
  -5.99999987E-02   9.74676873E-09
  -5.75000010E-02  -2.22494734E-09
  -5.49999997E-02  -1.39792231E-08
  -5.24999984E-02  -1.04510347E-08
  -5.00000007E-02   7.79032305E-09
  -4.74999994E-02   2.17360707E-08
  -4.50000018E-02   8.08894907E-09
  -4.25000004E-02  -2.26090151E-08
  -3.99999991E-02  -2.40486564E-08
  -3.75000015E-02   1.38080871E-08
  -3.50000001E-02   3.42675861E-08
  -3.24999988E-02   2.12464712E-09
  -2.99999993E-02  -3.50781661E-08
  -2.74999999E-02  -2.32976625E-08
  -2.50000004E-02   1.78304198E-08
  -2.25000009E-02   3.22835021E-08
  -1.99999996E-02   4.83551155E-09
  -1.75000001E-02  -2.33520421E-08
  -1.49999997E-02  -9.74789494E-09
  -1.25000002E-02   2.29577140E-08
  -9.99999978E-03   1.62527876E-08
  -7.49999983E-03  -1.35193341E-08
  -4.99999989E-03   1.16676162E-08
  -2.49999994E-03   7.86625947E-08
   0.00000000       8.33042577E-08
   2.49999994E-03   1.99847818E-08
   4.99999989E-03   9.20530496E-09
   7.49999983E-03   1.00655967E-07
   9.99999978E-03   2.00550943E-07
   1.25000002E-02   2.22707527E-07
   1.49999997E-02   2.03920067E-07
   1.75000001E-02   2.51034123E-07
   1.99999996E-02   4.14380537E-07
   2.25000009E-02   6.28714361E-07
   2.50000004E-02   8.10069139E-07
   2.74999999E-02   9.84041321E-07
   2.99999993E-02   1.23568498E-06
   3.24999988E-02   1.59603496E-06
   3.50000001E-02   2.07995663E-06
   3.75000015E-02   2.71947829E-06
   3.99999991E-02   3.48421713E-06
   4.25000004E-02   4.34262211E-06
   4.50000018E-02   5.40657311E-06
   4.74999994E-02   6.80350877E-06
   5.00000007E-02   8.50883225E-06
   5.24999984E-02   1.05228692E-05
   5.49999997E-02   1.29968557E-05
   5.75000010E-02   1.60093587E-05
   5.99999987E-02   1.95208631E-05
   6.25000000E-02   2.36250871E-05
   6.49999976E-02   2.85155038E-05
   6.75000027E-02   3.42797975E-05
   7.00000003E-02   4.10177927E-05
   7.24999979E-02   4.89138947E-05
   7.50000030E-02   5.79994557E-05
   7.75000006E-02   6.82265818E-05
   7.99999982E-02   7.98216133E-05
   8.25000033E-02   9.31290415E-05
   8.50000009E-02   1.08234854E-04
   8.74999985E-02   1.25115446E-04
   9.00000036E-02   1.43853336E-04
   9.25000012E-02   1.64492492E-04
   9.49999988E-02   1.87101410E-04
   9.74999964E-02   2.11949198E-04
  0.100000001       2.39164496E-04
  0.102499999       2.68501200E-04
  0.104999997       2.99804757E-04
  0.107500002       3.33209871E-04
  0.109999999       3.68707551E-04
  0.112499997       4.06123116E-04
  0.115000002       4.45404119E-04
  0.117500000       4.86356934E-04
  0.119999997       5.28520555E-04
  0.122500002       5.71703189E-04
  0.125000000       6.15975587E-04
  0.127499998       6.61026454E-04
  0.129999995       7.06315041E-04
  0.132499993       7.51627027E-04
  0.135000005       7.96760141E-04
  0.137500003       8.41250992E-04
  0.140000001       8.84904352E-04
  0.142499998       9.27760615E-04
  0.144999996       9.69432469E-04
  0.147499993       1.00941898E-03
  0.150000006       1.04777864E-03
  0.152500004       1.08466565E-03
  0.155000001       1.11988070E-03
  0.157499999       1.15342450E-03
  0.159999996       1.18556782E-03
  0.162499994       1.21627271E-03
  0.165000007       1.24556175E-03
  0.167500004       1.27408281E-03
  0.170000002       1.30243297E-03
  0.172499999       1.33069500E-03
  0.174999997       1.35918846E-03
  0.177499995       1.38865574E-03
  0.180000007       1.41960965E-03
  0.182500005       1.45253586E-03
  0.185000002       1.48834125E-03
  0.187500000       1.52773759E-03
  0.189999998       1.57095259E-03
  0.192499995       1.61851663E-03
  0.194999993       1.67133543E-03
  0.197500005       1.72995694E-03
  0.200000003       1.79472775E-03
  0.202500001       1.86621852E-03
  0.204999998       1.94473949E-03
  0.207499996       2.03019287E-03
  0.209999993       2.12274469E-03
  0.212500006       2.22269981E-03
  0.215000004       2.32981215E-03
  0.217500001       2.44358112E-03
  0.219999999       2.56369379E-03
  0.222499996       2.68954202E-03
  0.224999994       2.82011880E-03
  0.227500007       2.95464275E-03
  0.230000004       3.09238071E-03
  0.232500002       3.23201274E-03
  0.234999999       3.37198470E-03
  0.237499997       3.51103186E-03
  0.239999995       3.64782172E-03
  0.242500007       3.78076569E-03
  0.245000005       3.90843488E-03
  0.247500002       4.02949424E-03
  0.250000000       4.14237194E-03
  0.252499998       4.24555270E-03
  0.254999995       4.33790637E-03
  0.257499993       4.41844249E-03
  0.259999990       4.48618550E-03
  0.262499988       4.54037031E-03
  0.264999986       4.58040088E-03
  0.267500013       4.60582506E-03
  0.270000011       4.61658183E-03
  0.272500008       4.61294968E-03
  0.275000006       4.59522568E-03
  0.277500004       4.56381496E-03
  0.280000001       4.51946538E-03
  0.282499999       4.46312036E-03
  0.284999996       4.39581089E-03
  0.287499994       4.31880727E-03
  0.289999992       4.23356052E-03
  0.292499989       4.14145365E-03
  0.294999987       4.04380821E-03
  0.297500014       3.94202117E-03
  0.300000012       3.83757893E-03
  0.302500010       3.73200187E-03
  0.305000007       3.62672005E-03
  0.307500005       3.52292508E-03
  0.310000002       3.42164864E-03
  0.312500000       3.32394266E-03
  0.314999998       3.23079526E-03
  0.317499995       3.14299087E-03
  0.319999993       3.06114368E-03
  0.322499990       2.98569654E-03
  0.324999988       2.91689741E-03
  0.327499986       2.85494188E-03
  0.330000013       2.79998383E-03
  0.332500011       2.75194366E-03
  0.335000008       2.71057733E-03
  0.337500006       2.67566973E-03
  0.340000004       2.64690770E-03
  0.342500001       2.62378133E-03
  0.344999999       2.60579586E-03
  0.347499996       2.59251683E-03
  0.349999994       2.58338358E-03
  0.352499992       2.57779262E-03
  0.354999989       2.57522799E-03
  0.357499987       2.57510808E-03
  0.360000014       2.57679308E-03
  0.362500012       2.57982663E-03
  0.365000010       2.58383784E-03
  0.367500007       2.58830492E-03
  0.370000005       2.59271334E-03
  0.372500002       2.59668659E-03
  0.375000000       2.59985146E-03
  0.377499998       2.60193413E-03
  0.379999995       2.60287267E-03
  0.382499993       2.60248617E-03
  0.384999990       2.60037323E-03
  0.387499988       2.59635993E-03
  0.389999986       2.59055011E-03
  0.392500013       2.58289743E-03
  0.395000011       2.57331505E-03
  0.397500008       2.56196875E-03
  0.400000006       2.54895748E-03
  0.402500004       2.53414595E-03
  0.405000001       2.51762476E-03
  0.407499999       2.49972544E-03
  0.409999996       2.48054648E-03
  0.412499994       2.46009650E-03
  0.414999992       2.43868493E-03
  0.417499989       2.41660373E-03
  0.419999987       2.39383476E-03
  0.422500014       2.37045111E-03
  0.425000012       2.34679854E-03
  0.427500010       2.32312130E-03
  0.430000007       2.29950878E-03
  0.432500005       2.27611721E-03
  0.435000002       2.25308817E-03
  0.437500000       2.23049172E-03
  0.439999998       2.20851391E-03
  0.442499995       2.18737149E-03
  0.444999993       2.16708262E-03
  0.447499990       2.14762962E-03
  0.449999988       2.12914823E-03
  0.452499986       2.11174740E-03
  0.455000013       2.09540362E-03
  0.457500011       2.08013924E-03
  0.460000008       2.06604041E-03
  0.462500006       2.05310364E-03
  0.465000004       2.04124255E-03
  0.467500001       2.03039940E-03
  0.469999999       2.02058651E-03
  0.472499996       2.01184419E-03
  0.474999994       2.00413843E-03
  0.477499992       1.99734583E-03
  0.479999989       1.99139002E-03
  0.482499987       1.98624609E-03
  0.485000014       1.98182533E-03
  0.487500012       1.97807048E-03
  0.490000010       1.97503786E-03
  0.492500007       1.97266112E-03
  0.495000005       1.97069789E-03
  0.497500002       1.96908484E-03
  0.500000000       1.96794071E-03
  0.502499998       1.96717866E-03
  0.504999995       1.96661078E-03
  0.507499993       1.96629344E-03
  0.509999990       1.96629274E-03
  0.512499988       1.96641171E-03
  0.514999986       1.96651299E-03
  0.517499983       1.96670252E-03
  0.519999981       1.96700147E-03
  0.522499979       1.96729740E-03
  0.524999976       1.96760427E-03
  0.527499974       1.96795398E-03
  0.529999971       1.96822523E-03
  0.532500029       1.96836609E-03
  0.535000026       1.96846924E-03
  0.537500024       1.96853094E-03
  0.540000021       1.96848391E-03
  0.542500019       1.96837541E-03
  0.545000017       1.96821056E-03
  0.547500014       1.96788437E-03
  0.550000012       1.96742499E-03
  0.552500010       1.96696958E-03
  0.555000007       1.96647318E-03
  0.557500005       1.96581986E-03
  0.560000002       1.96508178E-03
  0.562500000       1.96434790E-03
  0.564999998       1.96353975E-03
  0.567499995       1.96262286E-03
  0.569999993       1.96171040E-03
  0.572499990       1.96084660E-03
  0.574999988       1.95996976E-03
  0.577499986       1.95908104E-03
  0.579999983       1.95822539E-03
  0.582499981       1.95738184E-03
  0.584999979       1.95653434E-03
  0.587499976       1.95575110E-03
  0.589999974       1.95508334E-03
  0.592499971       1.95449381E-03
  0.595000029       1.95394759E-03
  0.597500026       1.95346540E-03
  0.600000024       1.95304106E-03
  0.602500021       1.95264374E-03
  0.605000019       1.95231312E-03
  0.607500017       1.95211975E-03
  0.610000014       1.95202767E-03
  0.612500012       1.95195037E-03
  0.615000010       1.95189798E-03
  0.617500007       1.95191207E-03
  0.620000005       1.95196981E-03
  0.622500002       1.95208378E-03
  0.625000000       1.95230183E-03
  0.627499998       1.95254921E-03
  0.629999995       1.95274327E-03
  0.632499993       1.95298833E-03
  0.634999990       1.95336225E-03
  0.637499988       1.95373758E-03
  0.639999986       1.95406773E-03
  0.642499983       1.95447332E-03
  0.644999981       1.95492432E-03
  0.647499979       1.95531244E-03
  0.649999976       1.95575273E-03
  0.652499974       1.95632805E-03
  0.654999971       1.95684517E-03
  0.657500029       1.95724727E-03
  0.660000026       1.95775507E-03
  0.662500024       1.95837487E-03
  0.665000021       1.95890060E-03
  0.667500019       1.95938884E-03
  0.670000017       1.95998908E-03
  0.672500014       1.96058187E-03
  0.675000012       1.96109642E-03
  0.677500010       1.96168874E-03
  0.680000007       1.96233764E-03
  0.682500005       1.96287292E-03
  0.685000002       1.96338957E-03
  0.687500000       1.96403987E-03
  0.689999998       1.96469412E-03
  0.692499995       1.96526386E-03
  0.694999993       1.96587783E-03
  0.697499990       1.96653116E-03
  0.699999988       1.96710019E-03
  0.702499986       1.96766225E-03
  0.704999983       1.96831743E-03
  0.707499981       1.96897634E-03
  0.709999979       1.96960731E-03
  0.712499976       1.97027600E-03
  0.714999974       1.97090651E-03
  0.717499971       1.97143550E-03
  0.720000029       1.97200640E-03
  0.722500026       1.97267695E-03
  0.725000024       1.97330746E-03
  0.727500021       1.97386951E-03
  0.730000019       1.97443017E-03
  0.732500017       1.97493262E-03
  0.735000014       1.97535381E-03
  0.737500012       1.97580154E-03
  0.740000010       1.97626255E-03
  0.742500007       1.97662367E-03
  0.745000005       1.97691820E-03
  0.747500002       1.97720691E-03
  0.750000000       1.97743461E-03
  0.752499998       1.97761692E-03
  0.754999995       1.97780668E-03
  0.757499993       1.97790051E-03
  0.759999990       1.97785976E-03
  0.762499988       1.97786139E-03
  0.764999986       1.97794684E-03
  0.767499983       1.97793823E-03
  0.769999981       1.97783601E-03
  0.772499979       1.97779248E-03
  0.774999976       1.97777129E-03
  0.777499974       1.97767327E-03
  0.779999971       1.97757501E-03
  0.782500029       1.97754405E-03
  0.785000026       1.97753543E-03
  0.787500024       1.97753543E-03
  0.790000021       1.97753543E-03
  0.792500019       1.97750144E-03
  0.795000017       1.97749981E-03
  0.797500014       1.97758363E-03
  0.800000012       1.97764509E-03
  0.802500010       1.97766256E-03
  0.805000007       1.97776523E-03
  0.807500005       1.97789702E-03
  0.810000002       1.97792216E-03
  0.812500000       1.97799876E-03
  0.814999998       1.97824812E-03
  0.817499995       1.97841018E-03
  0.819999993       1.97836920E-03
  0.822499990       1.97840831E-03
  0.824999988       1.97861204E-03
  0.827499986       1.97877060E-03
  0.829999983       1.97889586E-03
  0.832499981       1.97908352E-03
  0.834999979       1.97917083E-03
  0.837499976       1.97913940E-03
  0.839999974       1.97925349E-03
  0.842499971       1.97949610E-03
  0.845000029       1.97961158E-03
  0.847500026       1.97965349E-03
  0.850000024       1.97976013E-03
  0.852500021       1.97981019E-03
  0.855000019       1.97981577E-03
  0.857500017       1.97997014E-03
  0.860000014       1.98012963E-03
  0.862500012       1.98006816E-03
  0.865000010       1.98000297E-03
  0.867500007       1.98012218E-03
  0.870000005       1.98018132E-03
  0.872500002       1.98010635E-03
  0.875000000       1.98015152E-03
  0.877499998       1.98024977E-03
  0.879999995       1.98014872E-03
  0.882499993       1.98001508E-03
  0.884999990       1.98006909E-03
  0.887499988       1.98011589E-03
  0.889999986       1.98002066E-03
  0.892499983       1.97995431E-03
  0.894999981       1.97993265E-03
  0.897499979       1.97983650E-03
  0.899999976       1.97975291E-03
  0.902499974       1.97973778E-03
  0.904999971       1.97965559E-03
  0.907500029       1.97953382E-03
  0.910000026       1.97949912E-03
  0.912500024       1.97943137E-03
  0.915000021       1.97924674E-03
  0.917500019       1.97913218E-03
  0.920000017       1.97910285E-03
  0.922500014       1.97896222E-03
  0.925000012       1.97879551E-03
  0.927500010       1.97878224E-03
  0.930000007       1.97873916E-03
  0.932500005       1.97850470E-03
  0.935000002       1.97829073E-03
  0.937500000       1.97821413E-03
  0.939999998       1.97812356E-03
  0.942499995       1.97801180E-03
  0.944999993       1.97795406E-03
  0.947499990       1.97782507E-03
  0.949999988       1.97758339E-03
  0.952499986       1.97740644E-03
  0.954999983       1.97732006E-03
  0.957499981       1.97720528E-03
  0.959999979       1.97708653E-03
  0.962499976       1.97695894E-03
  0.964999974       1.97671005E-03
  0.967499971       1.97645416E-03
  0.970000029       1.97638897E-03
  0.972500026       1.97635731E-03
  0.975000024       1.97613705E-03
  0.977500021       1.97585672E-03
  0.980000019       1.97566673E-03
  0.982500017       1.97549351E-03
  0.985000014       1.97532400E-03
  0.987500012       1.97519641E-03
  0.990000010       1.97500084E-03
  0.992500007       1.97471655E-03
  0.995000005       1.97448651E-03
  0.997500002       1.97429000E-03
   1.00000000       1.97403529E-03
   1.00250006       1.97382248E-03
   1.00500000       1.97365019E-03
   1.00750005       1.97333633E-03
   1.00999999       1.97298243E-03
   1.01250005       1.97281502E-03
   1.01499999       1.97266042E-03
   1.01750004       1.97232841E-03
   1.01999998       1.97204319E-03
   1.02250004       1.97188184E-03
   1.02499998       1.97159057E-03
   1.02750003       1.97125925E-03
   1.02999997       1.97116937E-03
   1.03250003       1.97110232E-03
   1.03499997       1.97078707E-03
   1.03750002       1.97049486E-03
   1.03999996       1.97040988E-03
   1.04250002       1.97029114E-03
   1.04499996       1.97011651E-03
   1.04750001       1.97006483E-03
   1.04999995       1.96996937E-03
   1.05250001       1.96970627E-03
   1.05499995       1.96955912E-03
   1.05750000       1.96959917E-03
   1.05999994       1.96954422E-03
   1.06250000       1.96940592E-03
   1.06500006       1.96935190E-03
   1.06750000       1.96924200E-03
   1.07000005       1.96904503E-03
   1.07249999       1.96900172E-03
   1.07500005       1.96902617E-03
   1.07749999       1.96886226E-03
   1.08000004       1.96868624E-03
   1.08249998       1.96868135E-03
   1.08500004       1.96860847E-03
   1.08749998       1.96841685E-03
   1.09000003       1.96835701E-03
   1.09249997       1.96832884E-03
   1.09500003       1.96812092E-03
   1.09749997       1.96796213E-03
   1.10000002       1.96798122E-03
   1.10249996       1.96789135E-03
   1.10500002       1.96768157E-03
   1.10749996       1.96761941E-03
   1.11000001       1.96758425E-03
   1.11249995       1.96739915E-03
   1.11500001       1.96729857E-03
   1.11749995       1.96732651E-03
   1.12000000       1.96718168E-03
   1.12249994       1.96695025E-03
   1.12500000       1.96693349E-03
   1.12750006       1.96696050E-03
   1.13000000       1.96682243E-03
   1.13250005       1.96673418E-03
   1.13499999       1.96675258E-03
   1.13750005       1.96665502E-03
   1.13999999       1.96652766E-03
   1.14250004       1.96654652E-03
   1.14499998       1.96653651E-03
   1.14750004       1.96642848E-03
   1.14999998       1.96641916E-03
   1.15250003       1.96644152E-03
   1.15499997       1.96634745E-03
   1.15750003       1.96632859E-03
   1.15999997       1.96641823E-03
   1.16250002       1.96632836E-03
   1.16499996       1.96616026E-03
   1.16750002       1.96622708E-03
   1.16999996       1.96631462E-03
   1.17250001       1.96618703E-03
   1.17499995       1.96614279E-03
   1.17750001       1.96626433E-03
   1.17999995       1.96619355E-03
   1.18250000       1.96599844E-03
   1.18499994       1.96601800E-03
   1.18750000       1.96607714E-03
   1.19000006       1.96596328E-03
   1.19250000       1.96592952E-03
   1.19500005       1.96600868E-03
   1.19749999       1.96591555E-03
   1.20000005       1.96577562E-03
   1.20249999       1.96581730E-03
   1.20500004       1.96579890E-03
   1.20749998       1.96563080E-03
   1.21000004       1.96562381E-03
   1.21249998       1.96570507E-03
   1.21500003       1.96558400E-03
   1.21749997       1.96548947E-03
   1.22000003       1.96559564E-03
   1.22249997       1.96554838E-03
   1.22500002       1.96535373E-03
   1.22749996       1.96543452E-03
   1.23000002       1.96560379E-03
   1.23249996       1.96546386E-03
   1.23500001       1.96536002E-03
   1.23749995       1.96557888E-03
   1.24000001       1.96566968E-03
   1.24249995       1.96550367E-03
   1.24500000       1.96555303E-03
   1.24749994       1.96576910E-03
   1.25000000       1.96575397E-03
   1.25250006       1.96571741E-03
   1.25500000       1.96590880E-03
   1.25750005       1.96598819E-03
   1.25999999       1.96586968E-03
   1.26250005       1.96594303E-03
   1.26499999       1.96615793E-03
   1.26750004       1.96618587E-03
   1.26999998       1.96616794E-03
   1.27250004       1.96625548E-03
   1.27499998       1.96623593E-03
   1.27750003       1.96617213E-03
   1.27999997       1.96632161E-03
   1.28250003       1.96645572E-03
   1.28499997       1.96634675E-03
   1.28750002       1.96630764E-03
   1.28999996       1.96644571E-03
   1.29250002       1.96642452E-03
   1.29499996       1.96631555E-03
   1.29750001       1.96643034E-03
   1.29999995       1.96652138E-03
   1.30250001       1.96635583E-03
   1.30499995       1.96632254E-03
   1.30750000       1.96655001E-03
   1.30999994       1.96657586E-03
   1.31250000       1.96637772E-03
   1.31500006       1.96640077E-03
   1.31750000       1.96656818E-03
   1.32000005       1.96653185E-03
   1.32249999       1.96644873E-03
   1.32500005       1.96653698E-03
   1.32749999       1.96660939E-03
   1.33000004       1.96659938E-03
   1.33249998       1.96668296E-03
   1.33500004       1.96678564E-03
   1.33749998       1.96676143E-03
   1.34000003       1.96675351E-03
   1.34249997       1.96684850E-03
   1.34500003       1.96692161E-03
   1.34749997       1.96699565E-03
   1.35000002       1.96714699E-03
   1.35249996       1.96722755E-03
   1.35500002       1.96720380E-03
   1.35749996       1.96729181E-03
   1.36000001       1.96747622E-03
   1.36249995       1.96753629E-03
   1.36500001       1.96755165E-03
   1.36749995       1.96771068E-03
   1.37000000       1.96787901E-03
   1.37249994       1.96791510E-03
   1.37500000       1.96796563E-03
   1.37750006       1.96811836E-03
   1.38000000       1.96825038E-03
   1.38250005       1.96832605E-03
   1.38499999       1.96842081E-03
   1.38750005       1.96854607E-03
   1.38999999       1.96868670E-03
   1.39250004       1.96881848E-03
   1.39499998       1.96888787E-03
   1.39750004       1.96895818E-03
   1.39999998       1.96913560E-03
   1.40250003       1.96931208E-03
   1.40499997       1.96935819E-03
   1.40750003       1.96942058E-03
   1.40999997       1.96959148E-03
   1.41250002       1.96969206E-03
   1.41499996       1.96970976E-03
   1.41750002       1.96984713E-03
   1.41999996       1.97003433E-03
   1.42250001       1.97008182E-03
   1.42499995       1.97013305E-03
   1.42750001       1.97031931E-03
   1.42999995       1.97044294E-03
   1.43250000       1.97045202E-03
   1.43499994       1.97055307E-03
   1.43750000       1.97071978E-03
   1.44000006       1.97080569E-03
   1.44250000       1.97092257E-03
   1.44500005       1.97111256E-03
   1.44749999       1.97119429E-03
   1.45000005       1.97124248E-03
   1.45249999       1.97145226E-03
   1.45500004       1.97163969E-03
   1.45749998       1.97166554E-03
   1.46000004       1.97180361E-03
   1.46249998       1.97207765E-03
   1.46500003       1.97215751E-03
   1.46749997       1.97216519E-03
   1.47000003       1.97243411E-03
   1.47249997       1.97269372E-03
   1.47500002       1.97266019E-03
   1.47749996       1.97271188E-03
   1.48000002       1.97302829E-03
   1.48249996       1.97319663E-03
   1.48500001       1.97319104E-03
   1.48749995       1.97338383E-03
   1.49000001       1.97361130E-03
   1.49249995       1.97358616E-03
   1.49500000       1.97363133E-03
   1.49749994       1.97393261E-03
   1.50000000       1.97410351E-03
   1.50250006       1.97409140E-03
   1.50500000       1.97423133E-03
   1.50750005       1.97439897E-03
   1.50999999       1.97438267E-03
   1.51250005       1.97447557E-03
   1.51499999       1.97474775E-03
   1.51750004       1.97480852E-03
   1.51999998       1.97473844E-03
   1.52250004       1.97492773E-03
   1.52499998       1.97514938E-03
   1.52750003       1.97510188E-03
   1.52999997       1.97512261E-03
   1.53250003       1.97535846E-03
   1.53499997       1.97542063E-03
   1.53750002       1.97534775E-03
   1.53999996       1.97551213E-03
   1.54250002       1.97570072E-03
   1.54499996       1.97563437E-03
   1.54750001       1.97566370E-03
   1.54999995       1.97593356E-03
   1.55250001       1.97602133E-03
   1.55499995       1.97593239E-03
   1.55750000       1.97607907E-03
   1.55999994       1.97631144E-03
   1.56250000       1.97631004E-03
   1.56500006       1.97633822E-03
   1.56750000       1.97657733E-03
   1.57000005       1.97670050E-03
   1.57249999       1.97668257E-03
   1.57500005       1.97685626E-03
   1.57749999       1.97710725E-03
   1.58000004       1.97715452E-03
   1.58249998       1.97720807E-03
   1.58500004       1.97744789E-03
   1.58749998       1.97761320E-03
   1.59000003       1.97763555E-03
   1.59249997       1.97777548E-03
   1.59500003       1.97800994E-03
   1.59749997       1.97813194E-03
   1.60000002       1.97822461E-03
   1.60249996       1.97839271E-03
   1.60500002       1.97850983E-03
   1.60749996       1.97856105E-03
   1.61000001       1.97867653E-03
   1.61249995       1.97881530E-03
   1.61500001       1.97890680E-03
   1.61749995       1.97904068E-03
   1.62000000       1.97919365E-03
   1.62249994       1.97922019E-03
   1.62500000       1.97921158E-03
   1.62750006       1.97934033E-03
   1.63000000       1.97947887E-03
   1.63250005       1.97948515E-03
   1.63499999       1.97952986E-03
   1.63750005       1.97971612E-03
   1.63999999       1.97983324E-03
   1.64250004       1.97980227E-03
   1.64499998       1.97984185E-03
   1.64750004       1.98000879E-03
   1.64999998       1.98011356E-03
   1.65250003       1.98014430E-03
   1.65499997       1.98025070E-03
   1.65750003       1.98037573E-03
   1.65999997       1.98040088E-03
   1.66250002       1.98045583E-03
   1.66499996       1.98064558E-03
   1.66750002       1.98078784E-03
   1.66999996       1.98078644E-03
   1.67250001       1.98083674E-03
   1.67499995       1.98100205E-03
   1.67750001       1.98110356E-03
   1.67999995       1.98113895E-03
   1.68250000       1.98125164E-03
   1.68499994       1.98136759E-03
   1.68750000       1.98139320E-03
   1.69000006       1.98147655E-03
   1.69250000       1.98164792E-03
   1.69500005       1.98169705E-03
   1.69749999       1.98165397E-03
   1.70000005       1.98175595E-03
   1.70249999       1.98192964E-03
   1.70500004       1.98197388E-03
   1.70749998       1.98200555E-03
   1.71000004       1.98214129E-03
   1.71249998       1.98223186E-03
   1.71500003       1.98226282E-03
   1.71749997       1.98238087E-03
   1.72000003       1.98249309E-03
   1.72249997       1.98248914E-03
   1.72500002       1.98255549E-03
   1.72749996       1.98273617E-03
   1.73000002       1.98278693E-03
   1.73249996       1.98275945E-03
   1.73500001       1.98291009E-03
   1.73749995       1.98309938E-03
   1.74000001       1.98310730E-03
   1.74249995       1.98312965E-03
   1.74500000       1.98327890E-03
   1.74749994       1.98330847E-03
   1.75000000       1.98324863E-03
   1.75250006       1.98340486E-03
   1.75500000       1.98364863E-03
   1.75750005       1.98365026E-03
   1.75999999       1.98355131E-03
   1.76250005       1.98362139E-03
   1.76499999       1.98375038E-03
   1.76750004       1.98381557E-03
   1.76999998       1.98391057E-03
   1.77250004       1.98400090E-03
   1.77499998       1.98397855E-03
   1.77750003       1.98396272E-03
   1.77999997       1.98407262E-03
   1.78250003       1.98420300E-03
   1.78499997       1.98427564E-03
   1.78750002       1.98432873E-03
   1.78999996       1.98434549E-03
   1.79250002       1.98434643E-03
   1.79499996       1.98443537E-03
   1.79750001       1.98457018E-03
   1.79999995       1.98462047E-03
   1.80250001       1.98463793E-03
   1.80499995       1.98471034E-03
   1.80750000       1.98475621E-03
   1.80999994       1.98475225E-03
   1.81250000       1.98483118E-03
   1.81500006       1.98498438E-03
   1.81750000       1.98504352E-03
   1.82000005       1.98500068E-03
   1.82249999       1.98499905E-03
   1.82500005       1.98507356E-03
   1.82749999       1.98514760E-03
   1.83000004       1.98518834E-03
   1.83249998       1.98522629E-03
   1.83500004       1.98527821E-03
   1.83749998       1.98531430E-03
   1.84000003       1.98531826E-03
   1.84249997       1.98534271E-03
   1.84500003       1.98541651E-03
   1.84749997       1.98547123E-03
   1.85000002       1.98546983E-03
   1.85249996       1.98548660E-03
   1.85500002       1.98554946E-03
   1.85749996       1.98560534E-03
   1.86000001       1.98565098E-03
   1.86249995       1.98569940E-03
   1.86500001       1.98571081E-03
   1.86749995       1.98570872E-03
   1.87000000       1.98576134E-03
   1.87249994       1.98582513E-03
   1.87500000       1.98585261E-03
   1.87750006       1.98591081E-03
   1.88000000       1.98597228E-03
   1.88250005       1.98592595E-03
   1.88499999       1.98588497E-03
   1.88750005       1.98600371E-03
   1.88999999       1.98611477E-03
   1.89250004       1.98605657E-03
   1.89499998       1.98600627E-03
   1.89750004       1.98606541E-03
   1.89999998       1.98608125E-03
   1.90250003       1.98607915E-03
   1.90499997       1.98618742E-03
   1.90750003       1.98624050E-03
   1.90999997       1.98611571E-03
   1.91250002       1.98606867E-03
   1.91499996       1.98621908E-03
   1.91750002       1.98632292E-03
   1.91999996       1.98629918E-03
   1.92250001       1.98628474E-03
   1.92499995       1.98626216E-03
   1.92750001       1.98622653E-03
   1.92999995       1.98632316E-03
   1.93250000       1.98646728E-03
   1.93499994       1.98643655E-03
   1.93750000       1.98634621E-03
   1.94000006       1.98637927E-03
   1.94250000       1.98640302E-03
   1.94500005       1.98637578E-03
   1.94749999       1.98646821E-03
   1.95000005       1.98656484E-03
   1.95249999       1.98645983E-03
   1.95500004       1.98637089E-03
   1.95749998       1.98647287E-03
   1.96000004       1.98651012E-03
   1.96249998       1.98642723E-03
   1.96500003       1.98649615E-03
   1.96749997       1.98661117E-03
   1.97000003       1.98649615E-03
   1.97249997       1.98638625E-03
   1.97500002       1.98652199E-03
   1.97749996       1.98660512E-03
   1.98000002       1.98648544E-03