 -0.159999996       0.00000000    
 -0.157499999       0.00000000    
 -0.155000001       0.00000000    
 -0.152500004       0.00000000    
 -0.150000006       0.00000000    
 -0.147499993       0.00000000    
 -0.144999996       7.12014572E-18
 -0.142499998      -1.34179521E-16
 -0.140000001       1.40752068E-15
 -0.137500003      -5.37101220E-15
 -0.135000005       1.44355378E-15
 -0.132499993       4.09977635E-14
 -0.129999995      -7.05306581E-14
 -0.127499998      -1.36863191E-13
 -0.125000000       4.49540199E-13
 -0.122500002       1.89280178E-13
 -0.119999997      -1.79906632E-12
 -0.117500000       5.03408838E-13
 -0.115000002       5.69088136E-12
 -0.112499997      -4.20828259E-12
 -0.109999999      -1.59339850E-11
 -0.107500002       1.57103011E-11
 -0.104999997       4.16305983E-11
 -0.102499999      -4.07539419E-11
 -0.100000001      -1.01083725E-10
  -9.74999964E-02   7.80680867E-11
  -9.49999988E-02   2.20263502E-10
  -9.25000012E-02  -1.06332859E-10
  -9.00000036E-02  -4.16839452E-10
  -8.74999985E-02   8.10709555E-11
  -8.50000009E-02   6.75452305E-10
  -8.25000033E-02   4.19773660E-11
  -7.99999982E-02  -9.45808876E-10
  -7.75000006E-02  -2.77143253E-10
  -7.50000030E-02   1.17960719E-09
  -7.24999979E-02   6.26977803E-10
  -7.00000003E-02  -1.34314915E-09
  -6.75000027E-02  -1.12804488E-09
  -6.49999976E-02   1.33948486E-09
  -6.25000000E-02   1.77929493E-09
  -5.99999987E-02  -9.79675341E-10
  -5.75000010E-02  -2.35043318E-09
  -5.49999997E-02   2.38477016E-10
  -5.24999984E-02   2.45370479E-09
  -5.00000007E-02   4.53201698E-10
  -4.74999994E-02  -2.07140616E-09
  -4.50000018E-02  -5.46367618E-10
  -4.25000004E-02   1.77919324E-09
  -3.99999991E-02   1.00490061E-10
  -3.75000015E-02  -2.00933314E-09
  -3.50000001E-02   4.23923563E-10
  -3.24999988E-02   2.54662469E-09
  -2.99999993E-02  -1.11691345E-09
  -2.74999999E-02  -3.42897266E-09
  -2.50000004E-02   2.23078267E-09
  -2.25000009E-02   5.32765920E-09
  -1.99999996E-02  -3.07215919E-09
  -1.75000001E-02  -8.08978395E-09
  -1.49999997E-02   3.19494653E-09
  -1.25000002E-02   1.10304708E-08
  -9.99999978E-03  -3.48429818E-09
  -7.49999983E-03  -1.54677711E-08
  -4.99999989E-03   2.94540925E-09
  -2.49999994E-03   2.26820003E-08
   0.00000000       2.52947352E-09
   2.49999994E-03  -2.89051840E-08
   4.99999989E-03  -1.38782212E-08
   7.49999983E-03   2.83576984E-08
   9.99999978E-03   2.56636365E-08
   1.25000002E-02  -2.09834887E-08
   1.49999997E-02  -3.25519167E-08
   1.75000001E-02   1.27612534E-08
   1.99999996E-02   3.75970686E-08
   2.25000009E-02  -3.23725047E-09
   2.50000004E-02  -4.22774455E-08
   2.74999999E-02  -1.49508246E-08
   2.99999993E-02   2.58670809E-08
   3.24999988E-02   2.48084930E-09
   3.50000001E-02  -4.74289621E-08
   3.75000015E-02  -3.94549389E-08
   3.99999991E-02   4.24105195E-10
   4.25000004E-02  -1.76798967E-08
   4.50000018E-02  -8.27777598E-08
   4.74999994E-02  -1.09000354E-07
   5.00000007E-02  -9.48157961E-08
   5.24999984E-02  -1.14534302E-07
   5.49999997E-02  -1.84021999E-07
   5.75000010E-02  -2.62592664E-07
   5.99999987E-02  -3.44552831E-07
   6.25000000E-02  -4.45415907E-07
   6.49999976E-02  -5.60917726E-07
   6.75000027E-02  -7.13557540E-07
   7.00000003E-02  -9.53798349E-07
   7.24999979E-02  -1.27428723E-06
   7.50000030E-02  -1.62895697E-06
   7.75000006E-02  -2.04537400E-06
   7.99999982E-02  -2.60007073E-06
   8.25000033E-02  -3.30547414E-06
   8.50000009E-02  -4.14440046E-06
   8.74999985E-02  -5.17288754E-06
   9.00000036E-02  -6.47315574E-06
   9.25000012E-02  -8.05840136E-06
   9.49999988E-02  -9.92454443E-06
   9.74999964E-02  -1.21493076E-05
  0.100000001      -1.48624349E-05
  0.102499999      -1.81421965E-05
  0.104999997      -2.19965623E-05
  0.107500002      -2.64622176E-05
  0.109999999      -3.16875048E-05
  0.112499997      -3.78532968E-05
  0.115000002      -4.50363768E-05
  0.117500000      -5.32657541E-05
  0.119999997      -6.26828041E-05
  0.122500002      -7.34843561E-05
  0.125000000      -8.57602499E-05
  0.127499998      -9.95777009E-05
  0.129999995      -1.15134535E-04
  0.132499993      -1.32625675E-04
  0.135000005      -1.52089779E-04
  0.137500003      -1.73568755E-04
  0.140000001      -1.97243120E-04
  0.142499998      -2.23270443E-04
  0.144999996      -2.51691003E-04
  0.147499993      -2.82559835E-04
  0.150000006      -3.15963058E-04
  0.152500004      -3.51910858E-04
  0.155000001      -3.90394009E-04
  0.157499999      -4.31459513E-04
  0.159999996      -4.75106644E-04
  0.162499994      -5.21255657E-04
  0.165000007      -5.69866272E-04
  0.167500004      -6.20902167E-04
  0.170000002      -6.74220733E-04
  0.172499999      -7.29674706E-04
  0.174999997      -7.87211466E-04
  0.177499995      -8.46736890E-04
  0.180000007      -9.08053829E-04
  0.182500005      -9.71012108E-04
  0.185000002      -1.03553734E-03
  0.187500000      -1.10149581E-03
  0.189999998      -1.16869051E-03
  0.192499995      -1.23695855E-03
  0.194999993      -1.30619598E-03
  0.197500005      -1.37635611E-03
  0.200000003      -1.44738995E-03
  0.202500001      -1.51912053E-03
  0.204999998      -1.59131631E-03
  0.207499996      -1.66392489E-03
  0.209999993      -1.73699588E-03
  0.212500006      -1.81041216E-03
  0.215000004      -1.88398897E-03
  0.217500001      -1.95767195E-03
  0.219999999      -2.03135377E-03
  0.222499996      -2.10475409E-03
  0.224999994      -2.17771181E-03
  0.227500007      -2.25019734E-03
  0.230000004      -2.32195202E-03
  0.232500002      -2.39251694E-03
  0.234999999      -2.46157218E-03
  0.237499997      -2.52885022E-03
  0.239999995      -2.59384979E-03
  0.242500007      -2.65599322E-03
  0.245000005      -2.71480461E-03
  0.247500002      -2.76969979E-03
  0.250000000      -2.81991181E-03
  0.252499998      -2.86469562E-03
  0.254999995      -2.90331617E-03
  0.257499993      -2.93495692E-03
  0.259999990      -2.95880437E-03
  0.262499988      -2.97404104E-03
  0.264999986      -2.97973724E-03
  0.267500013      -2.97503057E-03
  0.270000011      -2.95924908E-03
  0.272500008      -2.93168169E-03
  0.275000006      -2.89159035E-03
  0.277500004      -2.83847237E-03
  0.280000001      -2.77198292E-03
  0.282499999      -2.69174250E-03
  0.284999996      -2.59756856E-03
  0.287499994      -2.48966692E-03
  0.289999992      -2.36834842E-03
  0.292499989      -2.23394996E-03
  0.294999987      -2.08710227E-03
  0.297500014      -1.92872947E-03
  0.300000012      -1.75986765E-03
  0.302500010      -1.58176245E-03
  0.305000007      -1.39590364E-03
  0.307500005      -1.20382500E-03
  0.310000002      -1.00713351E-03
  0.312500000      -8.07689037E-04
  0.314999998      -6.07438502E-04
  0.317499995      -4.08209133E-04
  0.319999993      -2.11870618E-04
  0.322499990      -2.03636846E-05
  0.324999988       1.64550889E-04
  0.327499986       3.41317442E-04
  0.330000013       5.08385361E-04
  0.332500011       6.64328632E-04
  0.335000008       8.08032346E-04
  0.337500006       9.38595796E-04
  0.340000004       1.05526205E-03
  0.342500001       1.15752150E-03
  0.344999999       1.24515826E-03
  0.347499996       1.31818000E-03
  0.349999994       1.37678930E-03
  0.352499992       1.42135739E-03
  0.354999989       1.45243946E-03
  0.357499987       1.47082540E-03
  0.360000014       1.47746655E-03
  0.362500012       1.47331366E-03
  0.365000010       1.45935535E-03
  0.367500007       1.43678673E-03
  0.370000005       1.40687753E-03
  0.372500002       1.37071509E-03
  0.375000000       1.32932980E-03
  0.377499998       1.28389709E-03
  0.379999995       1.23554887E-03
  0.382499993       1.18517457E-03
  0.384999990       1.13360514E-03
  0.387499988       1.08170055E-03
  0.389999986       1.03013054E-03
  0.392500013       9.79385222E-04
  0.395000011       9.29991016E-04
  0.397500008       8.82419932E-04
  0.400000006       8.36913474E-04
  0.402500004       7.93641258E-04
  0.405000001       7.52791995E-04
  0.407499999       7.14397000E-04
  0.409999996       6.78385259E-04
  0.412499994       6.44784363E-04
  0.414999992       6.13580632E-04
  0.417499989       5.84564696E-04
  0.419999987       5.57528459E-04
  0.422500014       5.32378384E-04
  0.425000012       5.08988742E-04
  0.427500010       4.87170735E-04
  0.430000007       4.66749043E-04
  0.432500005       4.47536586E-04
  0.435000002       4.29359818E-04
  0.437500000       4.12120426E-04
  0.439999998       3.95701092E-04
  0.442499995       3.79942998E-04
  0.444999993       3.64794658E-04
  0.447499990       3.50246060E-04
  0.449999988       3.36145720E-04
  0.452499986       3.22337437E-04
  0.455000013       3.08860530E-04
  0.457500011       2.95786856E-04
  0.460000008       2.83034606E-04
  0.462500006       2.70501740E-04
  0.465000004       2.58222368E-04
  0.467500001       2.46249227E-04
  0.469999999       2.34549167E-04
  0.472499996       2.23085488E-04
  0.474999994       2.11870778E-04
  0.477499992       2.00911425E-04
  0.479999989       1.90182225E-04
  0.482499987       1.79678493E-04
  0.485000014       1.69448918E-04
  0.487500012       1.59491261E-04
  0.490000010       1.49711283E-04
  0.492500007       1.40102959E-04
  0.495000005       1.30766712E-04
  0.497500002       1.21696976E-04
  0.500000000       1.12807829E-04
  0.502499998       1.04108927E-04
  0.504999995       9.56309523E-05
  0.507499993       8.73384270E-05
  0.509999990       7.92410428E-05
  0.512499988       7.13806076E-05
  0.514999986       6.37301928E-05
  0.517499983       5.62778368E-05
  0.519999981       4.90456514E-05
  0.522499979       4.20054639E-05
  0.524999976       3.51531999E-05
  0.527499974       2.85598926E-05
  0.529999971       2.21927130E-05
  0.532500029       1.59484953E-05
  0.535000026       9.87856947E-06
  0.537500024       4.06601612E-06
  0.540000021      -1.56827593E-06
  0.542500019      -7.08398011E-06
  0.545000017      -1.24174858E-05
  0.547500014      -1.76019475E-05
  0.550000012      -2.27310757E-05
  0.552500010      -2.77431973E-05
  0.555000007      -3.25980873E-05
  0.557500005      -3.74142037E-05
  0.560000002      -4.22176017E-05
  0.562500000      -4.69171355E-05
  0.564999998      -5.15634638E-05
  0.567499995      -5.62633104E-05
  0.569999993      -6.09719136E-05
  0.572499990      -6.56362972E-05
  0.574999988      -7.03296173E-05
  0.577499986      -7.50962936E-05
  0.579999983      -7.98927649E-05
  0.582499981      -8.47042829E-05
  0.584999979      -8.95581543E-05
  0.587499976      -9.44801141E-05
  0.589999974      -9.94958464E-05
  0.592499971      -1.04587903E-04
  0.595000029      -1.09694862E-04
  0.597500026      -1.14817150E-04
  0.600000024      -1.20034369E-04
  0.602500021      -1.25366656E-04
  0.605000019      -1.30732704E-04
  0.607500017      -1.36088653E-04
  0.610000014      -1.41491473E-04
  0.612500012      -1.46953607E-04
  0.615000010      -1.52401757E-04
  0.617500007      -1.57822433E-04
  0.620000005      -1.63274934E-04
  0.622500002      -1.68730941E-04
  0.625000000      -1.74117100E-04
  0.627499998      -1.79450697E-04
  0.629999995      -1.84747623E-04
  0.632499993      -1.89947386E-04
  0.634999990      -1.95069384E-04
  0.637499988      -2.00163908E-04
  0.639999986      -2.05143529E-04
  0.642499983      -2.09939579E-04
  0.644999981      -2.14643849E-04
  0.647499979      -2.19297683E-04
  0.649999976      -2.23807016E-04
  0.652499974      -2.28135206E-04
  0.654999971      -2.32332663E-04
  0.657500029      -2.36428372E-04
  0.660000026      -2.40427369E-04
  0.662500024      -2.44306342E-04
  0.665000021      -2.48022174E-04
  0.667500019      -2.51607678E-04
  0.670000017      -2.55105289E-04
  0.672500014      -2.58463318E-04
  0.675000012      -2.61671026E-04
  0.677500010      -2.64824717E-04
  0.680000007      -2.67913158E-04
  0.682500005      -2.70835764E-04
  0.685000002      -2.73646001E-04
  0.687500000      -2.76413630E-04
  0.689999998      -2.79044238E-04
  0.692499995      -2.81526096E-04
  0.694999993      -2.83985108E-04
  0.697499990      -2.86392344E-04
  0.699999988      -2.88632524E-04
  0.702499986      -2.90756696E-04
  0.704999983      -2.92839482E-04
  0.707499981      -2.94842350E-04
  0.709999979      -2.96747225E-04
  0.712499976      -2.98571540E-04
  0.714999974      -3.00285144E-04
  0.717499971      -3.01904627E-04
  0.720000029      -3.03475972E-04
  0.722500026      -3.04948888E-04
  0.725000024      -3.06326052E-04
  0.727500021      -3.07697279E-04
  0.730000019      -3.08994931E-04
  0.732500017      -3.10111704E-04
  0.735000014      -3.11175565E-04
  0.737500012      -3.12301039E-04
  0.740000010      -3.13356897E-04
  0.742500007      -3.14263569E-04
  0.745000005      -3.15125915E-04
  0.747500002      -3.15984042E-04
  0.750000000      -3.16797610E-04
  0.752499998      -3.17566708E-04
  0.754999995      -3.18274077E-04
  0.757499993      -3.18921171E-04
  0.759999990      -3.19597370E-04
  0.762499988      -3.20281339E-04
  0.764999986      -3.20837979E-04
  0.767499983      -3.21318308E-04
  0.769999981      -3.21866304E-04
  0.772499979      -3.22406413E-04
  0.774999976      -3.22834938E-04
  0.777499974      -3.23250424E-04
  0.779999971      -3.23698216E-04
  0.782500029      -3.24082008E-04
  0.785000026      -3.24427179E-04
  0.787500024      -3.24807304E-04
  0.790000021      -3.25142202E-04
  0.792500019      -3.25399160E-04
  0.795000017      -3.25687084E-04
  0.797500014      -3.25984467E-04
  0.800000012      -3.26182315E-04
  0.802500010      -3.26366746E-04
  0.805000007      -3.26639216E-04
  0.807500005      -3.26879963E-04
  0.810000002      -3.27029382E-04
  0.812500000      -3.27228539E-04
  0.814999998      -3.27487098E-04
  0.817499995      -3.27667309E-04
  0.819999993      -3.27813526E-04
  0.822499990      -3.28036374E-04
  0.824999988      -3.28248105E-04
  0.827499986      -3.28398251E-04
  0.829999983      -3.28610447E-04
  0.832499981      -3.28870490E-04
  0.834999979      -3.29042989E-04
  0.837499976      -3.29203525E-04
  0.839999974      -3.29468370E-04
  0.842499971      -3.29708884E-04
  0.845000029      -3.29860923E-04
  0.847500026      -3.30075796E-04
  0.850000024      -3.30330862E-04
  0.852500021      -3.30480078E-04
  0.855000019      -3.30645184E-04
  0.857500017      -3.30943090E-04
  0.860000014      -3.31184419E-04
  0.862500012      -3.31312564E-04
  0.865000010      -3.31530609E-04
  0.867500007      -3.31792980E-04
  0.870000005      -3.31921678E-04
  0.872500002      -3.32055410E-04
  0.875000000      -3.32316791E-04
  0.877499998      -3.32519528E-04
  0.879999995      -3.32627969E-04
  0.882499993      -3.32830532E-04
  0.884999990      -3.33078991E-04
  0.887499988      -3.33228207E-04
  0.889999986      -3.33365839E-04
  0.892499983      -3.33538221E-04
  0.894999981      -3.33655102E-04
  0.897499979      -3.33787524E-04
  0.899999976      -3.34004144E-04
  0.902499974      -3.34165874E-04
  0.904999971      -3.34258453E-04
  0.907500029      -3.34424258E-04
  0.910000026      -3.34579992E-04
  0.912500024      -3.34612618E-04
  0.915000021      -3.34696495E-04
  0.917500019      -3.34887183E-04
  0.920000017      -3.34971613E-04
  0.922500014      -3.34971031E-04
  0.925000012      -3.35080666E-04
  0.927500010      -3.35200253E-04
  0.930000007      -3.35195742E-04
  0.932500005      -3.35231569E-04
  0.935000002      -3.35370598E-04
  0.937500000      -3.35427379E-04
  0.939999998      -3.35398712E-04
  0.942499995      -3.35437391E-04
  0.944999993      -3.35500779E-04
  0.947499990      -3.35510093E-04
  0.949999988      -3.35532153E-04
  0.952499986      -3.35566991E-04
  0.954999983      -3.35558492E-04
  0.957499981      -3.35575780E-04
  0.959999979      -3.35630059E-04
  0.962499976      -3.35596822E-04
  0.964999974      -3.35523364E-04
  0.967499971      -3.35559336E-04
  0.970000029      -3.35601537E-04
  0.972500026      -3.35518620E-04
  0.975000024      -3.35465214E-04
  0.977500021      -3.35528806E-04
  0.980000019      -3.35516816E-04
  0.982500017      -3.35388700E-04
  0.985000014      -3.35330958E-04
  0.987500012      -3.35322344E-04
  0.990000010      -3.35215591E-04
  0.992500007      -3.35096120E-04
  0.995000005      -3.35068034E-04
  0.997500002      -3.35024088E-04
   1.00000000      -3.34910932E-04
   1.00250006      -3.34814511E-04
   1.00500000      -3.34714277E-04
   1.00750005      -3.34561075E-04
   1.00999999      -3.34432611E-04
   1.01250005      -3.34343524E-04
   1.01499999      -3.34218290E-04
   1.01750004      -3.34100565E-04
   1.01999998      -3.34032957E-04
   1.02250004      -3.33909731E-04
   1.02499998      -3.33721808E-04
   1.02750003      -3.33596225E-04
   1.02999997      -3.33497475E-04
   1.03250003      -3.33328440E-04
   1.03499997      -3.33189499E-04
   1.03750002      -3.33128817E-04
   1.03999996      -3.32986587E-04
   1.04250002      -3.32759664E-04
   1.04499996      -3.32625932E-04
   1.04750001      -3.32545722E-04
   1.04999995      -3.32366792E-04
   1.05250001      -3.32168449E-04
   1.05499995      -3.32051772E-04
   1.05750000      -3.31904419E-04
   1.05999994      -3.31673858E-04
   1.06250000      -3.31486779E-04
   1.06500006      -3.31363757E-04
   1.06750000      -3.31195100E-04
   1.07000005      -3.30969255E-04
   1.07249999      -3.30750190E-04
   1.07500005      -3.30544164E-04
   1.07749999      -3.30339913E-04
   1.08000004      -3.30149865E-04
   1.08249998      -3.29965580E-04
   1.08500004      -3.29773902E-04
   1.08749998      -3.29576083E-04
   1.09000003      -3.29367962E-04
   1.09249997      -3.29159666E-04
   1.09500003      -3.28970287E-04
   1.09749997      -3.28769238E-04
   1.10000002      -3.28535825E-04
   1.10249996      -3.28341150E-04
   1.10500002      -3.28224880E-04
   1.10749996      -3.28087888E-04
   1.11000001      -3.27863905E-04
   1.11249995      -3.27649119E-04
   1.11500001      -3.27510788E-04
   1.11749995      -3.27366055E-04
   1.12000000      -3.27162066E-04
   1.12249994      -3.26966023E-04
   1.12500000      -3.26811540E-04
   1.12750006      -3.26656474E-04
   1.13000000      -3.26492969E-04
   1.13250005      -3.26340698E-04
   1.13499999      -3.26181442E-04
   1.13750005      -3.25994246E-04
   1.13999999      -3.25785426E-04
   1.14250004      -3.25577596E-04
   1.14499998      -3.25412024E-04
   1.14750004      -3.25286790E-04
   1.14999998      -3.25121247E-04
   1.15250003      -3.24893947E-04
   1.15499997      -3.24703433E-04
   1.15750003      -3.24572757E-04
   1.15999997      -3.24411434E-04
   1.16250002      -3.24223976E-04
   1.16499996      -3.24068562E-04
   1.16750002      -3.23891436E-04
   1.16999996      -3.23678018E-04
   1.17250001      -3.23539192E-04
   1.17499995      -3.23455024E-04
   1.17750001      -3.23286105E-04
   1.17999995      -3.23089713E-04
   1.18250000      -3.22993641E-04
   1.18499994      -3.22893844E-04
   1.18750000      -3.22692533E-04
   1.19000006      -3.22525128E-04
   1.19250000      -3.22450564E-04
   1.19500005      -3.22335225E-04
   1.19749999      -3.22166306E-04
   1.20000005      -3.22050531E-04
   1.20249999      -3.21959204E-04
   1.20500004      -3.21820262E-04
   1.20749998      -3.21678031E-04
   1.21000004      -3.21565778E-04
   1.21249998      -3.21463245E-04
   1.21500003      -3.21381493E-04
   1.21749997      -3.21293686E-04
   1.22000003      -3.21143860E-04
   1.22249997      -3.21010768E-04
   1.22500002      -3.20976571E-04
   1.22749996      -3.20910243E-04
   1.23000002      -3.20718362E-04
   1.23249996      -3.20563471E-04
   1.23500001      -3.20527877E-04
   1.23749995      -3.20450956E-04
   1.24000001      -3.20298859E-04
   1.24249995      -3.20209132E-04
   1.24500000      -3.20136984E-04
   1.24749994      -3.19965649E-04
   1.25000000      -3.19809420E-04
   1.25250006      -3.19766288E-04
   1.25500000      -3.19685932E-04
   1.25750005      -3.19501734E-04
   1.25999999      -3.19363666E-04
   1.26250005      -3.19293234E-04
   1.26499999      -3.19169718E-04
   1.26750004      -3.19021696E-04
   1.26999998      -3.18912411E-04
   1.27250004      -3.18777427E-04
   1.27499998      -3.18643550E-04
   1.27750003      -3.18608334E-04
   1.27999997      -3.18567181E-04
   1.28250003      -3.18419625E-04
   1.28499997      -3.18310165E-04
   1.28750002      -3.18282895E-04
   1.28999996      -3.18170671E-04
   1.29250002      -3.18031613E-04
   1.29499996      -3.18046514E-04
   1.29750001      -3.18056089E-04
   1.29999995      -3.17890372E-04
   1.30250001      -3.17773025E-04
   1.30499995      -3.17828963E-04
   1.30750000      -3.17822851E-04
   1.30999994      -3.17709928E-04
   1.31250000      -3.17689322E-04
   1.31500006      -3.17699159E-04
   1.31750000      -3.17587605E-04
   1.32000005      -3.17491562E-04
   1.32249999      -3.17504833E-04
   1.32500005      -3.17477185E-04
   1.32749999      -3.17392842E-04
   1.33000004      -3.17367172E-04
   1.33249998      -3.17345693E-04
   1.33500004      -3.17282625E-04
   1.33749998      -3.17282189E-04
   1.34000003      -3.17313650E-04
   1.34249997      -3.17250524E-04
   1.34500003      -3.17166763E-04
   1.34749997      -3.17168451E-04
   1.35000002      -3.17186699E-04
   1.35249996      -3.17188416E-04
   1.35500002      -3.17211117E-04
   1.35749996      -3.17197613E-04
   1.36000001      -3.17151862E-04
   1.36249995      -3.17204336E-04
   1.36500001      -3.17305239E-04
   1.36749995      -3.17292579E-04
   1.37000000      -3.17256345E-04
   1.37249994      -3.17336380E-04
   1.37500000      -3.17406870E-04
   1.37750006      -3.17389495E-04
   1.38000000      -3.17429105E-04
   1.38250005      -3.17509723E-04
   1.38499999      -3.17473168E-04
   1.38750005      -3.17422469E-04
   1.38999999      -3.17522121E-04
   1.39250004      -3.17630620E-04
   1.39499998      -3.17607104E-04
   1.39750004      -3.17570695E-04
   1.39999998      -3.17586004E-04
   1.40250003      -3.17583268E-04
   1.40499997      -3.17603728E-04
   1.40750003      -3.17671511E-04
   1.40999997      -3.17662634E-04
   1.41250002      -3.17601080E-04
   1.41499996      -3.17642873E-04
   1.41750002      -3.17713042E-04
   1.41999996      -3.17683211E-04
   1.42250001      -3.17685073E-04
   1.42499995      -3.17778846E-04
   1.42750001      -3.17790458E-04
   1.42999995      -3.17759928E-04
   1.43250000      -3.17878119E-04
   1.43499994      -3.17999045E-04
   1.43750000      -3.17944825E-04
   1.44000006      -3.17945960E-04
   1.44250000      -3.18142265E-04
   1.44500005      -3.18268139E-04
   1.44749999      -3.18243488E-04
   1.45000005      -3.18298815E-04
   1.45249999      -3.18429025E-04
   1.45500004      -3.18479724E-04
   1.45749998      -3.18533013E-04
   1.46000004      -3.18645383E-04
   1.46249998      -3.18697363E-04
   1.46500003      -3.18733742E-04
   1.46749997      -3.18863022E-04
   1.47000003      -3.18954000E-04
   1.47249997      -3.18958104E-04
   1.47500002      -3.19053186E-04
   1.47749996      -3.19191837E-04
   1.48000002      -3.19190614E-04
   1.48249996      -3.19200015E-04
   1.48500001      -3.19372455E-04
   1.48749995      -3.19488317E-04
   1.49000001      -3.19466839E-04
   1.49249995      -3.19549959E-04
   1.49500000      -3.19717103E-04
   1.49749994      -3.19748156E-04
   1.50000000      -3.19769257E-04
   1.50250006      -3.19950486E-04
   1.50500000      -3.20093764E-04
   1.50750005      -3.20091203E-04
   1.50999999      -3.20141291E-04
   1.51250005      -3.20262276E-04
   1.51499999      -3.20307561E-04
   1.51750004      -3.20366496E-04
   1.51999998      -3.20523774E-04
   1.52250004      -3.20610066E-04
   1.52499998      -3.20597755E-04
   1.52750003      -3.20665102E-04
   1.52999997      -3.20756022E-04
   1.53250003      -3.20716033E-04
   1.53499997      -3.20684252E-04
   1.53750002      -3.20783118E-04
   1.53999996      -3.20843479E-04
   1.54250002      -3.20802734E-04
   1.54499996      -3.20818479E-04
   1.54750001      -3.20874824E-04
   1.54999995      -3.20859341E-04
   1.55250001      -3.20860912E-04
   1.55499995      -3.20933264E-04
   1.55750000      -3.20951192E-04
   1.55999994      -3.20934429E-04
   1.56250000      -3.21005326E-04
   1.56500006      -3.21076746E-04
   1.56750000      -3.21076950E-04
   1.57000005      -3.21146566E-04
   1.57249999      -3.21278581E-04
   1.57500005      -3.21305706E-04
   1.57749999      -3.21316242E-04
   1.58000004      -3.21462780E-04
   1.58249998      -3.21584987E-04
   1.58500004      -3.21574887E-04
   1.58749998      -3.21627158E-04
   1.59000003      -3.21781408E-04
   1.59249997      -3.21859610E-04
   1.59500003      -3.21900850E-04
   1.59749997      -3.22023232E-04
   1.60000002      -3.22114647E-04
   1.60249996      -3.22123931E-04
   1.60500002      -3.22185108E-04
   1.60749996      -3.22275329E-04
   1.61000001      -3.22294363E-04
   1.61249995      -3.22340289E-04
   1.61500001      -3.22455948E-04
   1.61749995      -3.22505104E-04
   1.62000000      -3.22520034E-04
   1.62249994      -3.22622713E-04
   1.62500000      -3.22692998E-04
   1.62750006      -3.22648208E-04
   1.63000000      -3.22682317E-04
   1.63250005      -3.22833483E-04
   1.63499999      -3.22890468E-04
   1.63750005      -3.22878012E-04
   1.63999999      -3.22981010E-04
   1.64250004      -3.23105342E-04
   1.64499998      -3.23112094E-04
   1.64750004      -3.23135435E-04
   1.64999998      -3.23246699E-04
   1.65250003      -3.23307671E-04
   1.65499997      -3.23318003E-04
   1.65750003      -3.23387620E-04
   1.65999997      -3.23454733E-04
   1.66250002      -3.23461398E-04
   1.66499996      -3.23506189E-04
   1.66750002      -3.23580578E-04
   1.66999996      -3.23581044E-04
   1.67250001      -3.23589251E-04
   1.67499995      -3.23689310E-04
   1.67750001      -3.23739048E-04
   1.67999995      -3.23692220E-04
   1.68250000      -3.23713874E-04
   1.68499994      -3.23782704E-04
   1.68750000      -3.23747110E-04
   1.69000006      -3.23722139E-04
   1.69250000      -3.23837274E-04
   1.69500005      -3.23901651E-04
   1.69749999      -3.23827524E-04
   1.70000005      -3.23840475E-04
   1.70249999      -3.23961867E-04
   1.70500004      -3.23969987E-04
   1.70749998      -3.23912158E-04
   1.71000004      -3.23968416E-04
   1.71249998      -3.24036402E-04
   1.71500003      -3.24013323E-04
   1.71749997      -3.24022840E-04
   1.72000003      -3.24067252E-04
   1.72249997      -3.24037450E-04
   1.72500002      -3.24037683E-04
   1.72749996      -3.24150780E-04
   1.73000002      -3.24207911E-04
   1.73249996      -3.24156747E-04
   1.73500001      -3.24148597E-04
   1.73749995      -3.24169436E-04
   1.74000001      -3.24129913E-04
   1.74249995      -3.24120716E-04
   1.74500000      -3.24164255E-04
   1.74749994      -3.24130757E-04
   1.75000000      -3.24072229E-04
   1.75250006      -3.24119872E-04
   1.75500000      -3.24165041E-04
   1.75750005      -3.24099907E-04
   1.75999999      -3.24044377E-04
   1.76250005      -3.24062537E-04
   1.76499999      -3.24077380E-04
   1.76750004      -3.24086461E-04
   1.76999998      -3.24106193E-04
   1.77250004      -3.24081921E-04
   1.77499998      -3.24035558E-04
   1.77750003      -3.24028631E-04
   1.77999997      -3.24013963E-04
   1.78250003      -3.23978718E-04
   1.78499997      -3.24007066E-04
   1.78750002      -3.24061315E-04
   1.78999996      -3.24033172E-04
   1.79250002      -3.23985820E-04
   1.79499996      -3.24010703E-04
   1.79750001      -3.24023364E-04
   1.79999995      -3.23951506E-04
   1.80250001      -3.23877961E-04
   1.80499995      -3.23872722E-04
   1.80750000      -3.23897431E-04
   1.80999994      -3.23891378E-04
   1.81250000      -3.23838991E-04
   1.81500006      -3.23784101E-04
   1.81750000      -3.23765649E-04
   1.82000005      -3.23741231E-04
   1.82249999      -3.23677581E-04
   1.82500005      -3.23644228E-04
   1.82749999      -3.23672342E-04
   1.83000004      -3.23663320E-04
   1.83249998      -3.23578191E-04
   1.83500004      -3.23518849E-04
   1.83749998      -3.23529675E-04
   1.84000003      -3.23527638E-04
   1.84249997      -3.23472923E-04
   1.84500003      -3.23419954E-04
   1.84749997      -3.23394983E-04
   1.85000002      -3.23370303E-04
   1.85249996      -3.23341606E-04
   1.85500002      -3.23320593E-04
   1.85749996      -3.23293760E-04
   1.86000001      -3.23260203E-04
   1.86249995      -3.23239772E-04
   1.86500001      -3.23210843E-04
   1.86749995      -3.23144224E-04
   1.87000000      -3.23082408E-04
   1.87249994      -3.23048036E-04
   1.87500000      -3.22981476E-04
   1.87750006      -3.22900654E-04
   1.88000000      -3.22909036E-04
   1.88250005      -3.22960026E-04
   1.88499999      -3.22907872E-04
   1.88750005      -3.22786800E-04
   1.88999999      -3.22722917E-04
   1.89250004      -3.22689302E-04
   1.89499998      -3.22627631E-04
   1.89750004      -3.22588981E-04
   1.89999998      -3.22585402E-04
   1.90250003      -3.22555105E-04
   1.90499997      -3.22498905E-04
   1.90750003      -3.22449981E-04
   1.90999997      -3.22406879E-04
   1.91250002      -3.22377047E-04
   1.91499996      -3.22350126E-04
   1.91750002      -3.22287990E-04
   1.91999996      -3.22228181E-04
   1.92250001      -3.22211592E-04
   1.92499995      -3.22163571E-04
   1.92750001      -3.22066800E-04
   1.92999995      -3.22030479E-04
   1.93250000      -3.22039152E-04
   1.93499994      -3.21968109E-04
   1.93750000      -3.21856380E-04
   1.94000006      -3.21815372E-04
   1.94250000      -3.21809639E-04
   1.94500005      -3.21775035E-04
   1.94749999      -3.21713364E-04
   1.95000005      -3.21622385E-04
   1.95249999      -3.21539497E-04
   1.95500004      -3.21516505E-04
   1.95749998      -3.21487460E-04
   1.96000004      -3.21414438E-04
   1.96249998      -3.21400032E-04
   1.96500003      -3.21413216E-04
   1.96749997      -3.21298547E-04
   1.97000003      -3.21150001E-04
   1.97249997      -3.21150437E-04
   1.97500002      -3.21181898E-04
   1.97749996      -3.21110565E-04
   1.98000002      -3.21058906E-04