   0.00000000       0.00000000    
   2.49999994E-03   0.00000000    
   4.99999989E-03   0.00000000    
   7.49999983E-03   0.00000000    
   9.99999978E-03   0.00000000    
   1.25000002E-02  -2.88562949E-16
   1.49999997E-02  -1.28610010E-14
   1.75000001E-02   7.88135223E-14
   1.99999996E-02  -2.60854198E-14
   2.25000009E-02  -6.17018806E-13
   2.50000004E-02   6.88367115E-13
   2.74999999E-02   2.78643840E-12
   2.99999993E-02  -4.03560301E-12
   3.24999988E-02  -9.04881465E-12
   3.50000001E-02   1.58545954E-11
   3.75000015E-02   2.32915666E-11
   3.99999991E-02  -5.14093698E-11
   4.25000004E-02  -5.30370990E-11
   4.50000018E-02   1.47391419E-10
   4.74999994E-02   1.26523458E-10
   5.00000007E-02  -3.66352226E-10
   5.24999984E-02  -3.36066480E-10
   5.49999997E-02   7.46600337E-10
   5.75000010E-02   8.65042760E-10
   5.99999987E-02  -1.16620080E-09
   6.25000000E-02  -1.87038096E-09
   6.49999976E-02   1.25658617E-09
   6.75000027E-02   3.19774496E-09
   7.00000003E-02  -6.25103413E-10
   7.24999979E-02  -4.26427871E-09
   7.50000030E-02  -6.99007741E-10
   7.75000006E-02   4.47038273E-09
   7.99999982E-02   2.24955121E-09
   8.25000033E-02  -3.63268171E-09
   8.50000009E-02  -3.60242169E-09
   8.74999985E-02   1.69081127E-09
   9.00000036E-02   4.20098001E-09
   9.25000012E-02   1.33005407E-09
   9.49999988E-02  -2.63779931E-09
   9.74999964E-02  -3.71709286E-09
  0.100000001      -1.75929693E-09
  0.102499999       1.80356452E-09
  0.104999997       5.72910874E-09
  0.107500002       5.56450352E-09
  0.109999999      -3.80821996E-09
  0.112499997      -1.33111495E-08
  0.115000002      -4.49806281E-09
  0.117500000       1.50390740E-08
  0.119999997       1.28748541E-08
  0.122500002      -1.06057430E-08
  0.125000000      -1.54968198E-08
  0.127499998       4.91418861E-09
  0.129999995       1.24954891E-08
  0.132499993       8.51960308E-11
  0.135000005      -3.50307960E-09
  0.137500003      -2.43823206E-09
  0.140000001      -1.62537805E-08
  0.142499998      -1.82418418E-08
  0.144999996       1.62883413E-08
  0.147499993       4.74260737E-08
  0.150000006       3.61339012E-08
  0.152500004       1.06846931E-08
  0.155000001       1.55484372E-08
  0.157499999       5.55899149E-08
  0.159999996       1.03684513E-07
  0.162499994       1.23555921E-07
  0.165000007       1.19648419E-07
  0.167500004       1.60224118E-07
  0.170000002       2.71179374E-07
  0.172499999       3.77015851E-07
  0.174999997       4.60053428E-07
  0.177499995       6.28164571E-07
  0.180000007       9.00425334E-07
  0.182500005       1.15776754E-06
  0.185000002       1.41650446E-06
  0.187500000       1.85708848E-06
  0.189999998       2.52022278E-06
  0.192499995       3.29838281E-06
  0.194999993       4.21140840E-06
  0.197500005       5.37948426E-06
  0.200000003       6.84150200E-06
  0.202500001       8.65998118E-06
  0.204999998       1.09914463E-05
  0.207499996       1.38875921E-05
  0.209999993       1.73196859E-05
  0.212500006       2.14484044E-05
  0.215000004       2.65465296E-05
  0.217500001       3.27400921E-05
  0.219999999       4.01309771E-05
  0.222499996       4.89672602E-05
  0.224999994       5.94601406E-05
  0.227500007       7.17392977E-05
  0.230000004       8.61120279E-05
  0.232500002       1.03009988E-04
  0.234999999       1.22685931E-04
  0.237499997       1.45312384E-04
  0.239999995       1.71244144E-04
  0.242500007       2.00885552E-04
  0.245000005       2.34523293E-04
  0.247500002       2.72484991E-04
  0.250000000       3.15187965E-04
  0.252499998       3.62945342E-04
  0.254999995       4.15977818E-04
  0.257499993       4.74569504E-04
  0.259999990       5.39001427E-04
  0.262499988       6.09449693E-04
  0.264999986       6.86061452E-04
  0.267500013       7.68966158E-04
  0.270000011       8.58192216E-04
  0.272500008       9.53711220E-04
  0.275000006       1.05547265E-03
  0.277500004       1.16329361E-03
  0.280000001       1.27686572E-03
  0.282499999       1.39590108E-03
  0.284999996       1.52012403E-03
  0.287499994       1.64914608E-03
  0.289999992       1.78246642E-03
  0.292499989       1.91951299E-03
  0.294999987       2.05965596E-03
  0.297500014       2.20229011E-03
  0.300000012       2.34687212E-03
  0.302500010       2.49282760E-03
  0.305000007       2.63952045E-03
  0.307500005       2.78630736E-03
  0.310000002       2.93250848E-03
  0.312500000       3.07745603E-03
  0.314999998       3.22066876E-03
  0.317499995       3.36178183E-03
  0.319999993       3.50028975E-03
  0.322499990       3.63561977E-03
  0.324999988       3.76736675E-03
  0.327499986       3.89517471E-03
  0.330000013       4.01862198E-03
  0.332500011       4.13741823E-03
  0.335000008       4.25137673E-03
  0.337500006       4.36011842E-03
  0.340000004       4.46317857E-03
  0.342500001       4.56029782E-03
  0.344999999       4.65122936E-03
  0.347499996       4.73551964E-03
  0.349999994       4.81275655E-03
  0.352499992       4.88262810E-03
  0.354999989       4.94462810E-03
  0.357499987       4.99817450E-03
  0.360000014       5.04289707E-03
  0.362500012       5.07839955E-03
  0.365000010       5.10404864E-03
  0.367500007       5.11930697E-03
  0.370000005       5.12383599E-03
  0.372500002       5.11721894E-03
  0.375000000       5.09903952E-03
  0.377499998       5.06911939E-03
  0.379999995       5.02731558E-03
  0.382499993       4.97342972E-03
  0.384999990       4.90755541E-03
  0.387499988       4.83006192E-03
  0.389999986       4.74125007E-03
  0.392500013       4.64151567E-03
  0.395000011       4.53164289E-03
  0.397500008       4.41249600E-03
  0.400000006       4.28485870E-03
  0.402500004       4.14983602E-03
  0.405000001       4.00884356E-03
  0.407499999       3.86312441E-03
  0.409999996       3.71388812E-03
  0.412499994       3.56267882E-03
  0.414999992       3.41106113E-03
  0.417499989       3.26032634E-03
  0.419999987       3.11185303E-03
  0.422500014       2.96717905E-03
  0.425000012       2.82754819E-03
  0.427500010       2.69396394E-03
  0.430000007       2.56755669E-03
  0.432500005       2.44935416E-03
  0.435000002       2.33997125E-03
  0.437500000       2.23990087E-03
  0.439999998       2.14966387E-03
  0.442499995       2.06949515E-03
  0.444999993       1.99934724E-03
  0.447499990       1.93917728E-03
  0.449999988       1.88883930E-03
  0.452499986       1.84790627E-03
  0.455000013       1.81586808E-03
  0.457500011       1.79219863E-03
  0.460000008       1.77618722E-03
  0.462500006       1.76706456E-03
  0.465000004       1.76420249E-03
  0.467500001       1.76689401E-03
  0.469999999       1.77423120E-03
  0.472499996       1.78541976E-03
  0.474999994       1.79986563E-03
  0.477499992       1.81688590E-03
  0.479999989       1.83574064E-03
  0.482499987       1.85589865E-03
  0.485000014       1.87691743E-03
  0.487500012       1.89825729E-03
  0.490000010       1.91947632E-03
  0.492500007       1.94034004E-03
  0.495000005       1.96060794E-03
  0.497500002       1.98001345E-03
  0.500000000       1.99844362E-03
  0.502499998       2.01583933E-03
  0.504999995       2.03203643E-03
  0.507499993       2.04696925E-03
  0.509999990       2.06077565E-03
  0.512499988       2.07352196E-03
  0.514999986       2.08513928E-03
  0.517499983       2.09570746E-03
  0.519999981       2.10540602E-03
  0.522499979       2.11424520E-03
  0.524999976       2.12220894E-03
  0.527499974       2.12948956E-03
  0.529999971       2.13624188E-03
  0.532500029       2.14240374E-03
  0.535000026       2.14799866E-03
  0.537500024       2.15321546E-03
  0.540000021       2.15806579E-03
  0.542500019       2.16242950E-03
  0.545000017       2.16641556E-03
  0.547500014       2.17019347E-03
  0.550000012       2.17365916E-03
  0.552500010       2.17669317E-03
  0.555000007       2.17939680E-03
  0.557500005       2.18176609E-03
  0.560000002       2.18363083E-03
  0.562500000       2.18504854E-03
  0.564999998       2.18619662E-03
  0.567499995       2.18693540E-03
  0.569999993       2.18704133E-03
  0.572499990       2.18660338E-03
  0.574999988       2.18571653E-03
  0.577499986       2.18423666E-03
  0.579999983       2.18215189E-03
  0.582499981       2.17961147E-03
  0.584999979       2.17652158E-03
  0.587499976       2.17272690E-03
  0.589999974       2.16839439E-03
  0.592499971       2.16366514E-03
  0.595000029       2.15837825E-03
  0.597500026       2.15252140E-03
  0.600000024       2.14632601E-03
  0.602500021       2.13976786E-03
  0.605000019       2.13269098E-03
  0.607500017       2.12529697E-03
  0.610000014       2.11783592E-03
  0.612500012       2.11020093E-03
  0.615000010       2.10233894E-03
  0.617500007       2.09447462E-03
  0.620000005       2.08665780E-03
  0.622500002       2.07880558E-03
  0.625000000       2.07114918E-03
  0.627499998       2.06392305E-03
  0.629999995       2.05695885E-03
  0.632499993       2.05018232E-03
  0.634999990       2.04391521E-03
  0.637499988       2.03831494E-03
  0.639999986       2.03323388E-03
  0.642499983       2.02871836E-03
  0.644999981       2.02494441E-03
  0.647499979       2.02185591E-03
  0.649999976       2.01943796E-03
  0.652499974       2.01790873E-03
  0.654999971       2.01729615E-03
  0.657500029       2.01741001E-03
  0.660000026       2.01830128E-03
  0.662500024       2.02012248E-03
  0.665000021       2.02274835E-03
  0.667500019       2.02607294E-03
  0.670000017       2.03024130E-03
  0.672500014       2.03525252E-03
  0.675000012       2.04090867E-03
  0.677500010       2.04722025E-03
  0.680000007       2.05426896E-03
  0.682500005       2.06187507E-03
  0.685000002       2.06991937E-03
  0.687500000       2.07854039E-03
  0.689999998       2.08769646E-03
  0.692499995       2.09712912E-03
  0.694999993       2.10684212E-03
  0.697499990       2.11698678E-03
  0.699999988       2.12742155E-03
  0.702499986       2.13794108E-03
  0.704999983       2.14860169E-03
  0.707499981       2.15944368E-03
  0.709999979       2.17033946E-03
  0.712499976       2.18127086E-03
  0.714999974       2.19227513E-03
  0.717499971       2.20323191E-03
  0.720000029       2.21407996E-03
  0.722500026       2.22491589E-03
  0.725000024       2.23569199E-03
  0.727500021       2.24626530E-03
  0.730000019       2.25671660E-03
  0.732500017       2.26712739E-03
  0.735000014       2.27731629E-03
  0.737500012       2.28722021E-03
  0.740000010       2.29705614E-03
  0.742500007       2.30682036E-03
  0.745000005       2.31625233E-03
  0.747500002       2.32538674E-03
  0.750000000       2.33444828E-03
  0.752499998       2.34333985E-03
  0.754999995       2.35187868E-03
  0.757499993       2.36020051E-03
  0.759999990       2.36841338E-03
  0.762499988       2.37633707E-03
  0.764999986       2.38391571E-03
  0.767499983       2.39132438E-03
  0.769999981       2.39853910E-03
  0.772499979       2.40537897E-03
  0.774999976       2.41188495E-03
  0.777499974       2.41815438E-03
  0.779999971       2.42407690E-03
  0.782500029       2.42960849E-03
  0.785000026       2.43487325E-03
  0.787500024       2.43980205E-03
  0.790000021       2.44419114E-03
  0.792500019       2.44810455E-03
  0.795000017       2.45169690E-03
  0.797500014       2.45484314E-03
  0.800000012       2.45739380E-03
  0.802500010       2.45946227E-03
  0.805000007       2.46111001E-03
  0.807500005       2.46217521E-03
  0.810000002       2.46260944E-03
  0.812500000       2.46254588E-03
  0.814999998       2.46198336E-03
  0.817499995       2.46080803E-03
  0.819999993       2.45903782E-03
  0.822499990       2.45674932E-03
  0.824999988       2.45393510E-03
  0.827499986       2.45060562E-03
  0.829999983       2.44681770E-03
  0.832499981       2.44255573E-03
  0.834999979       2.43779691E-03
  0.837499976       2.43261200E-03
  0.839999974       2.42707669E-03
  0.842499971       2.42121960E-03
  0.845000029       2.41509755E-03
  0.847500026       2.40873988E-03
  0.850000024       2.40211608E-03
  0.852500021       2.39528972E-03
  0.855000019       2.38839979E-03
  0.857500017       2.38145026E-03
  0.860000014       2.37440830E-03
  0.862500012       2.36740126E-03
  0.865000010       2.36051367E-03
  0.867500007       2.35363841E-03
  0.870000005       2.34678364E-03
  0.872500002       2.34015705E-03
  0.875000000       2.33379612E-03
  0.877499998       2.32756510E-03
  0.879999995       2.32152175E-03
  0.882499993       2.31579575E-03
  0.884999990       2.31029838E-03
  0.887499988       2.30497867E-03
  0.889999986       2.30002170E-03
  0.892499983       2.29547801E-03
  0.894999981       2.29116855E-03
  0.897499979       2.28709285E-03
  0.899999976       2.28339387E-03
  0.902499974       2.28000176E-03
  0.904999971       2.27683154E-03
  0.907500029       2.27402966E-03
  0.910000026       2.27161380E-03
  0.912500024       2.26936326E-03
  0.915000021       2.26729340E-03
  0.917500019       2.26560445E-03
  0.920000017       2.26417999E-03
  0.922500014       2.26280652E-03
  0.925000012       2.26165610E-03
  0.927500010       2.26088264E-03
  0.930000007       2.26021023E-03
  0.932500005       2.25946400E-03
  0.935000002       2.25888635E-03
  0.937500000       2.25856202E-03
  0.939999998       2.25825119E-03
  0.942499995       2.25792406E-03
  0.944999993       2.25773524E-03
  0.947499990       2.25757621E-03
  0.949999988       2.25729565E-03
  0.952499986       2.25704350E-03
  0.954999983       2.25691521E-03
  0.957499981       2.25673127E-03
  0.959999979       2.25644140E-03
  0.962499976       2.25617061E-03
  0.964999974       2.25585792E-03
  0.967499971       2.25540507E-03
  0.970000029       2.25496129E-03
  0.972500026       2.25459109E-03
  0.975000024       2.25409493E-03
  0.977500021       2.25345395E-03
  0.980000019       2.25286302E-03
  0.982500017       2.25226837E-03
  0.985000014       2.25152541E-03
  0.987500012       2.25079595E-03
  0.990000010       2.25017779E-03
  0.992500007       2.24942784E-03
  0.995000005       2.24850886E-03
  0.997500002       2.24771886E-03
   1.00000000       2.24704365E-03
   1.00250006       2.24621803E-03
   1.00500000       2.24535656E-03
   1.00750005       2.24467041E-03
   1.00999999       2.24394468E-03
   1.01250005       2.24304711E-03
   1.01499999       2.24228157E-03
   1.01750004       2.24170974E-03
   1.01999998       2.24101590E-03
   1.02250004       2.24023336E-03
   1.02499998       2.23963056E-03
   1.02750003       2.23906571E-03
   1.02999997       2.23836186E-03
   1.03250003       2.23776652E-03
   1.03499997       2.23734742E-03
   1.03750002       2.23679561E-03
   1.03999996       2.23615742E-03
   1.04250002       2.23572925E-03
   1.04499996       2.23533553E-03
   1.04750001       2.23475229E-03
   1.04999995       2.23428477E-03
   1.05250001       2.23405147E-03
   1.05499995       2.23364774E-03
   1.05750000       2.23306101E-03
   1.05999994       2.23271642E-03
   1.06250000       2.23251572E-03
   1.06500006       2.23209127E-03
   1.06750000       2.23164773E-03
   1.07000005       2.23143236E-03
   1.07249999       2.23115832E-03
   1.07500005       2.23072339E-03
   1.07749999       2.23043165E-03
   1.08000004       2.23022862E-03
   1.08249998       2.22985330E-03
   1.08500004       2.22950638E-03
   1.08749998       2.22934317E-03
   1.09000003       2.22905190E-03
   1.09249997       2.22861231E-03
   1.09500003       2.22837715E-03
   1.09749997       2.22822046E-03
   1.10000002       2.22783186E-03
   1.10249996       2.22747913E-03
   1.10500002       2.22736597E-03
   1.10749996       2.22711195E-03
   1.11000001       2.22665630E-03
   1.11249995       2.22642324E-03
   1.11500001       2.22631358E-03
   1.11749995       2.22594501E-03
   1.12000000       2.22558295E-03
   1.12249994       2.22551008E-03
   1.12500000       2.22533569E-03
   1.12750006       2.22490844E-03
   1.13000000       2.22466444E-03
   1.13250005       2.22460134E-03
   1.13499999       2.22432264E-03
   1.13750005       2.22399412E-03
   1.13999999       2.22391053E-03
   1.14250004       2.22377898E-03
   1.14499998       2.22343905E-03
   1.14750004       2.22323998E-03
   1.14999998       2.22318387E-03
   1.15250003       2.22295197E-03
   1.15499997       2.22269795E-03
   1.15750003       2.22263695E-03
   1.15999997       2.22249073E-03
   1.16250002       2.22218595E-03
   1.16499996       2.22206884E-03
   1.16750002       2.22205790E-03
   1.16999996       2.22181901E-03
   1.17250001       2.22157920E-03
   1.17499995       2.22158199E-03
   1.17750001       2.22148094E-03
   1.17999995       2.22116383E-03
   1.18250000       2.22104369E-03
   1.18499994       2.22109701E-03
   1.18750000       2.22092588E-03
   1.19000006       2.22068257E-03
   1.19250000       2.22067395E-03
   1.19500005       2.22063973E-03
   1.19749999       2.22039595E-03
   1.20000005       2.22026301E-03
   1.20249999       2.22030166E-03
   1.20500004       2.22021691E-03
   1.20749998       2.22007651E-03
   1.21000004       2.22007791E-03
   1.21249998       2.22003018E-03
   1.21500003       2.21985718E-03
   1.21749997       2.21983739E-03
   1.22000003       2.21992284E-03
   1.22249997       2.21980503E-03
   1.22500002       2.21963762E-03
   1.22749996       2.21969653E-03
   1.23000002       2.21975497E-03
   1.23249996       2.21962808E-03
   1.23500001       2.21958384E-03
   1.23749995       2.21967720E-03
   1.24000001       2.21961597E-03
   1.24249995       2.21945788E-03
   1.24500000       2.21947767E-03
   1.24749994       2.21953983E-03
   1.25000000       2.21944414E-03
   1.25250006       2.21938617E-03
   1.25500000       2.21946649E-03
   1.25750005       2.21943925E-03
   1.25999999       2.21928628E-03
   1.26250005       2.21926649E-03
   1.26499999       2.21934635E-03
   1.26750004       2.21930561E-03
   1.26999998       2.21921853E-03
   1.27250004       2.21923203E-03
   1.27499998       2.21923576E-03
   1.27750003       2.21916218E-03
   1.27999997       2.21914635E-03
   1.28250003       2.21918034E-03
   1.28499997       2.21911841E-03
   1.28750002       2.21902435E-03
   1.28999996       2.21903040E-03
   1.29250002       2.21903808E-03
   1.29499996       2.21895822E-03
   1.29750001       2.21891934E-03
   1.29999995       2.21894775E-03
   1.30250001       2.21888535E-03
   1.30499995       2.21876404E-03
   1.30750000       2.21875845E-03
   1.30999994       2.21878919E-03
   1.31250000       2.21869582E-03
   1.31500006       2.21861084E-03
   1.31750000       2.21865950E-03
   1.32000005       2.21865741E-03
   1.32249999       2.21853214E-03
   1.32500005       2.21851165E-03
   1.32749999       2.21860944E-03
   1.33000004       2.21857359E-03
   1.33249998       2.21844390E-03
   1.33500004       2.21845671E-03
   1.33749998       2.21852725E-03
   1.34000003       2.21848395E-03
   1.34249997       2.21845414E-03
   1.34500003       2.21851771E-03
   1.34749997       2.21851026E-03
   1.35000002       2.21844483E-03
   1.35249996       2.21849093E-03
   1.35500002       2.21855659E-03
   1.35749996       2.21850676E-03
   1.36000001       2.21849815E-03
   1.36249995       2.21859384E-03
   1.36500001       2.21859734E-03
   1.36749995       2.21853354E-03
   1.37000000       2.21860176E-03
   1.37249994       2.21869419E-03
   1.37500000       2.21864926E-03
   1.37750006       2.21864157E-03
   1.38000000       2.21875217E-03
   1.38250005       2.21876218E-03
   1.38499999       2.21870258E-03
   1.38750005       2.21881014E-03
   1.38999999       2.21895543E-03
   1.39250004       2.21891864E-03
   1.39499998       2.21888744E-03
   1.39750004       2.21900712E-03
   1.39999998       2.21906556E-03
   1.40250003       2.21902994E-03
   1.40499997       2.21911329E-03
   1.40750003       2.21925369E-03
   1.40999997       2.21927371E-03
   1.41250002       2.21928582E-03
   1.41499996       2.21936707E-03
   1.41750002       2.21937965E-03
   1.41999996       2.21937825E-03
   1.42250001       2.21951306E-03
   1.42499995       2.21962249E-03
   1.42750001       2.21958873E-03
   1.42999995       2.21962738E-03
   1.43250000       2.21977173E-03
   1.43499994       2.21978431E-03
   1.43750000       2.21973984E-03
   1.44000006       2.21986859E-03
   1.44250000       2.22000806E-03
   1.44500005       2.21997150E-03
   1.44749999       2.21996778E-03
   1.45000005       2.22010282E-03
   1.45249999       2.22017430E-03
   1.45500004       2.22017965E-03
   1.45749998       2.22027232E-03
   1.46000004       2.22035381E-03
   1.46249998       2.22034124E-03
   1.46500003       2.22039083E-03
   1.46749997       2.22049630E-03
   1.47000003       2.22050725E-03
   1.47249997       2.22054543E-03
   1.47500002       2.22070655E-03
   1.47749996       2.22075125E-03
   1.48000002       2.22064299E-03
   1.48249996       2.22069048E-03
   1.48500001       2.22086557E-03
   1.48749995       2.22086092E-03
   1.49000001       2.22078082E-03
   1.49249995       2.22087721E-03
   1.49500000       2.22096778E-03
   1.49749994       2.22089165E-03
   1.50000000       2.22089211E-03
   1.50250006       2.22104043E-03
   1.50500000       2.22106976E-03
   1.50750005       2.22098315E-03
   1.50999999       2.22101482E-03
   1.51250005       2.22110469E-03
   1.51499999       2.22110399E-03
   1.51750004       2.22112890E-03
   1.51999998       2.22124159E-03
   1.52250004       2.22128769E-03
   1.52499998       2.22125533E-03
   1.52750003       2.22128630E-03
   1.52999997       2.22137454E-03
   1.53250003       2.22144811E-03
   1.53499997       2.22152588E-03
   1.53750002       2.22158479E-03
   1.53999996       2.22158362E-03
   1.54250002       2.22160434E-03
   1.54499996       2.22169375E-03
   1.54750001       2.22175289E-03
   1.54999995       2.22176546E-03
   1.55250001       2.22182204E-03
   1.55499995       2.22188770E-03
   1.55750000       2.22187536E-03
   1.55999994       2.22185045E-03
   1.56250000       2.22189236E-03
   1.56500006       2.22194847E-03
   1.56750000       2.22196500E-03
   1.57000005       2.22195522E-03
   1.57249999       2.22192775E-03
   1.57500005       2.22190726E-03
   1.57749999       2.22192681E-03
   1.58000004       2.22194451E-03
   1.58249998       2.22193333E-03
   1.58500004       2.22195336E-03
   1.58749998       2.22199177E-03
   1.59000003       2.22195545E-03
   1.59249997       2.22189724E-03
   1.59500003       2.22193426E-03
   1.59749997       2.22199410E-03
   1.60000002       2.22197012E-03
   1.60249996       2.22194823E-03
   1.60500002       2.22199108E-03
   1.60749996       2.22200062E-03
   1.61000001       2.22197059E-03
   1.61249995       2.22200854E-03
   1.61500001       2.22206954E-03
   1.61749995       2.22204905E-03
   1.62000000       2.22201692E-03
   1.62249994       2.22205091E-03
   1.62500000       2.22207443E-03
   1.62750006       2.22206837E-03
   1.63000000       2.22210889E-03
   1.63250005       2.22215010E-03
   1.63499999       2.22211401E-03
   1.63750005       2.22209236E-03
   1.63999999       2.22216058E-03
   1.64250004       2.22221017E-03
   1.64499998       2.22219015E-03
   1.64750004       2.22220412E-03
   1.64999998       2.22226768E-03
   1.65250003       2.22228956E-03
   1.65499997       2.22228677E-03
   1.65750003       2.22232682E-03
   1.65999997       2.22237175E-03
   1.66250002       2.22238270E-03
   1.66499996       2.22241157E-03
   1.66750002       2.22246512E-03
   1.66999996       2.22248607E-03
   1.67250001       2.22249003E-03
   1.67499995       2.22252333E-03
   1.67750001       2.22256128E-03
   1.67999995       2.22257781E-03
   1.68250000       2.22259993E-03
   1.68499994       2.22262135E-03
   1.68750000       2.22261366E-03
   1.69000006       2.22260691E-03
   1.69250000       2.22262344E-03
   1.69500005       2.22262298E-03
   1.69749999       2.22260482E-03
   1.70000005       2.22262181E-03
   1.70249999       2.22264859E-03
   1.70500004       2.22261110E-03
   1.70749998       2.22254568E-03
   1.71000004       2.22254498E-03
   1.71249998       2.22258945E-03
   1.71500003       2.22260086E-03
   1.71749997       2.22258596E-03
   1.72000003       2.22258433E-03
   1.72249997       2.22257525E-03
   1.72500002       2.22254661E-03
   1.72749996       2.22255057E-03
   1.73000002       2.22261087E-03
   1.73249996       2.22265907E-03
   1.73500001       2.22263997E-03
   1.73749995       2.22260505E-03
   1.74000001       2.22262694E-03
   1.74249995       2.22268095E-03
   1.74500000       2.22270773E-03
   1.74749994       2.22272053E-03
   1.75000000       2.22273613E-03
   1.75250006       2.22271029E-03
   1.75500000       2.22265301E-03
   1.75750005       2.22267210E-03
   1.75999999       2.22277222E-03
   1.76250005       2.22281017E-03
   1.76499999       2.22275453E-03
   1.76750004       2.22273637E-03
   1.76999998       2.22277967E-03
   1.77250004       2.22278223E-03
   1.77499998       2.22276943E-03
   1.77750003       2.22283159E-03
   1.77999997       2.22288817E-03
   1.78250003       2.22285185E-03
   1.78499997       2.22284300E-03
   1.78750002       2.22294801E-03
   1.78999996       2.22303485E-03
   1.79250002       2.22303835E-03
   1.79499996       2.22307676E-03
   1.79750001       2.22316780E-03
   1.79999995       2.22321181E-03
   1.80250001       2.22323858E-03
   1.80499995       2.22332543E-03
   1.80750000       2.22341344E-03
   1.80999994       2.22345395E-03
   1.81250000       2.22350564E-03
   1.81500006       2.22355733E-03
   1.81750000       2.22354196E-03
   1.82000005       2.22352240E-03
   1.82249999       2.22357502E-03
   1.82500005       2.22362182E-03
   1.82749999       2.22359691E-03
   1.83000004       2.22356361E-03
   1.83249998       2.22354010E-03
   1.83500004       2.22347095E-03
   1.83749998       2.22340040E-03
   1.84000003       2.22339784E-03
   1.84249997       2.22338899E-03
   1.84500003       2.22329726E-03
   1.84749997       2.22319318E-03
   1.85000002       2.22314219E-03
   1.85249996       2.22310051E-03
   1.85500002       2.22304906E-03
   1.85749996       2.22302810E-03
   1.86000001       2.22302531E-03
   1.86249995       2.22299225E-03
   1.86500001       2.22294289E-03
   1.86749995       2.22292566E-03
   1.87000000       2.22295127E-03
   1.87249994       2.22300063E-03
   1.87500000       2.22305232E-03
   1.87750006       2.22308864E-03
   1.88000000       2.22311215E-03
   1.88250005       2.22314266E-03
   1.88499999       2.22319760E-03
   1.88750005       2.22328375E-03
   1.88999999       2.22337991E-03
   1.89250004       2.22344580E-03
   1.89499998       2.22346489E-03
   1.89750004       2.22347002E-03
   1.89999998       2.22350680E-03
   1.90250003       2.22359016E-03
   1.90499997       2.22368026E-03
   1.90750003       2.22371053E-03
   1.90999997       2.22368166E-03
   1.91250002       2.22367118E-03
   1.91499996       2.22370867E-03
   1.91750002       2.22374196E-03
   1.91999996       2.22375710E-03
   1.92250001       2.22378294E-03
   1.92499995       2.22378783E-03
   1.92750001       2.22374103E-03
   1.92999995       2.22371984E-03
   1.93250000       2.22378061E-03
   1.93499994       2.22383789E-03
   1.93750000       2.22382857E-03
   1.94000006       2.22382089E-03
   1.94250000       2.22385279E-03
   1.94500005       2.22387654E-03
   1.94749999       2.22389656E-03
   1.95000005       2.22395756E-03
   1.95249999       2.22402369E-03
   1.95500004       2.22403510E-03
   1.95749998       2.22401973E-03
   1.96000004       2.22403882E-03
   1.96249998       2.22410331E-03
   1.96500003       2.22417945E-03
   1.96749997       2.22421554E-03
   1.97000003       2.22420017E-03
   1.97249997       2.22419132E-03
   1.97500002       2.22422252E-03
   1.97749996       2.22424511E-03
   1.98000002       2.22424697E-03
   1.98249996       2.22427817E-03
   1.98500001       2.22432008E-03
   1.98749995       2.22430239E-03
   1.99000001       2.22425815E-03
   1.99249995       2.22427305E-03
   1.99500000       2.22432707E-03
   1.99749994       2.22434779E-03
   2.00000000       2.22433172E-03
   2.00250006       2.22432148E-03
   2.00500011       2.22434057E-03
   2.00749993       2.22438690E-03
   2.00999999       2.22442462E-03
   2.01250005       2.22442835E-03
   2.01500010       2.22443952E-03
   2.01749992       2.22448935E-03
   2.01999998       2.22453312E-03
   2.02250004       2.22454360E-03
   2.02500010       2.22455594E-03
   2.02749991       2.22457852E-03
   2.02999997       2.22459901E-03
   2.03250003       2.22464278E-03
   2.03500009       2.22470239E-03
   2.03749990       2.22472684E-03
   2.03999996       2.22472264E-03
   2.04250002       2.22472451E-03
   2.04500008       2.22472171E-03
   2.04749990       2.22473429E-03
   2.04999995       2.22480646E-03
   2.05250001       2.22486188E-03
   2.05500007       2.22482043E-03
   2.05749989       2.22479529E-03
   2.05999994       2.22487305E-03
   2.06250000       2.22491799E-03
   2.06500006       2.22487538E-03
   2.06750011       2.22489866E-03
   2.06999993       2.22499087E-03
   2.07249999       2.22499738E-03
   2.07500005       2.22498039E-03
   2.07750010       2.22508167E-03
   2.07999992       2.22517666E-03
   2.08249998       2.22514127E-03
   2.08500004       2.22512428E-03
   2.08750010       2.22521159E-03
   2.08999991       2.22527399E-03
   2.09249997       2.22529355E-03
   2.09500003       2.22536433E-03
   2.09750009       2.22542579E-03
   2.09999990       2.22541089E-03
   2.10249996       2.22542556E-03
   2.10500002       2.22550123E-03
   2.10750008       2.22553592E-03
   2.10999990       2.22553709E-03
   2.11249995       2.22556200E-03
   2.11500001       2.22555618E-03
   2.11750007       2.22553639E-03
   2.11999989       2.22560391E-03
   2.12249994       2.22567609E-03
   2.12500000       2.22563324E-03
   2.12750006       2.22559879E-03
   2.13000011       2.22566002E-03
   2.13249993       2.22567189E-03
   2.13499999       2.22562859E-03
   2.13750005       2.22569983E-03
   2.14000010       2.22580740E-03