 -0.159999996       0.00000000    
 -0.157499999       0.00000000    
 -0.155000001       0.00000000    
 -0.152500004       0.00000000    
 -0.150000006       0.00000000    
 -0.147499993       7.75032978E-14
 -0.144999996      -9.63649841E-13
 -0.142499998       5.48478201E-13
 -0.140000001       1.12900089E-11
 -0.137500003      -3.93250363E-12
 -0.135000005      -6.40617490E-11
 -0.132499993      -3.90659727E-15
 -0.129999995       2.23613197E-10
 -0.127499998       5.32914407E-11
 -0.125000000      -5.56380775E-10
 -0.122500002      -2.25848507E-10
 -0.119999997       1.07130527E-09
 -0.117500000       5.77659254E-10
 -0.115000002      -1.64242819E-09
 -0.112499997      -1.12433751E-09
 -0.109999999       1.77572401E-09
 -0.107500002       1.47442836E-09
 -0.104999997      -6.10177464E-10
 -0.102499999      -5.36419797E-11
 -0.100000001      -1.81556969E-09
  -9.74999964E-02  -5.53272583E-09
  -9.49999988E-02   2.56352428E-09
  -9.25000012E-02   1.48522048E-08
  -9.00000036E-02   2.12730367E-09
  -8.74999985E-02  -2.23436700E-08
  -8.50000009E-02  -1.08462306E-08
  -8.25000033E-02   2.27250023E-08
  -7.99999982E-02   1.69668510E-08
  -7.75000006E-02  -1.76947061E-08
  -7.50000030E-02  -1.79383033E-08
  -7.24999979E-02   9.71566028E-09
  -7.00000003E-02   1.45514241E-08
  -6.75000027E-02   1.85285742E-09
  -6.49999976E-02  -3.71122377E-09
  -6.25000000E-02  -1.13796208E-08
  -5.99999987E-02  -1.29821895E-08
  -5.75000010E-02   9.49302148E-09
  -5.49999997E-02   2.00088355E-08
  -5.24999984E-02  -5.43546630E-09
  -5.00000007E-02  -1.59051936E-08
  -4.74999994E-02   7.13410220E-09
  -4.50000018E-02   1.22367831E-08
  -4.25000004E-02  -3.90046218E-10
  -3.99999991E-02   5.22441601E-09
  -3.75000015E-02  -4.33066560E-09
  -3.50000001E-02  -3.87773120E-08
  -3.24999988E-02  -2.11582023E-08
  -2.99999993E-02   3.32849837E-08
  -2.74999999E-02   8.27786195E-09
  -2.50000004E-02  -6.76244838E-08
  -2.25000009E-02  -6.54716672E-08
  -1.99999996E-02  -1.99901447E-08
  -1.75000001E-02  -3.89720753E-08
  -1.49999997E-02  -8.81427482E-08
  -1.25000002E-02  -1.21772146E-07
  -9.99999978E-03  -1.88017736E-07
  -7.49999983E-03  -2.64629989E-07
  -4.99999989E-03  -2.92428410E-07
  -2.49999994E-03  -3.57818521E-07
   0.00000000      -5.38890220E-07
   2.49999994E-03  -7.45887007E-07
   4.99999989E-03  -9.44435840E-07
   7.49999983E-03  -1.22990218E-06
   9.99999978E-03  -1.59666263E-06
   1.25000002E-02  -2.01643434E-06
   1.49999997E-02  -2.63527977E-06
   1.75000001E-02  -3.50970731E-06
   1.99999996E-02  -4.45975229E-06
   2.25000009E-02  -5.49266269E-06
   2.50000004E-02  -6.90525940E-06
   2.74999999E-02  -8.80638981E-06
   2.99999993E-02  -1.10804258E-05
   3.24999988E-02  -1.37890047E-05
   3.50000001E-02  -1.70914391E-05
   3.75000015E-02  -2.10074340E-05
   3.99999991E-02  -2.56633066E-05
   4.25000004E-02  -3.13762393E-05
   4.50000018E-02  -3.82779945E-05
   4.74999994E-02  -4.63271281E-05
   5.00000007E-02  -5.56885607E-05
   5.24999984E-02  -6.66619817E-05
   5.49999997E-02  -7.94533553E-05
   5.75000010E-02  -9.43233972E-05
   5.99999987E-02  -1.11583817E-04
   6.25000000E-02  -1.31344103E-04
   6.49999976E-02  -1.53706147E-04
   6.75000027E-02  -1.79074559E-04
   7.00000003E-02  -2.07864621E-04
   7.24999979E-02  -2.40240770E-04
   7.50000030E-02  -2.76413804E-04
   7.75000006E-02  -3.16713034E-04
   7.99999982E-02  -3.61288287E-04
   8.25000033E-02  -4.10257198E-04
   8.50000009E-02  -4.63986798E-04
   8.74999985E-02  -5.22768009E-04
   9.00000036E-02  -5.86557493E-04
   9.25000012E-02  -6.55342592E-04
   9.49999988E-02  -7.29284657E-04
   9.74999964E-02  -8.08395445E-04
  0.100000001      -8.92558019E-04
  0.102499999      -9.81746358E-04
  0.104999997      -1.07581809E-03
  0.107500002      -1.17437844E-03
  0.109999999      -1.27708504E-03
  0.112499997      -1.38369016E-03
  0.115000002      -1.49374199E-03
  0.117500000      -1.60664530E-03
  0.119999997      -1.72185374E-03
  0.122500002      -1.83869083E-03
  0.125000000      -1.95629336E-03
  0.127499998      -2.07387772E-03
  0.129999995      -2.19067512E-03
  0.132499993      -2.30563642E-03
  0.135000005      -2.41760630E-03
  0.137500003      -2.52556847E-03
  0.140000001      -2.62842886E-03
  0.142499998      -2.72487919E-03
  0.144999996      -2.81365169E-03
  0.147499993      -2.89354543E-03
  0.150000006      -2.96319416E-03
  0.152500004      -3.02118831E-03
  0.155000001      -3.06629250E-03
  0.157499999      -3.09730088E-03
  0.159999996      -3.11293453E-03
  0.162499994      -3.11203650E-03
  0.165000007      -3.09361611E-03
  0.167500004      -3.05673527E-03
  0.170000002      -3.00061749E-03
  0.172499999      -2.92478013E-03
  0.174999997      -2.82892259E-03
  0.177499995      -2.71290704E-03
  0.180000007      -2.57690134E-03
  0.182500005      -2.42135278E-03
  0.185000002      -2.24693469E-03
  0.187500000      -2.05472112E-03
  0.189999998      -1.84619194E-03
  0.192499995      -1.62295788E-03
  0.194999993      -1.38678693E-03
  0.197500005      -1.13986584E-03
  0.200000003      -8.84690438E-04
  0.202500001      -6.23820233E-04
  0.204999998      -3.59990663E-04
  0.207499996      -9.61444603E-05
  0.209999993       1.64876488E-04
  0.212500006       4.20346565E-04
  0.215000004       6.67373533E-04
  0.217500001       9.03061999E-04
  0.219999999       1.12491124E-03
  0.222499996       1.33073330E-03
  0.224999994       1.51844812E-03
  0.227500007       1.68626837E-03
  0.230000004       1.83282420E-03
  0.232500002       1.95704587E-03
  0.234999999       2.05819844E-03
  0.237499997       2.13600695E-03
  0.239999995       2.19055382E-03
  0.242500007       2.22222507E-03
  0.245000005       2.23181304E-03
  0.247500002       2.22039712E-03
  0.250000000       2.18918803E-03
  0.252499998       2.13971524E-03
  0.254999995       2.07386282E-03
  0.257499993       1.99348899E-03
  0.259999990       1.90036884E-03
  0.262499988       1.79652718E-03
  0.264999986       1.68411888E-03
  0.267500013       1.56504230E-03
  0.270000011       1.44106243E-03
  0.272500008       1.31402502E-03
  0.275000006       1.18561124E-03
  0.277500004       1.05722575E-03
  0.280000001       9.30205337E-04
  0.282499999       8.05746706E-04
  0.284999996       6.84742176E-04
  0.287499994       5.67979354E-04
  0.289999992       4.56166454E-04
  0.292499989       3.49666749E-04
  0.294999987       2.48675904E-04
  0.297500014       1.53527551E-04
  0.300000012       6.43666208E-05
  0.302500010      -1.90725277E-05
  0.305000007      -9.69865359E-05
  0.307500005      -1.69375766E-04
  0.310000002      -2.36508073E-04
  0.312500000      -2.98819912E-04
  0.314999998      -3.56510805E-04
  0.317499995      -4.09828936E-04
  0.319999993      -4.59279399E-04
  0.322499990      -5.05158096E-04
  0.324999988      -5.47543867E-04
  0.327499986      -5.86792128E-04
  0.330000013      -6.23291009E-04
  0.332500011      -6.57061639E-04
  0.335000008      -6.88207801E-04
  0.337500006      -7.17102783E-04
  0.340000004      -7.43805664E-04
  0.342500001      -7.68144731E-04
  0.344999999      -7.90312537E-04
  0.347499996      -8.10516765E-04
  0.349999994      -8.28516728E-04
  0.352499992      -8.44193157E-04
  0.354999989      -8.57772713E-04
  0.357499987      -8.69175943E-04
  0.360000014      -8.78112565E-04
  0.362500012      -8.84688750E-04
  0.365000010      -8.89006769E-04
  0.367500007      -8.90743569E-04
  0.370000005      -8.89777148E-04
  0.372500002      -8.86344351E-04
  0.375000000      -8.80369218E-04
  0.377499998      -8.71630735E-04
  0.379999995      -8.60321568E-04
  0.382499993      -8.46565119E-04
  0.384999990      -8.30075354E-04
  0.387499988      -8.10861122E-04
  0.389999986      -7.89308688E-04
  0.392500013      -7.65455188E-04
  0.395000011      -7.39167561E-04
  0.397500008      -7.10695633E-04
  0.400000006      -6.80249068E-04
  0.402500004      -6.47732290E-04
  0.405000001      -6.13302691E-04
  0.407499999      -5.77334140E-04
  0.409999996      -5.39883156E-04
  0.412499994      -5.00988797E-04
  0.414999992      -4.61008080E-04
  0.417499989      -4.20130527E-04
  0.419999987      -3.78335797E-04
  0.422500014      -3.35930526E-04
  0.425000012      -2.93292018E-04
  0.427500010      -2.50428304E-04
  0.430000007      -2.07460267E-04
  0.432500005      -1.64830082E-04
  0.435000002      -1.22711863E-04
  0.437500000      -8.10931670E-05
  0.439999998      -4.03304221E-05
  0.442499995      -7.95321228E-07
  0.444999993       3.75233903E-05
  0.447499990       7.44924546E-05
  0.449999988       1.09689987E-04
  0.452499986       1.42984849E-04
  0.455000013       1.74426663E-04
  0.457500011       2.03742122E-04
  0.460000008       2.30635618E-04
  0.462500006       2.55100225E-04
  0.465000004       2.77073326E-04
  0.467500001       2.96403887E-04
  0.469999999       3.13129218E-04
  0.472499996       3.27227288E-04
  0.474999994       3.38501675E-04
  0.477499992       3.47005320E-04
  0.479999989       3.52954463E-04
  0.482499987       3.56288394E-04
  0.485000014       3.56977078E-04
  0.487500012       3.55319120E-04
  0.490000010       3.51452414E-04
  0.492500007       3.45276843E-04
  0.495000005       3.37018486E-04
  0.497500002       3.27064045E-04
  0.500000000       3.15461453E-04
  0.502499998       3.02261877E-04
  0.504999995       2.87824514E-04
  0.507499993       2.72365840E-04
  0.509999990       2.55901046E-04
  0.512499988       2.38674183E-04
  0.514999986       2.20993519E-04
  0.517499983       2.02930561E-04
  0.519999981       1.84621909E-04
  0.522499979       1.66327591E-04
  0.524999976       1.48082632E-04
  0.527499974       1.29902575E-04
  0.529999971       1.12079462E-04
  0.532500029       9.47806329E-05
  0.535000026       7.78833783E-05
  0.537500024       6.14502715E-05
  0.540000021       4.56956404E-05
  0.542500019       3.05766953E-05
  0.545000017       1.60283325E-05
  0.547500014       2.21926166E-06
  0.550000012      -1.08267841E-05
  0.552500010      -2.32731200E-05
  0.555000007      -3.50521623E-05
  0.557500005      -4.60378978E-05
  0.560000002      -5.63872782E-05
  0.562500000      -6.61936865E-05
  0.564999998      -7.52977794E-05
  0.567499995      -8.37157859E-05
  0.569999993      -9.16551653E-05
  0.572499990      -9.90948611E-05
  0.574999988      -1.05914049E-04
  0.577499986      -1.12211914E-04
  0.579999983      -1.18108313E-04
  0.582499981      -1.23569640E-04
  0.584999979      -1.28591491E-04
  0.587499976      -1.33234716E-04
  0.589999974      -1.37526396E-04
  0.592499971      -1.41500233E-04
  0.595000029      -1.45170547E-04
  0.597500026      -1.48505205E-04
  0.600000024      -1.51575994E-04
  0.602500021      -1.54499314E-04
  0.605000019      -1.57206741E-04
  0.607500017      -1.59625299E-04
  0.610000014      -1.61898628E-04
  0.612500012      -1.64102603E-04
  0.615000010      -1.66118742E-04
  0.617500007      -1.67965001E-04
  0.620000005      -1.69765073E-04
  0.622500002      -1.71461754E-04
  0.625000000      -1.73016568E-04
  0.627499998      -1.74579312E-04
  0.629999995      -1.76151603E-04
  0.632499993      -1.77580150E-04
  0.634999990      -1.78937902E-04
  0.637499988      -1.80379517E-04
  0.639999986      -1.81827694E-04
  0.642499983      -1.83216995E-04
  0.644999981      -1.84639255E-04
  0.647499979      -1.86073099E-04
  0.649999976      -1.87465164E-04
  0.652499974      -1.88934006E-04
  0.654999971      -1.90501494E-04
  0.657500029      -1.92032108E-04
  0.660000026      -1.93582760E-04
  0.662500024      -1.95256958E-04
  0.665000021      -1.96911758E-04
  0.667500019      -1.98521302E-04
  0.670000017      -2.00299051E-04
  0.672500014      -2.02179071E-04
  0.675000012      -2.03926058E-04
  0.677500010      -2.05691758E-04
  0.680000007      -2.07667734E-04
  0.682500005      -2.09641425E-04
  0.685000002      -2.11507257E-04
  0.687500000      -2.13482039E-04
  0.689999998      -2.15533219E-04
  0.692499995      -2.17470078E-04
  0.694999993      -2.19441295E-04
  0.697499990      -2.21555485E-04
  0.699999988      -2.23581897E-04
  0.702499986      -2.25515585E-04
  0.704999983      -2.27587632E-04
  0.707499981      -2.29671306E-04
  0.709999979      -2.31577505E-04
  0.712499976      -2.33523373E-04
  0.714999974      -2.35597632E-04
  0.717499971      -2.37541331E-04
  0.720000029      -2.39381523E-04
  0.722500026      -2.41343994E-04
  0.725000024      -2.43283357E-04
  0.727500021      -2.45054573E-04
  0.730000019      -2.46866170E-04
  0.732500017      -2.48740223E-04
  0.735000014      -2.50472018E-04
  0.737500012      -2.52170634E-04
  0.740000010      -2.53972918E-04
  0.742500007      -2.55667168E-04
  0.745000005      -2.57232488E-04
  0.747500002      -2.58919434E-04
  0.750000000      -2.60602479E-04
  0.752499998      -2.62059271E-04
  0.754999995      -2.63552967E-04
  0.757499993      -2.65222043E-04
  0.759999990      -2.66721763E-04
  0.762499988      -2.68037053E-04
  0.764999986      -2.69521261E-04
  0.767499983      -2.71060417E-04
  0.769999981      -2.72369100E-04
  0.772499979      -2.73654208E-04
  0.774999976      -2.75060855E-04
  0.777499974      -2.76333041E-04
  0.779999971      -2.77489249E-04
  0.782500029      -2.78774271E-04
  0.785000026      -2.80041539E-04
  0.787500024      -2.81130109E-04
  0.790000021      -2.82244524E-04
  0.792500019      -2.83380068E-04
  0.795000017      -2.84332287E-04
  0.797500014      -2.85298534E-04
  0.800000012      -2.86440918E-04
  0.802500010      -2.87411851E-04
  0.805000007      -2.88133015E-04
  0.807500005      -2.89016607E-04
  0.810000002      -2.90016789E-04
  0.812500000      -2.90747936E-04
  0.814999998      -2.91392003E-04
  0.817499995      -2.92242010E-04
  0.819999993      -2.93011923E-04
  0.822499990      -2.93541350E-04
  0.824999988      -2.94153346E-04
  0.827499986      -2.94867263E-04
  0.829999983      -2.95410835E-04
  0.832499981      -2.95899168E-04
  0.834999979      -2.96486571E-04
  0.837499976      -2.96956307E-04
  0.839999974      -2.97302176E-04
  0.842499971      -2.97784660E-04
  0.845000029      -2.98285129E-04
  0.847500026      -2.98580446E-04
  0.850000024      -2.98880128E-04
  0.852500021      -2.99303210E-04
  0.855000019      -2.99601234E-04
  0.857500017      -2.99799140E-04
  0.860000014      -3.00142448E-04
  0.862500012      -3.00481683E-04
  0.865000010      -3.00624495E-04
  0.867500007      -3.00802873E-04
  0.870000005      -3.01121734E-04
  0.872500002      -3.01335152E-04
  0.875000000      -3.01454915E-04
  0.877499998      -3.01692315E-04
  0.879999995      -3.01920227E-04
  0.882499993      -3.01990338E-04
  0.884999990      -3.02117958E-04
  0.887499988      -3.02397500E-04
  0.889999986      -3.02595232E-04
  0.892499983      -3.02666973E-04
  0.894999981      -3.02800327E-04
  0.897499979      -3.02989210E-04
  0.899999976      -3.03121313E-04
  0.902499974      -3.03239271E-04
  0.904999971      -3.03389679E-04
  0.907500029      -3.03531357E-04
  0.910000026      -3.03670269E-04
  0.912500024      -3.03819019E-04
  0.915000021      -3.03935871E-04
  0.917500019      -3.04051850E-04
  0.920000017      -3.04224115E-04
  0.922500014      -3.04385583E-04
  0.925000012      -3.04477784E-04
  0.927500010      -3.04581685E-04
  0.930000007      -3.04742774E-04
  0.932500005      -3.04890244E-04
  0.935000002      -3.05009569E-04
  0.937500000      -3.05150315E-04
  0.939999998      -3.05285648E-04
  0.942499995      -3.05377675E-04
  0.944999993      -3.05475784E-04
  0.947499990      -3.05613299E-04
  0.949999988      -3.05733236E-04
  0.952499986      -3.05813301E-04
  0.954999983      -3.05915601E-04
  0.957499981      -3.06042406E-04
  0.959999979      -3.06114292E-04
  0.962499976      -3.06152826E-04
  0.964999974      -3.06270522E-04
  0.967499971      -3.06429458E-04
  0.970000029      -3.06489295E-04
  0.972500026      -3.06507223E-04
  0.975000024      -3.06625734E-04
  0.977500021      -3.06755770E-04
  0.980000019      -3.06783972E-04
  0.982500017      -3.06857459E-04
  0.985000014      -3.07044393E-04
  0.987500012      -3.07144190E-04
  0.990000010      -3.07147799E-04
  0.992500007      -3.07276874E-04
  0.995000005      -3.07464768E-04
  0.997500002      -3.07512440E-04
   1.00000000      -3.07563023E-04
   1.00250006      -3.07744514E-04
   1.00500000      -3.07861308E-04
   1.00750005      -3.07898794E-04
   1.00999999      -3.08063027E-04
   1.01250005      -3.08225281E-04
   1.01499999      -3.08208342E-04
   1.01750004      -3.08268005E-04
   1.01999998      -3.08506191E-04
   1.02250004      -3.08598508E-04
   1.02499998      -3.08569521E-04
   1.02750003      -3.08731513E-04
   1.02999997      -3.08893097E-04
   1.03250003      -3.08818009E-04
   1.03499997      -3.08855204E-04
   1.03750002      -3.09124414E-04
   1.03999996      -3.09186114E-04
   1.04250002      -3.09059717E-04
   1.04499996      -3.09168070E-04
   1.04750001      -3.09345429E-04
   1.04999995      -3.09291354E-04
   1.05250001      -3.09296651E-04
   1.05499995      -3.09474824E-04
   1.05750000      -3.09465046E-04
   1.05999994      -3.09357594E-04
   1.06250000      -3.09490075E-04
   1.06500006      -3.09608586E-04
   1.06750000      -3.09508177E-04
   1.07000005      -3.09541036E-04
   1.07249999      -3.09692026E-04
   1.07500005      -3.09578056E-04
   1.07749999      -3.09449708E-04
   1.08000004      -3.09645751E-04
   1.08249998      -3.09744006E-04
   1.08500004      -3.09541036E-04
   1.08749998      -3.09518015E-04
   1.09000003      -3.09669907E-04
   1.09249997      -3.09564202E-04
   1.09500003      -3.09426803E-04
   1.09749997      -3.09553143E-04
   1.10000002      -3.09551891E-04
   1.10249996      -3.09326017E-04
   1.10500002      -3.09319585E-04
   1.10749996      -3.09409108E-04
   1.11000001      -3.09231807E-04
   1.11249995      -3.09115771E-04
   1.11500001      -3.09242634E-04
   1.11749995      -3.09149298E-04
   1.12000000      -3.08883260E-04
   1.12249994      -3.08927934E-04
   1.12500000      -3.09012306E-04
   1.12750006      -3.08757677E-04
   1.13000000      -3.08613380E-04
   1.13250005      -3.08764545E-04
   1.13499999      -3.08672606E-04
   1.13750005      -3.08382179E-04
   1.13999999      -3.08410818E-04
   1.14250004      -3.08512390E-04
   1.14499998      -3.08294751E-04
   1.14750004      -3.08119197E-04
   1.14999998      -3.08175455E-04
   1.15250003      -3.08092451E-04
   1.15499997      -3.07907554E-04
   1.15750003      -3.07903101E-04
   1.15999997      -3.07863666E-04
   1.16250002      -3.07671842E-04
   1.16499996      -3.07631009E-04
   1.16750002      -3.07656766E-04
   1.16999996      -3.07461509E-04
   1.17250001      -3.07300186E-04
   1.17499995      -3.07338458E-04
   1.17750001      -3.07228329E-04
   1.17999995      -3.07005132E-04
   1.18250000      -3.07031645E-04
   1.18499994      -3.07069335E-04
   1.18750000      -3.06830654E-04
   1.19000006      -3.06690228E-04
   1.19250000      -3.06771632E-04
   1.19500005      -3.06659349E-04
   1.19749999      -3.06438713E-04
   1.20000005      -3.06472124E-04
   1.20249999      -3.06494796E-04
   1.20500004      -3.06288654E-04
   1.20749998      -3.06227041E-04
   1.21000004      -3.06333153E-04
   1.21249998      -3.06221104E-04
   1.21500003      -3.06052418E-04
   1.21749997      -3.06115719E-04
   1.22000003      -3.06113070E-04
   1.22249997      -3.05937749E-04
   1.22500002      -3.05945228E-04
   1.22749996      -3.06034082E-04
   1.23000002      -3.05886962E-04
   1.23249996      -3.05781054E-04
   1.23500001      -3.05904192E-04
   1.23749995      -3.05876340E-04
   1.24000001      -3.05682945E-04
   1.24249995      -3.05696100E-04
   1.24500000      -3.05755297E-04
   1.24749994      -3.05605179E-04
   1.25000000      -3.05540801E-04
   1.25250006      -3.05632595E-04
   1.25500000      -3.05529102E-04
   1.25750005      -3.05362744E-04
   1.25999999      -3.05443915E-04
   1.26250005      -3.05479858E-04
   1.26499999      -3.05288035E-04
   1.26750004      -3.05233436E-04
   1.26999998      -3.05305031E-04
   1.27250004      -3.05167428E-04
   1.27499998      -3.05051304E-04
   1.27750003      -3.05193476E-04
   1.27999997      -3.05201829E-04
   1.28250003      -3.04981251E-04
   1.28499997      -3.04966175E-04
   1.28750002      -3.05076363E-04
   1.28999996      -3.04955349E-04
   1.29250002      -3.04860645E-04
   1.29499996      -3.05001420E-04
   1.29750001      -3.04996909E-04
   1.29999995      -3.04800866E-04
   1.30250001      -3.04801972E-04
   1.30499995      -3.04908550E-04
   1.30750000      -3.04858899E-04
   1.30999994      -3.04843561E-04
   1.31250000      -3.04900284E-04
   1.31500006      -3.04781919E-04
   1.31750000      -3.04682995E-04
   1.32000005      -3.04836605E-04
   1.32249999      -3.04881483E-04
   1.32500005      -3.04697664E-04
   1.32749999      -3.04719550E-04
   1.33000004      -3.04874877E-04
   1.33249998      -3.04750167E-04
   1.33500004      -3.04628629E-04
   1.33749998      -3.04828107E-04
   1.34000003      -3.04900983E-04
   1.34249997      -3.04676534E-04
   1.34500003      -3.04658985E-04
   1.34749997      -3.04838526E-04
   1.35000002      -3.04772577E-04
   1.35249996      -3.04657384E-04
   1.35500002      -3.04796093E-04
   1.35749996      -3.04860238E-04
   1.36000001      -3.04716406E-04
   1.36249995      -3.04709130E-04
   1.36500001      -3.04781541E-04
   1.36749995      -3.04682879E-04
   1.37000000      -3.04650981E-04
   1.37249994      -3.04783491E-04
   1.37500000      -3.04732937E-04
   1.37750006      -3.04576213E-04
   1.38000000      -3.04666493E-04
   1.38250005      -3.04761459E-04
   1.38499999      -3.04602989E-04
   1.38750005      -3.04553250E-04
   1.38999999      -3.04699788E-04
   1.39250004      -3.04627873E-04
   1.39499998      -3.04446090E-04
   1.39750004      -3.04548885E-04
   1.39999998      -3.04677815E-04
   1.40250003      -3.04551446E-04
   1.40499997      -3.04509507E-04
   1.40750003      -3.04648071E-04
   1.40999997      -3.04601999E-04
   1.41250002      -3.04464542E-04
   1.41499996      -3.04557208E-04
   1.41750002      -3.04647285E-04
   1.41999996      -3.04537651E-04
   1.42250001      -3.04543093E-04
   1.42499995      -3.04700545E-04
   1.42750001      -3.04674119E-04
   1.42999995      -3.04566987E-04
   1.43250000      -3.04650428E-04
   1.43499994      -3.04720132E-04
   1.43750000      -3.04638612E-04
   1.44000006      -3.04670451E-04
   1.44250000      -3.04803543E-04
   1.44500005      -3.04771675E-04
   1.44749999      -3.04704561E-04
   1.45000005      -3.04800080E-04
   1.45249999      -3.04860616E-04
   1.45500004      -3.04811663E-04
   1.45749998      -3.04870598E-04
   1.46000004      -3.04965273E-04
   1.46249998      -3.04899469E-04
   1.46500003      -3.04860354E-04
   1.46749997      -3.04986257E-04
   1.47000003      -3.05042689E-04
   1.47249997      -3.04990972E-04
   1.47500002      -3.05046531E-04
   1.47749996      -3.05126334E-04
   1.48000002      -3.05079040E-04
   1.48249996      -3.05091584E-04
   1.48500001      -3.05220776E-04
   1.48749995      -3.05217924E-04
   1.49000001      -3.05130554E-04
   1.49249995      -3.05207825E-04
   1.49500000      -3.05313035E-04
   1.49749994      -3.05266702E-04
   1.50000000      -3.05277994E-04
   1.50250006      -3.05408030E-04
   1.50500000      -3.05385387E-04
   1.50750005      -3.05256894E-04
   1.50999999      -3.05314315E-04
   1.51250005      -3.05438240E-04
   1.51499999      -3.05388530E-04
   1.51750004      -3.05334921E-04
   1.51999998      -3.05418274E-04
   1.52250004      -3.05439258E-04
   1.52499998      -3.05363210E-04
   1.52750003      -3.05375812E-04
   1.52999997      -3.05418507E-04
   1.53250003      -3.05362861E-04
   1.53499997      -3.05336493E-04
   1.53750002      -3.05386493E-04
   1.53999996      -3.05361376E-04
   1.54250002      -3.05314432E-04
   1.54499996      -3.05390684E-04
   1.54750001      -3.05451162E-04
   1.54999995      -3.05395166E-04
   1.55250001      -3.05404101E-04
   1.55499995      -3.05492809E-04
   1.55750000      -3.05476744E-04
   1.55999994      -3.05454480E-04
   1.56250000      -3.05596099E-04
   1.56500006      -3.05709720E-04
   1.56750000      -3.05673108E-04
   1.57000005      -3.05727066E-04
   1.57249999      -3.05900525E-04
   1.57500005      -3.05941619E-04
   1.57749999      -3.05939611E-04
   1.58000004      -3.06125206E-04
   1.58249998      -3.06290836E-04
   1.58500004      -3.06231726E-04
   1.58749998      -3.06220405E-04
   1.59000003      -3.06417642E-04
   1.59249997      -3.06560658E-04
   1.59500003      -3.06565780E-04
   1.59749997      -3.06633068E-04
   1.60000002      -3.06727947E-04
   1.60249996      -3.06705653E-04
   1.60500002      -3.06683389E-04
   1.60749996      -3.06759670E-04
   1.61000001      -3.06809146E-04
   1.61249995      -3.06798553E-04
   1.61500001      -3.06804432E-04
   1.61749995      -3.06779897E-04
   1.62000000      -3.06721340E-04
   1.62249994      -3.06746311E-04
   1.62500000      -3.06792965E-04
   1.62750006      -3.06706788E-04
   1.63000000      -3.06593050E-04
   1.63250005      -3.06590257E-04
   1.63499999      -3.06580507E-04
   1.63750005      -3.06502217E-04
   1.63999999      -3.06498318E-04
   1.64250004      -3.06553120E-04
   1.64499998      -3.06501461E-04
   1.64750004      -3.06389906E-04
   1.64999998      -3.06373171E-04
   1.65250003      -3.06422444E-04
   1.65499997      -3.06443224E-04
   1.65750003      -3.06429138E-04
   1.65999997      -3.06400383E-04
   1.66250002      -3.06393340E-04
   1.66499996      -3.06433329E-04
   1.66750002      -3.06465372E-04
   1.66999996      -3.06474773E-04
   1.67250001      -3.06531001E-04
   1.67499995      -3.06576781E-04
   1.67750001      -3.06510192E-04
   1.67999995      -3.06466332E-04
   1.68250000      -3.06577538E-04
   1.68499994      -3.06677626E-04
   1.68750000      -3.06654838E-04
   1.69000006      -3.06649919E-04
   1.69250000      -3.06680682E-04
   1.69500005      -3.06646660E-04
   1.69749999      -3.06653004E-04
   1.70000005      -3.06761736E-04
   1.70249999      -3.06782254E-04
   1.70500004      -3.06708476E-04
   1.70749998      -3.06736096E-04
   1.71000004      -3.06782400E-04
   1.71249998      -3.06717440E-04
   1.71500003      -3.06737056E-04
   1.71749997      -3.06866044E-04
   1.72000003      -3.06815928E-04
   1.72249997      -3.06679838E-04
   1.72500002      -3.06759961E-04
   1.72749996      -3.06847272E-04
   1.73000002      -3.06718866E-04
   1.73249996      -3.06697504E-04
   1.73500001      -3.06868547E-04
   1.73749995      -3.06833419E-04
   1.74000001      -3.06660775E-04
   1.74249995      -3.06744420E-04
   1.74500000      -3.06873728E-04
   1.74749994      -3.06745816E-04
   1.75000000      -3.06672504E-04
   1.75250006      -3.06796166E-04
   1.75500000      -3.06771806E-04
   1.75750005      -3.06659145E-04
   1.75999999      -3.06761882E-04
   1.76250005      -3.06829927E-04
   1.76499999      -3.06669099E-04
   1.76750004      -3.06656555E-04
   1.76999998      -3.06811649E-04
   1.77250004      -3.06724687E-04
   1.77499998      -3.06587666E-04
   1.77750003      -3.06756177E-04
   1.77999997      -3.06846341E-04
   1.78250003      -3.06623406E-04
   1.78499997      -3.06586153E-04
   1.78750002      -3.06800765E-04
   1.78999996      -3.06766509E-04
   1.79250002      -3.06606758E-04
   1.79499996      -3.06722039E-04
   1.79750001      -3.06814967E-04
   1.79999995      -3.06643924E-04
   1.80250001      -3.06610396E-04
   1.80499995      -3.06768081E-04
   1.80750000      -3.06720758E-04
   1.80999994      -3.06603237E-04
   1.81250000      -3.06714559E-04
   1.81500006      -3.06762580E-04
   1.81750000      -3.06599366E-04
   1.82000005      -3.06590082E-04
   1.82249999      -3.06714617E-04
   1.82500005      -3.06631351E-04
   1.82749999      -3.06518457E-04
   1.83000004      -3.06610978E-04
   1.83249998      -3.06623464E-04
   1.83500004      -3.06483853E-04
   1.83749998      -3.06512578E-04
   1.84000003      -3.06606904E-04
   1.84249997      -3.06473201E-04
   1.84500003      -3.06361617E-04
   1.84749997      -3.06492118E-04
   1.85000002      -3.06540227E-04
   1.85249996      -3.06385482E-04
   1.85500002      -3.06337402E-04
   1.85749996      -3.06408561E-04
   1.86000001      -3.06382048E-04
   1.86249995      -3.06353322E-04
   1.86500001      -3.06417031E-04
   1.86749995      -3.06383416E-04
   1.87000000      -3.06246628E-04
   1.87249994      -3.06230155E-04
   1.87500000      -3.06307571E-04
   1.87750006      -3.06304079E-04
   1.88000000      -3.06243950E-04
   1.88250005      -3.06207745E-04
   1.88499999      -3.06178466E-04
   1.88750005      -3.06154427E-04
   1.88999999      -3.06141330E-04
   1.89250004      -3.06118949E-04
   1.89499998      -3.06103233E-04
   1.89750004      -3.06082278E-04
   1.89999998      -3.06011760E-04
   1.90250003      -3.05960450E-04
   1.90499997      -3.05985915E-04
   1.90750003      -3.05970694E-04
   1.90999997      -3.05886177E-04
   1.91250002      -3.05883033E-04
   1.91499996      -3.05926456E-04
   1.91750002      -3.05857422E-04
   1.91999996      -3.05769063E-04
   1.92250001      -3.05788039E-04
   1.92499995      -3.05796420E-04
   1.92750001      -3.05748370E-04
   1.92999995      -3.05743277E-04
   1.93250000      -3.05717869E-04
   1.93499994      -3.05632420E-04
   1.93750000      -3.05644528E-04
   1.94000006      -3.05702270E-04
   1.94250000      -3.05603113E-04
   1.94500005      -3.05506401E-04
   1.94749999      -3.05578491E-04
   1.95000005      -3.05560476E-04
   1.95249999      -3.05402005E-04
   1.95500004      -3.05430265E-04
   1.95749998      -3.05532216E-04
   1.96000004      -3.05373134E-04
   1.96249998      -3.05225869E-04
   1.96500003      -3.05355032E-04
   1.96749997      -3.05376831E-04
   1.97000003      -3.05176596E-04
   1.97249997      -3.05173395E-04
   1.97500002      -3.05286580E-04
   1.97749996      -3.05150053E-04
   1.98000002      -3.05023888E-04