 -0.159999996       0.00000000    
 -0.157499999       0.00000000    
 -0.155000001       0.00000000    
 -0.152500004       0.00000000    
 -0.150000006       0.00000000    
 -0.147499993       2.29311724E-15
 -0.144999996      -4.29099861E-15
 -0.142499998       7.34819039E-15
 -0.140000001      -1.06411760E-13
 -0.137500003      -4.34675624E-15
 -0.135000005       9.00002186E-13
 -0.132499993      -2.93015829E-13
 -0.129999995      -3.74755522E-12
 -0.127499998       1.37660911E-12
 -0.125000000       1.00062129E-11
 -0.122500002      -3.40602720E-12
 -0.119999997      -1.67178719E-11
 -0.117500000       7.89976331E-12
 -0.115000002       9.68667594E-12
 -0.112499997      -2.79922648E-11
 -0.109999999       3.07528170E-11
 -0.107500002       9.76732098E-11
 -0.104999997      -9.40372571E-11
 -0.102499999      -2.35497760E-10
 -0.100000001       1.13052040E-10
  -9.74999964E-02   3.40990292E-10
  -9.49999988E-02  -6.40821840E-11
  -9.25000012E-02  -1.73270773E-10
  -9.00000036E-02   1.71213238E-10
  -8.74999985E-02  -3.65881769E-10
  -8.50000009E-02  -8.42622361E-10
  -8.25000033E-02   8.51966331E-10
  -7.99999982E-02   2.05412043E-09
  -7.75000006E-02  -6.26330765E-10
  -7.50000030E-02  -2.89307378E-09
  -7.24999979E-02  -1.76665127E-10
  -7.00000003E-02   2.35116215E-09
  -6.75000027E-02   3.09311465E-10
  -6.49999976E-02  -7.59531715E-10
  -6.25000000E-02   1.18992216E-09
  -5.99999987E-02  -3.09597681E-10
  -5.75000010E-02  -3.66783315E-09
  -5.49999997E-02  -3.33492123E-10
  -5.24999984E-02   5.38028377E-09
  -5.00000007E-02   2.56854182E-09
  -4.74999994E-02  -4.65739269E-09
  -4.50000018E-02  -4.84229279E-09
  -4.25000004E-02   1.19294130E-09
  -3.99999991E-02   4.83634333E-09
  -3.75000015E-02   2.65616640E-09
  -3.50000001E-02  -2.07097295E-09
  -3.24999988E-02  -3.54825702E-09
  -2.99999993E-02  -7.82127030E-10
  -2.74999999E-02   1.65799152E-09
  -2.50000004E-02   4.05373823E-09
  -2.25000009E-02   5.93354654E-09
  -1.99999996E-02  -4.88834528E-09
  -1.75000001E-02  -2.47633984E-08
  -1.49999997E-02  -2.25512728E-08
  -1.25000002E-02   7.21369631E-11
  -9.99999978E-03  -3.72306097E-09
  -7.49999983E-03  -3.55454439E-08
  -4.99999989E-03  -4.78476423E-08
  -2.49999994E-03  -5.01714545E-08
   0.00000000      -8.41141627E-08
   2.49999994E-03  -1.19095198E-07
   4.99999989E-03  -1.29847237E-07
   7.49999983E-03  -1.81587282E-07
   9.99999978E-03  -2.87311792E-07
   1.25000002E-02  -3.61713802E-07
   1.49999997E-02  -4.27072223E-07
   1.75000001E-02  -5.99737405E-07
   1.99999996E-02  -8.41891392E-07
   2.25000009E-02  -1.05501385E-06
   2.50000004E-02  -1.33547451E-06
   2.74999999E-02  -1.78815606E-06
   2.99999993E-02  -2.31073363E-06
   3.24999988E-02  -2.88119736E-06
   3.50000001E-02  -3.69527743E-06
   3.75000015E-02  -4.79166465E-06
   3.99999991E-02  -6.02215687E-06
   4.25000004E-02  -7.47982449E-06
   4.50000018E-02  -9.41235248E-06
   4.74999994E-02  -1.18026737E-05
   5.00000007E-02  -1.45770682E-05
   5.24999984E-02  -1.79566778E-05
   5.49999997E-02  -2.21434311E-05
   5.75000010E-02  -2.70876408E-05
   5.99999987E-02  -3.28802817E-05
   6.25000000E-02  -3.98484335E-05
   6.49999976E-02  -4.81426359E-05
   6.75000027E-02  -5.77775645E-05
   7.00000003E-02  -6.89997687E-05
   7.24999979E-02  -8.21357535E-05
   7.50000030E-02  -9.73333663E-05
   7.75000006E-02  -1.14785209E-04
   7.99999982E-02  -1.34830581E-04
   8.25000033E-02  -1.57699804E-04
   8.50000009E-02  -1.83571989E-04
   8.74999985E-02  -2.12810133E-04
   9.00000036E-02  -2.45763833E-04
   9.25000012E-02  -2.82587571E-04
   9.49999988E-02  -3.23504879E-04
   9.74999964E-02  -3.68876790E-04
  0.100000001      -4.18913784E-04
  0.102499999      -4.73726133E-04
  0.104999997      -5.33572165E-04
  0.107500002      -5.98675280E-04
  0.109999999      -6.69010857E-04
  0.112499997      -7.44541700E-04
  0.115000002      -8.25361873E-04
  0.117500000      -9.11449490E-04
  0.119999997      -1.00256759E-03
  0.122500002      -1.09843677E-03
  0.125000000      -1.19877118E-03
  0.127499998      -1.30317057E-03
  0.129999995      -1.41108513E-03
  0.132499993      -1.52182858E-03
  0.135000005      -1.63463678E-03
  0.137500003      -1.74870621E-03
  0.140000001      -1.86305749E-03
  0.142499998      -1.97644299E-03
  0.144999996      -2.08755839E-03
  0.147499993      -2.19511660E-03
  0.150000006      -2.29758886E-03
  0.152500004      -2.39320798E-03
  0.155000001      -2.48024543E-03
  0.157499999      -2.55691563E-03
  0.159999996      -2.62114429E-03
  0.162499994      -2.67081498E-03
  0.165000007      -2.70396168E-03
  0.167500004      -2.71848938E-03
  0.170000002      -2.71216105E-03
  0.172499999      -2.68298225E-03
  0.174999997      -2.62913085E-03
  0.177499995      -2.54866690E-03
  0.180000007      -2.43984512E-03
  0.182500005      -2.30143359E-03
  0.185000002      -2.13239272E-03
  0.187500000      -1.93177653E-03
  0.189999998      -1.69918942E-03
  0.192499995      -1.43483630E-03
  0.194999993      -1.13918749E-03
  0.197500005      -8.13116378E-04
  0.200000003      -4.58196562E-04
  0.202500001      -7.65146542E-05
  0.204999998       3.29455739E-04
  0.207499996       7.56618800E-04
  0.209999993       1.20134011E-03
  0.212500006       1.65972440E-03
  0.215000004       2.12747697E-03
  0.217500001       2.59981467E-03
  0.219999999       3.07183806E-03
  0.222499996       3.53864860E-03
  0.224999994       3.99508420E-03
  0.227500007       4.43593459E-03
  0.230000004       4.85640019E-03
  0.232500002       5.25198178E-03
  0.234999999       5.61828678E-03
  0.237499997       5.95137244E-03
  0.239999995       6.24799356E-03
  0.242500007       6.50540693E-03
  0.245000005       6.72138156E-03
  0.247500002       6.89446460E-03
  0.250000000       7.02394173E-03
  0.252499998       7.10968301E-03
  0.254999995       7.15223746E-03
  0.257499993       7.15285772E-03
  0.259999990       7.11335568E-03
  0.262499988       7.03606755E-03
  0.264999986       6.92381617E-03
  0.267500013       6.77976664E-03
  0.270000011       6.60741329E-03
  0.272500008       6.41056895E-03
  0.275000006       6.19307719E-03
  0.277500004       5.95868658E-03
  0.280000001       5.71128028E-03
  0.282499999       5.45476284E-03
  0.284999996       5.19263372E-03
  0.287499994       4.92806500E-03
  0.289999992       4.66423156E-03
  0.292499989       4.40404005E-03
  0.294999987       4.14977269E-03
  0.297500014       3.90336080E-03
  0.300000012       3.66664818E-03
  0.302500010       3.44110699E-03
  0.305000007       3.22768604E-03
  0.307500005       3.02706310E-03
  0.310000002       2.83975643E-03
  0.312500000       2.66598561E-03
  0.314999998       2.50566541E-03
  0.317499995       2.35852669E-03
  0.319999993       2.22419878E-03
  0.322499990       2.10224278E-03
  0.324999988       1.99205405E-03
  0.327499986       1.89284829E-03
  0.330000013       1.80390012E-03
  0.332500011       1.72461185E-03
  0.335000008       1.65421888E-03
  0.337500006       1.59182050E-03
  0.340000004       1.53678388E-03
  0.342500001       1.48863113E-03
  0.344999999       1.44664233E-03
  0.347499996       1.41011225E-03
  0.349999994       1.37870363E-03
  0.352499992       1.35204731E-03
  0.354999989       1.32949674E-03
  0.357499987       1.31062989E-03
  0.360000014       1.29535934E-03
  0.362500012       1.28340675E-03
  0.365000010       1.27431704E-03
  0.367500007       1.26790861E-03
  0.370000005       1.26411556E-03
  0.372500002       1.26263639E-03
  0.375000000       1.26318214E-03
  0.377499998       1.26567623E-03
  0.379999995       1.27000676E-03
  0.382499993       1.27595221E-03
  0.384999990       1.28334470E-03
  0.387499988       1.29202753E-03
  0.389999986       1.30181189E-03
  0.392500013       1.31257693E-03
  0.395000011       1.32418342E-03
  0.397500008       1.33639341E-03
  0.400000006       1.34905614E-03
  0.402500004       1.36211677E-03
  0.405000001       1.37540721E-03
  0.407499999       1.38874620E-03
  0.409999996       1.40208937E-03
  0.412499994       1.41532090E-03
  0.414999992       1.42824021E-03
  0.417499989       1.44081784E-03
  0.419999987       1.45305577E-03
  0.422500014       1.46477704E-03
  0.425000012       1.47592358E-03
  0.427500010       1.48660329E-03
  0.430000007       1.49667601E-03
  0.432500005       1.50593731E-03
  0.435000002       1.51455333E-03
  0.437500000       1.52260985E-03
  0.439999998       1.52979139E-03
  0.442499995       1.53606304E-03
  0.444999993       1.54174608E-03
  0.447499990       1.54668873E-03
  0.449999988       1.55052054E-03
  0.452499986       1.55347690E-03
  0.455000013       1.55581417E-03
  0.457500011       1.55715039E-03
  0.460000008       1.55731384E-03
  0.462500006       1.55665947E-03
  0.465000004       1.55511126E-03
  0.467500001       1.55229867E-03
  0.469999999       1.54844567E-03
  0.472499996       1.54376274E-03
  0.474999994       1.53783348E-03
  0.477499992       1.53058989E-03
  0.479999989       1.52248715E-03
  0.482499987       1.51333306E-03
  0.485000014       1.50265556E-03
  0.487500012       1.49083720E-03
  0.490000010       1.47821999E-03
  0.492500007       1.46426528E-03
  0.495000005       1.44887029E-03
  0.497500002       1.43269554E-03
  0.500000000       1.41562487E-03
  0.502499998       1.39705115E-03
  0.504999995       1.37739198E-03
  0.507499993       1.35720801E-03
  0.509999990       1.33598282E-03
  0.512499988       1.31349009E-03
  0.514999986       1.29051891E-03
  0.517499983       1.26723340E-03
  0.519999981       1.24301401E-03
  0.522499979       1.21809449E-03
  0.524999976       1.19319244E-03
  0.527499974       1.16816151E-03
  0.529999971       1.14277308E-03
  0.532500029       1.11756369E-03
  0.535000026       1.09285791E-03
  0.537500024       1.06850720E-03
  0.540000021       1.04481482E-03
  0.542500019       1.02222746E-03
  0.545000017       1.00069388E-03
  0.547500014       9.80391051E-04
  0.550000012       9.61942424E-04
  0.552500010       9.45506035E-04
  0.555000007       9.31031595E-04
  0.557500005       9.19087732E-04
  0.560000002       9.10159724E-04
  0.562500000       9.04102519E-04
  0.564999998       9.01120424E-04
  0.567499995       9.01888066E-04
  0.569999993       9.06494621E-04
  0.572499990       9.14761389E-04
  0.574999988       9.27136571E-04
  0.577499986       9.43991821E-04
  0.579999983       9.65028361E-04
  0.582499981       9.90163418E-04
  0.584999979       1.01970276E-03
  0.587499976       1.05346146E-03
  0.589999974       1.09099655E-03
  0.592499971       1.13227626E-03
  0.595000029       1.17714424E-03
  0.597500026       1.22499827E-03
  0.600000024       1.27545372E-03
  0.602500021       1.32824248E-03
  0.605000019       1.38262543E-03
  0.607500017       1.43789849E-03
  0.610000014       1.49378460E-03
  0.612500012       1.54968724E-03
  0.615000010       1.60464551E-03
  0.617500007       1.65817863E-03
  0.620000005       1.70999370E-03
  0.622500002       1.75926671E-03
  0.625000000       1.80525461E-03
  0.627499998       1.84779370E-03
  0.629999995       1.88652927E-03
  0.632499993       1.92076678E-03
  0.634999990       1.95030170E-03
  0.637499988       1.97524088E-03
  0.639999986       1.99528877E-03
  0.642499983       2.01018713E-03
  0.644999981       2.02019000E-03
  0.647499979       2.02546827E-03
  0.649999976       2.02592672E-03
  0.652499974       2.02183682E-03
  0.654999971       2.01373012E-03
  0.657500029       2.00183247E-03
  0.660000026       1.98634621E-03
  0.662500024       1.96780241E-03
  0.665000021       1.94665487E-03
  0.667500019       1.92313013E-03
  0.670000017       1.89765054E-03
  0.672500014       1.87077420E-03
  0.675000012       1.84281962E-03
  0.677500010       1.81403779E-03
  0.680000007       1.78485003E-03
  0.682500005       1.75559882E-03
  0.685000002       1.72644795E-03
  0.687500000       1.69762282E-03
  0.689999998       1.66938629E-03
  0.692499995       1.64186826E-03
  0.694999993       1.61517528E-03
  0.697499990       1.58947066E-03
  0.699999988       1.56482717E-03
  0.702499986       1.54125667E-03
  0.704999983       1.51883846E-03
  0.707499981       1.49760535E-03
  0.709999979       1.47746026E-03
  0.712499976       1.45838340E-03
  0.714999974       1.44047348E-03
  0.717499971       1.42369966E-03
  0.720000029       1.40791142E-03
  0.722500026       1.39311340E-03
  0.725000024       1.37940084E-03
  0.727500021       1.36666710E-03
  0.730000019       1.35471590E-03
  0.732500017       1.34357170E-03
  0.735000014       1.33334822E-03
  0.737500012       1.32394198E-03
  0.740000010       1.31518859E-03
  0.742500007       1.30714744E-03
  0.745000005       1.29991327E-03
  0.747500002       1.29335339E-03
  0.750000000       1.28731283E-03
  0.752499998       1.28184631E-03
  0.754999995       1.27701566E-03
  0.757499993       1.27271435E-03
  0.759999990       1.26885728E-03
  0.762499988       1.26549811E-03
  0.764999986       1.26267003E-03
  0.767499983       1.26030785E-03
  0.769999981       1.25832646E-03
  0.772499979       1.25667010E-03
  0.774999976       1.25534018E-03
  0.777499974       1.25436799E-03
  0.779999971       1.25369779E-03
  0.782500029       1.25324400E-03
  0.785000026       1.25306658E-03
  0.787500024       1.25323609E-03
  0.790000021       1.25357893E-03
  0.792500019       1.25391874E-03
  0.795000017       1.25439907E-03
  0.797500014       1.25516648E-03
  0.800000012       1.25601713E-03
  0.802500010       1.25678570E-03
  0.805000007       1.25768606E-03
  0.807500005       1.25884323E-03
  0.810000002       1.25996617E-03
  0.812500000       1.26089389E-03
  0.814999998       1.26192125E-03
  0.817499995       1.26319530E-03
  0.819999993       1.26438518E-03
  0.822499990       1.26532733E-03
  0.824999988       1.26635679E-03
  0.827499986       1.26762723E-03
  0.829999983       1.26879499E-03
  0.832499981       1.26972899E-03
  0.834999979       1.27078232E-03
  0.837499976       1.27203483E-03
  0.839999974       1.27309968E-03
  0.842499971       1.27393298E-03
  0.845000029       1.27492857E-03
  0.847500026       1.27609156E-03
  0.850000024       1.27705897E-03
  0.852500021       1.27787865E-03
  0.855000019       1.27885619E-03
  0.857500017       1.27988821E-03
  0.860000014       1.28073443E-03
  0.862500012       1.28151290E-03
  0.865000010       1.28236902E-03
  0.867500007       1.28320837E-03
  0.870000005       1.28399488E-03
  0.872500002       1.28477067E-03
  0.875000000       1.28547498E-03
  0.877499998       1.28615717E-03
  0.879999995       1.28694926E-03
  0.882499993       1.28768571E-03
  0.884999990       1.28818373E-03
  0.887499988       1.28870271E-03
  0.889999986       1.28941436E-03
  0.892499983       1.28999469E-03
  0.894999981       1.29035546E-03
  0.897499979       1.29087293E-03
  0.899999976       1.29151763E-03
  0.902499974       1.29188062E-03
  0.904999971       1.29208504E-03
  0.907500029       1.29250751E-03
  0.910000026       1.29295059E-03
  0.912500024       1.29313592E-03
  0.915000021       1.29332836E-03
  0.917500019       1.29368820E-03
  0.920000017       1.29392021E-03
  0.922500014       1.29396876E-03
  0.925000012       1.29410240E-03
  0.927500010       1.29429938E-03
  0.930000007       1.29438436E-03
  0.932500005       1.29444024E-03
  0.935000002       1.29452546E-03
  0.937500000       1.29454758E-03
  0.939999998       1.29458634E-03
  0.942499995       1.29471219E-03
  0.944999993       1.29473023E-03
  0.947499990       1.29462767E-03
  0.949999988       1.29468355E-03
  0.952499986       1.29483442E-03
  0.954999983       1.29477330E-03
  0.957499981       1.29466131E-03
  0.959999979       1.29479542E-03
  0.962499976       1.29493454E-03
  0.964999974       1.29482034E-03
  0.967499971       1.29473163E-03
  0.970000029       1.29484572E-03
  0.972500026       1.29487063E-03
  0.975000024       1.29472476E-03
  0.977500021       1.29469368E-03
  0.980000019       1.29478017E-03
  0.982500017       1.29472115E-03
  0.985000014       1.29454816E-03
  0.987500012       1.29445852E-03
  0.990000010       1.29440264E-03
  0.992500007       1.29426899E-03
  0.995000005       1.29411893E-03
  0.997500002       1.29399006E-03
   1.00000000       1.29383197E-03
   1.00250006       1.29367318E-03
   1.00500000       1.29353523E-03
   1.00750005       1.29333802E-03
   1.00999999       1.29311101E-03
   1.01250005       1.29298272E-03
   1.01499999       1.29287655E-03
   1.01750004       1.29264256E-03
   1.01999998       1.29243103E-03
   1.02250004       1.29241438E-03
   1.02499998       1.29237445E-03
   1.02750003       1.29213079E-03
   1.02999997       1.29195489E-03
   1.03250003       1.29201578E-03
   1.03499997       1.29201973E-03
   1.03750002       1.29186874E-03
   1.03999996       1.29188469E-03
   1.04250002       1.29206502E-03
   1.04499996       1.29206094E-03
   1.04750001       1.29197212E-03
   1.04999995       1.29214698E-03
   1.05250001       1.29239913E-03
   1.05499995       1.29243336E-03
   1.05750000       1.29251136E-03
   1.05999994       1.29283383E-03
   1.06250000       1.29308156E-03
   1.06500006       1.29316049E-03
   1.06750000       1.29339553E-03
   1.07000005       1.29376526E-03
   1.07249999       1.29399879E-03
   1.07500005       1.29422417E-03
   1.07749999       1.29459961E-03
   1.08000004       1.29490194E-03
   1.08249998       1.29510812E-03
   1.08500004       1.29548484E-03
   1.08749998       1.29591208E-03
   1.09000003       1.29614223E-03
   1.09249997       1.29641884E-03
   1.09500003       1.29690056E-03
   1.09749997       1.29724713E-03
   1.10000002       1.29742362E-03
   1.10249996       1.29780301E-03
   1.10500002       1.29827578E-03
   1.10749996       1.29851431E-03
   1.11000001       1.29876495E-03
   1.11249995       1.29924598E-03
   1.11500001       1.29960151E-03
   1.11749995       1.29976124E-03
   1.12000000       1.30012771E-03
   1.12249994       1.30060269E-03
   1.12500000       1.30081247E-03
   1.12750006       1.30101223E-03
   1.13000000       1.30147929E-03
   1.13250005       1.30184018E-03
   1.13499999       1.30196114E-03
   1.13750005       1.30226649E-03
   1.13999999       1.30272342E-03
   1.14250004       1.30292587E-03
   1.14499998       1.30306312E-03
   1.14750004       1.30345544E-03
   1.14999998       1.30379491E-03
   1.15250003       1.30389316E-03
   1.15499997       1.30412227E-03
   1.15750003       1.30452483E-03
   1.15999997       1.30472728E-03
   1.16250002       1.30481261E-03
   1.16499996       1.30507583E-03
   1.16750002       1.30533846E-03
   1.16999996       1.30543963E-03
   1.17250001       1.30562135E-03
   1.17499995       1.30590366E-03
   1.17750001       1.30603637E-03
   1.17999995       1.30612229E-03
   1.18250000       1.30635628E-03
   1.18499994       1.30654313E-03
   1.18750000       1.30657747E-03
   1.19000006       1.30669679E-03
   1.19250000       1.30690518E-03
   1.19500005       1.30698562E-03
   1.19749999       1.30705070E-03
   1.20000005       1.30726967E-03
   1.20249999       1.30743289E-03
   1.20500004       1.30741729E-03
   1.20749998       1.30747200E-03
   1.21000004       1.30765315E-03
   1.21249998       1.30772882E-03
   1.21500003       1.30773708E-03
   1.21749997       1.30789971E-03
   1.22000003       1.30811217E-03
   1.22249997       1.30815513E-03
   1.22500002       1.30814395E-03
   1.22749996       1.30825723E-03
   1.23000002       1.30838947E-03
   1.23249996       1.30842510E-03
   1.23500001       1.30848517E-03
   1.23749995       1.30865746E-03
   1.24000001       1.30881113E-03
   1.24249995       1.30886142E-03
   1.24500000       1.30891392E-03
   1.24749994       1.30902347E-03
   1.25000000       1.30910508E-03
   1.25250006       1.30916457E-03
   1.25500000       1.30930170E-03
   1.25750005       1.30945281E-03
   1.25999999       1.30950485E-03
   1.26250005       1.30957714E-03
   1.26499999       1.30976725E-03
   1.26750004       1.30989135E-03
   1.26999998       1.30989379E-03
   1.27250004       1.31001405E-03
   1.27499998       1.31023664E-03
   1.27750003       1.31029019E-03
   1.27999997       1.31030311E-03
   1.28250003       1.31055259E-03
   1.28499997       1.31078938E-03
   1.28750002       1.31076062E-03
   1.28999996       1.31081056E-03
   1.29250002       1.31110568E-03
   1.29499996       1.31123222E-03
   1.29750001       1.31116086E-03
   1.29999995       1.31134677E-03
   1.30250001       1.31168263E-03
   1.30499995       1.31173187E-03
   1.30750000       1.31170917E-03
   1.30999994       1.31194515E-03
   1.31250000       1.31214003E-03
   1.31500006       1.31213118E-03
   1.31750000       1.31226389E-03
   1.32000005       1.31252373E-03
   1.32249999       1.31258869E-03
   1.32500005       1.31262525E-03
   1.32749999       1.31285272E-03
   1.33000004       1.31299591E-03
   1.33249998       1.31301023E-03
   1.33500004       1.31322036E-03
   1.33749998       1.31346064E-03
   1.34000003       1.31341582E-03
   1.34249997       1.31343980E-03
   1.34500003       1.31376809E-03
   1.34749997       1.31392444E-03
   1.35000002       1.31382921E-03
   1.35249996       1.31400244E-03
   1.35500002       1.31432037E-03
   1.35749996       1.31428242E-03
   1.36000001       1.31420232E-03
   1.36249995       1.31448940E-03
   1.36500001       1.31470663E-03
   1.36749995       1.31460314E-03
   1.37000000       1.31465541E-03
   1.37249994       1.31491048E-03
   1.37500000       1.31492829E-03
   1.37750006       1.31485658E-03
   1.38000000       1.31503423E-03
   1.38250005       1.31517707E-03
   1.38499999       1.31509558E-03
   1.38750005       1.31512026E-03
   1.38999999       1.31526275E-03
   1.39250004       1.31523854E-03
   1.39499998       1.31521304E-03
   1.39750004       1.31535868E-03
   1.39999998       1.31537823E-03
   1.40250003       1.31525227E-03
   1.40499997       1.31532771E-03
   1.40750003       1.31546124E-03
   1.40999997       1.31535402E-03
   1.41250002       1.31531432E-03
   1.41499996       1.31552457E-03
   1.41750002       1.31554552E-03
   1.41999996       1.31533341E-03
   1.42250001       1.31539244E-03
   1.42499995       1.31564145E-03
   1.42750001       1.31561141E-03
   1.42999995       1.31549500E-03
   1.43250000       1.31564564E-03
   1.43499994       1.31577638E-03
   1.43750000       1.31567731E-03
   1.44000006       1.31569197E-03
   1.44250000       1.31590804E-03
   1.44500005       1.31599512E-03
   1.44749999       1.31595938E-03
   1.45000005       1.31605717E-03
   1.45249999       1.31620851E-03
   1.45500004       1.31624786E-03
   1.45749998       1.31628953E-03
   1.46000004       1.31642318E-03
   1.46249998       1.31654553E-03
   1.46500003       1.31662411E-03
   1.46749997       1.31671899E-03
   1.47000003       1.31682388E-03
   1.47249997       1.31691596E-03
   1.47500002       1.31701014E-03
   1.47749996       1.31710328E-03
   1.48000002       1.31718779E-03
   1.48249996       1.31726870E-03
   1.48500001       1.31734589E-03
   1.48749995       1.31743727E-03
   1.49000001       1.31753704E-03
   1.49249995       1.31758989E-03
   1.49500000       1.31761876E-03
   1.49749994       1.31770957E-03
   1.50000000       1.31779560E-03
   1.50250006       1.31778663E-03
   1.50500000       1.31781178E-03
   1.50750005       1.31794601E-03
   1.50999999       1.31800550E-03
   1.51250005       1.31795998E-03
   1.51499999       1.31801795E-03
   1.51750004       1.31813064E-03
   1.51999998       1.31810619E-03
   1.52250004       1.31809746E-03
   1.52499998       1.31825451E-03
   1.52750003       1.31833518E-03
   1.52999997       1.31826208E-03
   1.53250003       1.31832494E-03
   1.53499997       1.31850375E-03
   1.53750002       1.31852215E-03
   1.53999996       1.31851039E-03
   1.54250002       1.31867791E-03
   1.54499996       1.31879153E-03
   1.54750001       1.31875253E-03
   1.54999995       1.31885882E-03
   1.55250001       1.31907314E-03
   1.55499995       1.31907989E-03
   1.55750000       1.31905288E-03
   1.55999994       1.31927035E-03
   1.56250000       1.31944579E-03
   1.56500006       1.31938560E-03
   1.56750000       1.31944276E-03
   1.57000005       1.31969340E-03
   1.57249999       1.31976500E-03
   1.57500005       1.31969166E-03
   1.57749999       1.31980528E-03
   1.58000004       1.31998642E-03
   1.58249998       1.32000458E-03
   1.58500004       1.32003229E-03
   1.58749998       1.32017466E-03
   1.59000003       1.32024277E-03
   1.59249997       1.32024393E-03
   1.59500003       1.32032530E-03
   1.59749997       1.32039085E-03
   1.60000002       1.32039085E-03
   1.60249996       1.32049748E-03
   1.60500002       1.32065581E-03
   1.60749996       1.32065790E-03
   1.61000001       1.32063881E-03
   1.61249995       1.32078072E-03
   1.61500001       1.32087513E-03
   1.61749995       1.32081460E-03
   1.62000000       1.32087676E-03
   1.62249994       1.32109271E-03
   1.62500000       1.32114871E-03
   1.62750006       1.32107793E-03
   1.63000000       1.32117944E-03
   1.63250005       1.32135872E-03
   1.63499999       1.32135639E-03
   1.63750005       1.32131076E-03
   1.63999999       1.32143043E-03
   1.64250004       1.32156641E-03
   1.64499998       1.32157176E-03
   1.64750004       1.32159179E-03
   1.64999998       1.32170937E-03
   1.65250003       1.32178899E-03
   1.65499997       1.32177782E-03
   1.65750003       1.32178655E-03
   1.65999997       1.32186699E-03
   1.66250002       1.32196292E-03
   1.66499996       1.32201856E-03
   1.66750002       1.32202881E-03
   1.66999996       1.32205081E-03
   1.67250001       1.32213545E-03
   1.67499995       1.32221845E-03
   1.67750001       1.32221833E-03
   1.67999995       1.32220972E-03
   1.68250000       1.32229109E-03
   1.68499994       1.32237992E-03
   1.68750000       1.32237840E-03
   1.69000006       1.32237899E-03
   1.69250000       1.32246595E-03
   1.69500005       1.32254174E-03
   1.69749999       1.32253708E-03
   1.70000005       1.32254499E-03
   1.70249999       1.32262090E-03
   1.70500004       1.32268120E-03
   1.70749998       1.32268260E-03
   1.71000004       1.32269529E-03
   1.71249998       1.32276560E-03
   1.71500003       1.32285396E-03
   1.71749997       1.32290507E-03
   1.72000003       1.32291345E-03
   1.72249997       1.32292858E-03
   1.72500002       1.32298726E-03
   1.72749996       1.32306025E-03
   1.73000002       1.32311461E-03
   1.73249996       1.32317434E-03
   1.73500001       1.32324768E-03
   1.73749995       1.32329529E-03
   1.74000001       1.32332847E-03
   1.74249995       1.32339681E-03
   1.74500000       1.32347178E-03
   1.74749994       1.32350670E-03
   1.75000000       1.32354489E-03
   1.75250006       1.32362102E-03
   1.75500000       1.32368726E-03
   1.75750005       1.32372091E-03
   1.75999999       1.32374594E-03
   1.76250005       1.32376514E-03
   1.76499999       1.32380298E-03
   1.76750004       1.32388214E-03
   1.76999998       1.32392847E-03
   1.77250004       1.32390519E-03
   1.77499998       1.32391730E-03
   1.77750003       1.32397679E-03
   1.77999997       1.32395898E-03
   1.78250003       1.32391509E-03
   1.78499997       1.32399646E-03
   1.78750002       1.32408785E-03
   1.78999996       1.32403162E-03
   1.79250002       1.32398086E-03
   1.79499996       1.32406445E-03
   1.79750001       1.32411486E-03
   1.79999995       1.32407818E-03
   1.80250001       1.32411183E-03
   1.80499995       1.32418715E-03
   1.80750000       1.32419064E-03
   1.80999994       1.32422533E-03
   1.81250000       1.32432790E-03
   1.81500006       1.32434641E-03
   1.81750000       1.32433360E-03
   1.82000005       1.32444012E-03
   1.82249999       1.32452103E-03
   1.82500005       1.32449204E-03
   1.82749999       1.32458296E-03
   1.83000004       1.32476306E-03
   1.83249998       1.32474094E-03
   1.83500004       1.32467621E-03
   1.83749998       1.32486294E-03
   1.84000003       1.32500404E-03
   1.84249997       1.32485956E-03
   1.84500003       1.32484362E-03
   1.84749997       1.32510043E-03
   1.85000002       1.32515270E-03
   1.85249996       1.32497842E-03
   1.85500002       1.32504606E-03
   1.85749996       1.32523652E-03
   1.86000001       1.32515619E-03
   1.86249995       1.32505316E-03
   1.86500001       1.32520322E-03
   1.86749995       1.32527901E-03
   1.87000000       1.32515293E-03
   1.87249994       1.32517505E-03
   1.87500000       1.32532732E-03
   1.87750006       1.32530089E-03
   1.88000000       1.32523279E-03
   1.88250005       1.32532883E-03
   1.88499999       1.32537377E-03
   1.88750005       1.32529577E-03
   1.88999999       1.32534350E-03
   1.89250004       1.32546166E-03
   1.89499998       1.32542849E-03
   1.89750004       1.32540229E-03
   1.89999998       1.32552511E-03
   1.90250003       1.32556283E-03
   1.90499997       1.32547179E-03
   1.90750003       1.32551510E-03
   1.90999997       1.32564560E-03
   1.91250002       1.32561172E-03
   1.91499996       1.32554118E-03
   1.91750002       1.32564374E-03
   1.91999996       1.32573897E-03
   1.92250001       1.32566353E-03
   1.92499995       1.32560835E-03
   1.92750001       1.32569112E-03
   1.92999995       1.32574991E-03
   1.93250000       1.32571417E-03
   1.93499994       1.32570486E-03
   1.93750000       1.32575387E-03
   1.94000006       1.32577727E-03
   1.94250000       1.32576574E-03
   1.94500005       1.32577820E-03
   1.94749999       1.32581231E-03
   1.95000005       1.32581964E-03
   1.95249999       1.32581207E-03
   1.95500004       1.32584537E-03
   1.95749998       1.32590241E-03
   1.96000004       1.32591184E-03
   1.96249998       1.32589252E-03
   1.96500003       1.32591859E-03
   1.96749997       1.32596202E-03
   1.97000003       1.32596632E-03
   1.97249997       1.32597913E-03
   1.97500002       1.32602674E-03
   1.97749996       1.32604304E-03
   1.98000002       1.32603373E-03