 -0.159999996       0.00000000    
 -0.157499999       0.00000000    
 -0.155000001       0.00000000    
 -0.152500004       0.00000000    
 -0.150000006       0.00000000    
 -0.147499993       8.25522376E-14
 -0.144999996      -5.31645528E-13
 -0.142499998       1.49131250E-13
 -0.140000001       3.24508519E-12
 -0.137500003      -2.16758079E-12
 -0.135000005      -1.05505171E-11
 -0.132499993       7.57004008E-12
 -0.129999995       2.14559880E-11
 -0.127499998      -1.59200309E-11
 -0.125000000      -1.90466930E-11
 -0.122500002       3.21915689E-11
 -0.119999997      -4.07834461E-11
 -0.117500000      -9.56778407E-11
 -0.115000002       1.97417235E-10
 -0.112499997       2.89004570E-10
 -0.109999999      -3.93207994E-10
 -0.107500002      -6.14369333E-10
 -0.104999997       4.86363061E-10
 -0.102499999       8.07956035E-10
 -0.100000001      -5.54095880E-10
  -9.74999964E-02  -5.16088394E-10
  -9.49999988E-02   1.12370091E-09
  -9.25000012E-02  -5.21236387E-11
  -9.00000036E-02  -2.57863331E-09
  -8.74999985E-02   2.28150832E-12
  -8.50000009E-02   4.18876667E-09
  -8.25000033E-02   1.11461262E-09
  -7.99999982E-02  -4.38204406E-09
  -7.75000006E-02  -2.23187913E-09
  -7.50000030E-02   2.47801069E-09
  -7.24999979E-02   1.65078906E-09
  -7.00000003E-02   3.95094124E-10
  -6.75000027E-02   9.73083392E-10
  -6.49999976E-02  -2.56299115E-09
  -6.25000000E-02  -4.01679223E-09
  -5.99999987E-02   3.91597155E-09
  -5.75000010E-02   6.11165873E-09
  -5.49999997E-02  -4.80949947E-09
  -5.24999984E-02  -6.41761666E-09
  -5.00000007E-02   4.82810902E-09
  -4.74999994E-02   2.46956589E-09
  -4.50000018E-02  -5.90671956E-09
  -4.25000004E-02   7.50655982E-09
  -3.99999991E-02   1.48656518E-08
  -3.75000015E-02  -1.39834686E-08
  -3.50000001E-02  -2.63130104E-08
  -3.24999988E-02   1.24656339E-08
  -2.99999993E-02   2.86060473E-08
  -2.74999999E-02  -1.49856092E-08
  -2.50000004E-02  -3.60887036E-08
  -2.25000009E-02  -8.40240055E-09
  -1.99999996E-02  -1.27832660E-08
  -1.75000001E-02  -4.72646455E-08
  -1.49999997E-02  -3.60814170E-08
  -1.25000002E-02  -2.39786573E-08
  -9.99999978E-03  -8.86871803E-08
  -7.49999983E-03  -1.53304583E-07
  -4.99999989E-03  -1.51206095E-07
  -2.49999994E-03  -1.84413224E-07
   0.00000000      -2.96775653E-07
   2.49999994E-03  -3.82934047E-07
   4.99999989E-03  -4.62584950E-07
   7.49999983E-03  -6.66397170E-07
   9.99999978E-03  -9.26147493E-07
   1.25000002E-02  -1.11861766E-06
   1.49999997E-02  -1.40142208E-06
   1.75000001E-02  -1.94311178E-06
   1.99999996E-02  -2.58388604E-06
   2.25000009E-02  -3.20661707E-06
   2.50000004E-02  -4.04494494E-06
   2.74999999E-02  -5.25340238E-06
   2.99999993E-02  -6.68326038E-06
   3.24999988E-02  -8.33958075E-06
   3.50000001E-02  -1.04831006E-05
   3.75000015E-02  -1.31789620E-05
   3.99999991E-02  -1.63400236E-05
   4.25000004E-02  -2.01471084E-05
   4.50000018E-02  -2.48733613E-05
   4.74999994E-02  -3.05360445E-05
   5.00000007E-02  -3.71827082E-05
   5.24999984E-02  -4.51348424E-05
   5.49999997E-02  -5.46340125E-05
   5.75000010E-02  -6.57385826E-05
   5.99999987E-02  -7.87028475E-05
   6.25000000E-02  -9.39201927E-05
   6.49999976E-02  -1.11564965E-04
   6.75000027E-02  -1.31813693E-04
   7.00000003E-02  -1.55138405E-04
   7.24999979E-02  -1.81929427E-04
   7.50000030E-02  -2.12289655E-04
   7.75000006E-02  -2.46522162E-04
   7.99999982E-02  -2.85213086E-04
   8.25000033E-02  -3.28673719E-04
   8.50000009E-02  -3.76979646E-04
   8.74999985E-02  -4.30515269E-04
   9.00000036E-02  -4.89777478E-04
   9.25000012E-02  -5.54872211E-04
   9.49999988E-02  -6.25829853E-04
   9.74999964E-02  -7.02994294E-04
  0.100000001      -7.86585442E-04
  0.102499999      -8.76421807E-04
  0.104999997      -9.72378941E-04
  0.107500002      -1.07449072E-03
  0.109999999      -1.18248293E-03
  0.112499997      -1.29582628E-03
  0.115000002      -1.41411403E-03
  0.117500000      -1.53681787E-03
  0.119999997      -1.66300009E-03
  0.122500002      -1.79166207E-03
  0.125000000      -1.92187610E-03
  0.127499998      -2.05235789E-03
  0.129999995      -2.18148762E-03
  0.132499993      -2.30772840E-03
  0.135000005      -2.42946018E-03
  0.137500003      -2.54461402E-03
  0.140000001      -2.65096780E-03
  0.142499998      -2.74641998E-03
  0.144999996      -2.82866671E-03
  0.147499993      -2.89511587E-03
  0.150000006      -2.94327759E-03
  0.152500004      -2.97074625E-03
  0.155000001      -2.97491974E-03
  0.157499999      -2.95321736E-03
  0.159999996      -2.90336576E-03
  0.162499994      -2.82321405E-03
  0.165000007      -2.71071820E-03
  0.167500004      -2.56423885E-03
  0.170000002      -2.38248799E-03
  0.172499999      -2.16439716E-03
  0.174999997      -1.90944702E-03
  0.177499995      -1.61781837E-03
  0.180000007      -1.29006256E-03
  0.182500005      -9.27173067E-04
  0.185000002      -5.30980411E-04
  0.187500000      -1.03954590E-04
  0.189999998       3.51095397E-04
  0.192499995       8.30703415E-04
  0.194999993       1.33061106E-03
  0.197500005       1.84623385E-03
  0.200000003       2.37271935E-03
  0.202500001       2.90462235E-03
  0.204999998       3.43620917E-03
  0.207499996       3.96189652E-03
  0.209999993       4.47597215E-03
  0.212500006       4.97248769E-03
  0.215000004       5.44586685E-03
  0.217500001       5.89108281E-03
  0.219999999       6.30327407E-03
  0.222499996       6.67793863E-03
  0.224999994       7.01144151E-03
  0.227500007       7.30086165E-03
  0.230000004       7.54376501E-03
  0.232500002       7.73853203E-03
  0.234999999       7.88449030E-03
  0.237499997       7.98162539E-03
  0.239999995       8.03060923E-03
  0.242500007       8.03296641E-03
  0.245000005       7.99089111E-03
  0.247500002       7.90711679E-03
  0.250000000       7.78495334E-03
  0.252499998       7.62809254E-03
  0.254999995       7.44046504E-03
  0.257499993       7.22637400E-03
  0.259999990       6.99033681E-03
  0.262499988       6.73668925E-03
  0.264999986       6.46969955E-03
  0.267500013       6.19378034E-03
  0.270000011       5.91305364E-03
  0.272500008       5.63106360E-03
  0.275000006       5.35119092E-03
  0.277500004       5.07670548E-03
  0.280000001       4.81027085E-03
  0.282499999       4.55397414E-03
  0.284999996       4.30974597E-03
  0.287499994       4.07920731E-03
  0.289999992       3.86338052E-03
  0.292499989       3.66289355E-03
  0.294999987       3.47814616E-03
  0.297500014       3.30922101E-03
  0.300000012       3.15596885E-03
  0.302500010       3.01804906E-03
  0.305000007       2.89479177E-03
  0.307500005       2.78537744E-03
  0.310000002       2.68909032E-03
  0.312500000       2.60505290E-03
  0.314999998       2.53207167E-03
  0.317499995       2.46908749E-03
  0.319999993       2.41529546E-03
  0.322499990       2.36967672E-03
  0.324999988       2.33103777E-03
  0.327499986       2.29850272E-03
  0.330000013       2.27137934E-03
  0.332500011       2.24875333E-03
  0.335000008       2.22970708E-03
  0.337500006       2.21361150E-03
  0.340000004       2.19991361E-03
  0.342500001       2.18797592E-03
  0.344999999       2.17721984E-03
  0.347499996       2.16718740E-03
  0.349999994       2.15749675E-03
  0.352499992       2.14779191E-03
  0.354999989       2.13766797E-03
  0.357499987       2.12675706E-03
  0.360000014       2.11487664E-03
  0.362500012       2.10184325E-03
  0.365000010       2.08729319E-03
  0.367500007       2.07100110E-03
  0.370000005       2.05301354E-03
  0.372500002       2.03319360E-03
  0.375000000       2.01118574E-03
  0.377499998       1.98694691E-03
  0.379999995       1.96066895E-03
  0.382499993       1.93225045E-03
  0.384999990       1.90149201E-03
  0.387499988       1.86855451E-03
  0.389999986       1.83368963E-03
  0.392500013       1.79693603E-03
  0.395000011       1.75840873E-03
  0.397500008       1.71841204E-03
  0.400000006       1.67720602E-03
  0.402500004       1.63508591E-03
  0.405000001       1.59251480E-03
  0.407499999       1.54990971E-03
  0.409999996       1.50763313E-03
  0.412499994       1.46624935E-03
  0.414999992       1.42639910E-03
  0.417499989       1.38856377E-03
  0.419999987       1.35327666E-03
  0.422500014       1.32126408E-03
  0.425000012       1.29316153E-03
  0.427500010       1.26944541E-03
  0.430000007       1.25068834E-03
  0.432500005       1.23753562E-03
  0.435000002       1.23050425E-03
  0.437500000       1.22999912E-03
  0.439999998       1.23638532E-03
  0.442499995       1.24998076E-03
  0.444999993       1.27101911E-03
  0.447499990       1.29955413E-03
  0.449999988       1.33549527E-03
  0.452499986       1.37881818E-03
  0.455000013       1.42944127E-03
  0.457500011       1.48685777E-03
  0.460000008       1.55035837E-03
  0.462500006       1.61951140E-03
  0.465000004       1.69382954E-03
  0.467500001       1.77228882E-03
  0.469999999       1.85377209E-03
  0.472499996       1.93752861E-03
  0.474999994       2.02270807E-03
  0.477499992       2.10803654E-03
  0.479999989       2.19230331E-03
  0.482499987       2.27460894E-03
  0.485000014       2.35402328E-03
  0.487500012       2.42945924E-03
  0.490000010       2.49990076E-03
  0.492500007       2.56454223E-03
  0.495000005       2.62277992E-03
  0.497500002       2.67406250E-03
  0.500000000       2.71776947E-03
  0.502499998       2.75349640E-03
  0.504999995       2.78127426E-03
  0.507499993       2.80110701E-03
  0.509999990       2.81274342E-03
  0.512499988       2.81634391E-03
  0.514999986       2.81262700E-03
  0.517499983       2.80202692E-03
  0.519999981       2.78464356E-03
  0.522499979       2.76113302E-03
  0.524999976       2.73254164E-03
  0.527499974       2.69940356E-03
  0.529999971       2.66203959E-03
  0.532500029       2.62134988E-03
  0.535000026       2.57838122E-03
  0.537500024       2.53362977E-03
  0.540000021       2.48746551E-03
  0.542500019       2.44063395E-03
  0.545000017       2.39387341E-03
  0.547500014       2.34756269E-03
  0.550000012       2.30198260E-03
  0.552500010       2.25755223E-03
  0.555000007       2.21468438E-03
  0.557500005       2.17358093E-03
  0.560000002       2.13429541E-03
  0.562500000       2.09698384E-03
  0.564999998       2.06189090E-03
  0.567499995       2.02901289E-03
  0.569999993       1.99811580E-03
  0.572499990       1.96919008E-03
  0.574999988       1.94241956E-03
  0.577499986       1.91768399E-03
  0.579999983       1.89466414E-03
  0.582499981       1.87333254E-03
  0.584999979       1.85377884E-03
  0.587499976       1.83578290E-03
  0.589999974       1.81904610E-03
  0.592499971       1.80354121E-03
  0.595000029       1.78931141E-03
  0.597500026       1.77622784E-03
  0.600000024       1.76411425E-03
  0.602500021       1.75288517E-03
  0.605000019       1.74252060E-03
  0.607500017       1.73299201E-03
  0.610000014       1.72419823E-03
  0.612500012       1.71602401E-03
  0.615000010       1.70847098E-03
  0.617500007       1.70157198E-03
  0.620000005       1.69523992E-03
  0.622500002       1.68939750E-03
  0.625000000       1.68410013E-03
  0.627499998       1.67936087E-03
  0.629999995       1.67507213E-03
  0.632499993       1.67117594E-03
  0.634999990       1.66769687E-03
  0.637499988       1.66463654E-03
  0.639999986       1.66197133E-03
  0.642499983       1.65966898E-03
  0.644999981       1.65770098E-03
  0.647499979       1.65609689E-03
  0.649999976       1.65485602E-03
  0.652499974       1.65383390E-03
  0.654999971       1.65296160E-03
  0.657500029       1.65237975E-03
  0.660000026       1.65209523E-03
  0.662500024       1.65192562E-03
  0.665000021       1.65192084E-03
  0.667500019       1.65224297E-03
  0.670000017       1.65270048E-03
  0.672500014       1.65308104E-03
  0.675000012       1.65359455E-03
  0.677500010       1.65438012E-03
  0.680000007       1.65518699E-03
  0.682500005       1.65594544E-03
  0.685000002       1.65687723E-03
  0.687500000       1.65793940E-03
  0.689999998       1.65893894E-03
  0.692499995       1.65996212E-03
  0.694999993       1.66108890E-03
  0.697499990       1.66217866E-03
  0.699999988       1.66323571E-03
  0.702499986       1.66437100E-03
  0.704999983       1.66549464E-03
  0.707499981       1.66657171E-03
  0.709999979       1.66774949E-03
  0.712499976       1.66894728E-03
  0.714999974       1.66997965E-03
  0.717499971       1.67099386E-03
  0.720000029       1.67211751E-03
  0.722500026       1.67315337E-03
  0.725000024       1.67408818E-03
  0.727500021       1.67513941E-03
  0.730000019       1.67620182E-03
  0.732500017       1.67709705E-03
  0.735000014       1.67800952E-03
  0.737500012       1.67898508E-03
  0.740000010       1.67977321E-03
  0.742500007       1.68047170E-03
  0.745000005       1.68133690E-03
  0.747500002       1.68215053E-03
  0.750000000       1.68273924E-03
  0.752499998       1.68340420E-03
  0.754999995       1.68416265E-03
  0.757499993       1.68466731E-03
  0.759999990       1.68505171E-03
  0.762499988       1.68561935E-03
  0.764999986       1.68611784E-03
  0.767499983       1.68639305E-03
  0.769999981       1.68678525E-03
  0.772499979       1.68726617E-03
  0.774999976       1.68748596E-03
  0.777499974       1.68765849E-03
  0.779999971       1.68806256E-03
  0.782500029       1.68834452E-03
  0.785000026       1.68838119E-03
  0.787500024       1.68860785E-03
  0.790000021       1.68897992E-03
  0.792500019       1.68909726E-03
  0.795000017       1.68918935E-03
  0.797500014       1.68953720E-03
  0.800000012       1.68975932E-03
  0.802500010       1.68974721E-03
  0.805000007       1.68996910E-03
  0.807500005       1.69035781E-03
  0.810000002       1.69045816E-03
  0.812500000       1.69049657E-03
  0.814999998       1.69084570E-03
  0.817499995       1.69117644E-03
  0.819999993       1.69123756E-03
  0.822499990       1.69135851E-03
  0.824999988       1.69164035E-03
  0.827499986       1.69182860E-03
  0.829999983       1.69195561E-03
  0.832499981       1.69215538E-03
  0.834999979       1.69230637E-03
  0.837499976       1.69238495E-03
  0.839999974       1.69250439E-03
  0.842499971       1.69257808E-03
  0.845000029       1.69256015E-03
  0.847500026       1.69259298E-03
  0.850000024       1.69260264E-03
  0.852500021       1.69244676E-03
  0.855000019       1.69232790E-03
  0.857500017       1.69233012E-03
  0.860000014       1.69214595E-03
  0.862500012       1.69179239E-03
  0.865000010       1.69164443E-03
  0.867500007       1.69159437E-03
  0.870000005       1.69127330E-03
  0.872500002       1.69087085E-03
  0.875000000       1.69071753E-03
  0.877499998       1.69061380E-03
  0.879999995       1.69032835E-03
  0.882499993       1.69003231E-03
  0.884999990       1.68985943E-03
  0.887499988       1.68973149E-03
  0.889999986       1.68962020E-03
  0.892499983       1.68951892E-03
  0.894999981       1.68940949E-03
  0.897499979       1.68939226E-03
  0.899999976       1.68948190E-03
  0.902499974       1.68951217E-03
  0.904999971       1.68952288E-03
  0.907500029       1.68972602E-03
  0.910000026       1.69001252E-03
  0.912500024       1.69016700E-03
  0.915000021       1.69035327E-03
  0.917500019       1.69074698E-03
  0.920000017       1.69114384E-03
  0.922500014       1.69141707E-03
  0.925000012       1.69176201E-03
  0.927500010       1.69224932E-03
  0.930000007       1.69271894E-03
  0.932500005       1.69312663E-03
  0.935000002       1.69356493E-03
  0.937500000       1.69407227E-03
  0.939999998       1.69461244E-03
  0.942499995       1.69509323E-03
  0.944999993       1.69549184E-03
  0.947499990       1.69596681E-03
  0.949999988       1.69656368E-03
  0.952499986       1.69704820E-03
  0.954999983       1.69738149E-03
  0.957499981       1.69785682E-03
  0.959999979       1.69847207E-03
  0.962499976       1.69890106E-03
  0.964999974       1.69919350E-03
  0.967499971       1.69966184E-03
  0.970000029       1.70020410E-03
  0.972500026       1.70056452E-03
  0.975000024       1.70089642E-03
  0.977500021       1.70139794E-03
  0.980000019       1.70190411E-03
  0.982500017       1.70227583E-03
  0.985000014       1.70263997E-03
  0.987500012       1.70308794E-03
  0.990000010       1.70356664E-03
  0.992500007       1.70401519E-03
  0.995000005       1.70439400E-03
  0.997500002       1.70475780E-03
   1.00000000       1.70523755E-03
   1.00250006       1.70576549E-03
   1.00500000       1.70613604E-03
   1.00750005       1.70643488E-03
   1.00999999       1.70689053E-03
   1.01250005       1.70738040E-03
   1.01499999       1.70767959E-03
   1.01750004       1.70795387E-03
   1.01999998       1.70841324E-03
   1.02250004       1.70886924E-03
   1.02499998       1.70913502E-03
   1.02750003       1.70938985E-03
   1.02999997       1.70978112E-03
   1.03250003       1.71015097E-03
   1.03499997       1.71039777E-03
   1.03750002       1.71066460E-03
   1.03999996       1.71100919E-03
   1.04250002       1.71128800E-03
   1.04499996       1.71147671E-03
   1.04750001       1.71173888E-03
   1.04999995       1.71208777E-03
   1.05250001       1.71233632E-03
   1.05499995       1.71245937E-03
   1.05750000       1.71264331E-03
   1.05999994       1.71291432E-03
   1.06250000       1.71311840E-03
   1.06500006       1.71325530E-03
   1.06750000       1.71344390E-03
   1.07000005       1.71366066E-03
   1.07249999       1.71382225E-03
   1.07500005       1.71394425E-03
   1.07749999       1.71404774E-03
   1.08000004       1.71416241E-03
   1.08249998       1.71436858E-03
   1.08500004       1.71459035E-03
   1.08749998       1.71464682E-03
   1.09000003       1.71465182E-03
   1.09249997       1.71484379E-03
   1.09500003       1.71506195E-03
   1.09749997       1.71507231E-03
   1.10000002       1.71510689E-03
   1.10249996       1.71535870E-03
   1.10500002       1.71552529E-03
   1.10749996       1.71547348E-03
   1.11000001       1.71554647E-03
   1.11249995       1.71580014E-03
   1.11500001       1.71589921E-03
   1.11749995       1.71587605E-03
   1.12000000       1.71602110E-03
   1.12249994       1.71622366E-03
   1.12500000       1.71626732E-03
   1.12750006       1.71630504E-03
   1.13000000       1.71645882E-03
   1.13250005       1.71657826E-03
   1.13499999       1.71664578E-03
   1.13750005       1.71676662E-03
   1.13999999       1.71686802E-03
   1.14250004       1.71692460E-03
   1.14499998       1.71707699E-03
   1.14750004       1.71725359E-03
   1.14999998       1.71727361E-03
   1.15250003       1.71729829E-03
   1.15499997       1.71751087E-03
   1.15750003       1.71768339E-03
   1.15999997       1.71767548E-03
   1.16250002       1.71776360E-03
   1.16499996       1.71802239E-03
   1.16750002       1.71814393E-03
   1.16999996       1.71811215E-03
   1.17250001       1.71822030E-03
   1.17499995       1.71843031E-03
   1.17750001       1.71852112E-03
   1.17999995       1.71860377E-03
   1.18250000       1.71881868E-03
   1.18499994       1.71897968E-03
   1.18750000       1.71899749E-03
   1.19000006       1.71908294E-03
   1.19250000       1.71928131E-03
   1.19500005       1.71941356E-03
   1.19749999       1.71949482E-03
   1.20000005       1.71964848E-03
   1.20249999       1.71979715E-03
   1.20500004       1.71987782E-03
   1.20749998       1.72000623E-03
   1.21000004       1.72016607E-03
   1.21249998       1.72022975E-03
   1.21500003       1.72029110E-03
   1.21749997       1.72045466E-03
   1.22000003       1.72055594E-03
   1.22249997       1.72056060E-03
   1.22500002       1.72070472E-03
   1.22749996       1.72092917E-03
   1.23000002       1.72093662E-03
   1.23249996       1.72085781E-03
   1.23500001       1.72098540E-03
   1.23749995       1.72112009E-03
   1.24000001       1.72105362E-03
   1.24249995       1.72108377E-03
   1.24500000       1.72130181E-03
   1.24749994       1.72131043E-03
   1.25000000       1.72112475E-03
   1.25250006       1.72118656E-03
   1.25500000       1.72138296E-03
   1.25750005       1.72130798E-03
   1.25999999       1.72117050E-03
   1.26250005       1.72128656E-03
   1.26499999       1.72137807E-03
   1.26750004       1.72126305E-03
   1.26999998       1.72125280E-03
   1.27250004       1.72138482E-03
   1.27499998       1.72136549E-03
   1.27750003       1.72128668E-03
   1.27999997       1.72137062E-03
   1.28250003       1.72143977E-03
   1.28499997       1.72139506E-03
   1.28750002       1.72145932E-03
   1.28999996       1.72159902E-03
   1.29250002       1.72160205E-03
   1.29499996       1.72160962E-03
   1.29750001       1.72176783E-03
   1.29999995       1.72186783E-03
   1.30250001       1.72186934E-03
   1.30499995       1.72198936E-03
   1.30750000       1.72214722E-03
   1.30999994       1.72217609E-03
   1.31250000       1.72225654E-03
   1.31500006       1.72245060E-03
   1.31750000       1.72251475E-03
   1.32000005       1.72251381E-03
   1.32249999       1.72269286E-03
   1.32500005       1.72286306E-03
   1.32749999       1.72284083E-03
   1.33000004       1.72290683E-03
   1.33249998       1.72312942E-03
   1.33500004       1.72318041E-03
   1.33749998       1.72313128E-03
   1.34000003       1.72330346E-03
   1.34249997       1.72349566E-03
   1.34500003       1.72344758E-03
   1.34749997       1.72344630E-03
   1.35000002       1.72364502E-03
   1.35249996       1.72373315E-03
   1.35500002       1.72368449E-03
   1.35749996       1.72376574E-03
   1.36000001       1.72388298E-03
   1.36249995       1.72387215E-03
   1.36500001       1.72392209E-03
   1.36749995       1.72407203E-03
   1.37000000       1.72409753E-03
   1.37249994       1.72408973E-03
   1.37500000       1.72422884E-03
   1.37750006       1.72430091E-03
   1.38000000       1.72422652E-03
   1.38250005       1.72432465E-03
   1.38499999       1.72455737E-03
   1.38750005       1.72456831E-03
   1.38999999       1.72451383E-03
   1.39250004       1.72470964E-03
   1.39499998       1.72488031E-03
   1.39750004       1.72479684E-03
   1.39999998       1.72482536E-03
   1.40250003       1.72508834E-03
   1.40499997       1.72519020E-03
   1.40750003       1.72512373E-03
   1.40999997       1.72525842E-03
   1.41250002       1.72549998E-03
   1.41499996       1.72553340E-03
   1.41750002       1.72550860E-03
   1.41999996       1.72564841E-03
   1.42250001       1.72580243E-03
   1.42499995       1.72585680E-03
   1.42750001       1.72592234E-03
   1.42999995       1.72601303E-03
   1.43250000       1.72608951E-03
   1.43499994       1.72620628E-03
   1.43750000       1.72630721E-03
   1.44000006       1.72629999E-03
   1.44250000       1.72633468E-03
   1.44500005       1.72650139E-03
   1.44749999       1.72658917E-03
   1.45000005       1.72656053E-03
   1.45249999       1.72665995E-03
   1.45500004       1.72683748E-03
   1.45749998       1.72683015E-03
   1.46000004       1.72677229E-03
   1.46249998       1.72691233E-03
   1.46500003       1.72706984E-03
   1.46749997       1.72705750E-03
   1.47000003       1.72707101E-03
   1.47249997       1.72719930E-03
   1.47500002       1.72725448E-03
   1.47749996       1.72723993E-03
   1.48000002       1.72730023E-03
   1.48249996       1.72736845E-03
   1.48500001       1.72739278E-03
   1.48749995       1.72748347E-03
   1.49000001       1.72757474E-03
   1.49249995       1.72754494E-03
   1.49500000       1.72756333E-03
   1.49749994       1.72771048E-03
   1.50000000       1.72773015E-03
   1.50250006       1.72763062E-03
   1.50500000       1.72773737E-03
   1.50750005       1.72794261E-03
   1.50999999       1.72789767E-03
   1.51250005       1.72780477E-03
   1.51499999       1.72797323E-03
   1.51750004       1.72812177E-03
   1.51999998       1.72802422E-03
   1.52250004       1.72801747E-03
   1.52499998       1.72822794E-03
   1.52750003       1.72832201E-03
   1.52999997       1.72828406E-03
   1.53250003       1.72839081E-03
   1.53499997       1.72854669E-03
   1.53750002       1.72856008E-03
   1.53999996       1.72859372E-03
   1.54250002       1.72873389E-03
   1.54499996       1.72880560E-03
   1.54750001       1.72884518E-03
   1.54999995       1.72898883E-03
   1.55250001       1.72908034E-03
   1.55499995       1.72904972E-03
   1.55750000       1.72913715E-03
   1.55999994       1.72932609E-03
   1.56250000       1.72933703E-03
   1.56500006       1.72927813E-03
   1.56750000       1.72942132E-03
   1.57000005       1.72957510E-03
   1.57249999       1.72951655E-03
   1.57500005       1.72950176E-03
   1.57749999       1.72968523E-03
   1.58000004       1.72977138E-03
   1.58249998       1.72967731E-03
   1.58500004       1.72971038E-03
   1.58749998       1.72989781E-03
   1.59000003       1.72994810E-03
   1.59249997       1.72988011E-03
   1.59500003       1.72995694E-03
   1.59749997       1.73013459E-03
   1.60000002       1.73018454E-03
   1.60249996       1.73015438E-03
   1.60500002       1.73023145E-03
   1.60749996       1.73036894E-03
   1.61000001       1.73041865E-03
   1.61249995       1.73043925E-03
   1.61500001       1.73054368E-03
   1.61749995       1.73064915E-03
   1.62000000       1.73065544E-03
   1.62249994       1.73065439E-03
   1.62500000       1.73073180E-03
   1.62750006       1.73080852E-03
   1.63000000       1.73083914E-03
   1.63250005       1.73088291E-03
   1.63499999       1.73092110E-03
   1.63750005       1.73091306E-03
   1.63999999       1.73093681E-03
   1.64250004       1.73100422E-03
   1.64499998       1.73099653E-03
   1.64750004       1.73095742E-03
   1.64999998       1.73103379E-03
   1.65250003       1.73112354E-03
   1.65499997       1.73108338E-03
   1.65750003       1.73107709E-03
   1.65999997       1.73121842E-03
   1.66250002       1.73128431E-03
   1.66499996       1.73120026E-03
   1.66750002       1.73122634E-03
   1.66999996       1.73141260E-03
   1.67250001       1.73151621E-03
   1.67499995       1.73151249E-03
   1.67750001       1.73158036E-03
   1.67999995       1.73170341E-03
   1.68250000       1.73177221E-03
   1.68499994       1.73182518E-03
   1.68750000       1.73192285E-03
   1.69000006       1.73203868E-03
   1.69250000       1.73213996E-03
   1.69500005       1.73221482E-03
   1.69749999       1.73227955E-03
   1.70000005       1.73237594E-03
   1.70249999       1.73246360E-03
   1.70500004       1.73248118E-03
   1.70749998       1.73251843E-03
   1.71000004       1.73264428E-03
   1.71249998       1.73272612E-03
   1.71500003       1.73271017E-03
   1.71749997       1.73273718E-03
   1.72000003       1.73281180E-03
   1.72249997       1.73282251E-03
   1.72500002       1.73284346E-03
   1.72749996       1.73292635E-03
   1.73000002       1.73293171E-03
   1.73249996       1.73290051E-03
   1.73500001       1.73300330E-03
   1.73749995       1.73308898E-03
   1.74000001       1.73300540E-03
   1.74249995       1.73300528E-03
   1.74500000       1.73317536E-03
   1.74749994       1.73319667E-03
   1.75000000       1.73309923E-03
   1.75250006       1.73321937E-03
   1.75500000       1.73339446E-03
   1.75750005       1.73332577E-03
   1.75999999       1.73328165E-03
   1.76250005       1.73345418E-03
   1.76499999       1.73350947E-03
   1.76750004       1.73340109E-03
   1.76999998       1.73348258E-03
   1.77250004       1.73367048E-03
   1.77499998       1.73366081E-03
   1.77750003       1.73361413E-03
   1.77999997       1.73369551E-03
   1.78250003       1.73371239E-03
   1.78499997       1.73368026E-03
   1.78750002       1.73378224E-03
   1.78999996       1.73384894E-03
   1.79250002       1.73377432E-03
   1.79499996       1.73382054E-03
   1.79750001       1.73395872E-03
   1.79999995       1.73390761E-03
   1.80250001       1.73385267E-03
   1.80499995       1.73402030E-03
   1.80750000       1.73409085E-03
   1.80999994       1.73395115E-03
   1.81250000       1.73399411E-03
   1.81500006       1.73419656E-03
   1.81750000       1.73418911E-03
   1.82000005       1.73413218E-03
   1.82249999       1.73427863E-03
   1.82500005       1.73434871E-03
   1.82749999       1.73424720E-03
   1.83000004       1.73430727E-03
   1.83249998       1.73446175E-03
   1.83500004       1.73442648E-03
   1.83749998       1.73440890E-03
   1.84000003       1.73455570E-03
   1.84249997       1.73456315E-03
   1.84500003       1.73446420E-03
   1.84749997       1.73457421E-03
   1.85000002       1.73467491E-03
   1.85249996       1.73454080E-03
   1.85500002       1.73455372E-03
   1.85749996       1.73478178E-03
   1.86000001       1.73474511E-03
   1.86249995       1.73456070E-03
   1.86500001       1.73471321E-03
   1.86749995       1.73490960E-03
   1.87000000       1.73475768E-03
   1.87249994       1.73468562E-03
   1.87500000       1.73491251E-03
   1.87750006       1.73493777E-03
   1.88000000       1.73475617E-03
   1.88250005       1.73486792E-03
   1.88499999       1.73509354E-03
   1.88750005       1.73500541E-03
   1.88999999       1.73489586E-03
   1.89250004       1.73503440E-03
   1.89499998       1.73509307E-03
   1.89750004       1.73501752E-03
   1.89999998       1.73511950E-03
   1.90250003       1.73524010E-03
   1.90499997       1.73513126E-03
   1.90750003       1.73509191E-03
   1.90999997       1.73525407E-03
   1.91250002       1.73526199E-03
   1.91499996       1.73515116E-03
   1.91750002       1.73527666E-03
   1.91999996       1.73542532E-03
   1.92250001       1.73526921E-03
   1.92499995       1.73514674E-03
   1.92750001       1.73533231E-03
   1.92999995       1.73545035E-03
   1.93250000       1.73531997E-03
   1.93499994       1.73528818E-03
   1.93750000       1.73541822E-03
   1.94000006       1.73542905E-03
   1.94250000       1.73536071E-03
   1.94500005       1.73540995E-03
   1.94749999       1.73547585E-03
   1.95000005       1.73546071E-03
   1.95249999       1.73547259E-03
   1.95500004       1.73550774E-03
   1.95749998       1.73550169E-03
   1.96000004       1.73555361E-03
   1.96249998       1.73565466E-03
   1.96500003       1.73562509E-03
   1.96749997       1.73554942E-03
   1.97000003       1.73563207E-03
   1.97249997       1.73571380E-03
   1.97500002       1.73562765E-03
   1.97749996       1.73562625E-03
   1.98000002       1.73580449E-03