 -0.159999996       0.00000000    
 -0.157499999       0.00000000    
 -0.155000001       0.00000000    
 -0.152500004       0.00000000    
 -0.150000006       0.00000000    
 -0.147499993       0.00000000    
 -0.144999996       0.00000000    
 -0.142499998       2.41834338E-18
 -0.140000001       1.33899895E-17
 -0.137500003      -2.83591197E-17
 -0.135000005      -2.53514394E-16
 -0.132499993       9.48183504E-16
 -0.129999995       1.12057377E-15
 -0.127499998      -8.41665299E-15
 -0.125000000      -9.10099632E-16
 -0.122500002       4.34508319E-14
 -0.119999997      -9.20216594E-15
 -0.117500000      -1.60757827E-13
 -0.115000002       3.84061543E-14
 -0.112499997       4.61583625E-13
 -0.109999999      -2.88516769E-14
 -0.107500002      -1.04193520E-12
 -0.104999997      -3.35842736E-13
 -0.102499999       1.74683445E-12
 -0.100000001       1.90563754E-12
  -9.74999964E-02  -1.62164271E-12
  -9.49999988E-02  -6.10414670E-12
  -9.25000012E-02  -1.67841739E-12
  -9.00000036E-02   1.42702829E-11
  -8.74999985E-02   1.15587991E-11
  -8.50000009E-02  -2.64320562E-11
  -8.25000033E-02  -3.01346448E-11
  -7.99999982E-02   4.08963662E-11
  -7.75000006E-02   5.45248638E-11
  -7.50000030E-02  -5.59528084E-11
  -7.24999979E-02  -7.52203022E-11
  -7.00000003E-02   7.18458487E-11
  -6.75000027E-02   7.98025743E-11
  -6.49999976E-02  -8.76353434E-11
  -6.25000000E-02  -6.01901723E-11
  -5.99999987E-02   8.94411351E-11
  -5.75000010E-02   1.61888142E-11
  -5.49999997E-02  -3.42786216E-11
  -5.24999984E-02   5.34394924E-11
  -5.00000007E-02  -1.53889818E-10
  -4.74999994E-02  -1.72854703E-10
  -4.50000018E-02   5.45762990E-10
  -4.25000004E-02   3.87914534E-10
  -3.99999991E-02  -1.12399601E-09
  -3.75000015E-02  -6.69764799E-10
  -3.50000001E-02   1.77434645E-09
  -3.24999988E-02   7.74617925E-10
  -2.99999993E-02  -2.49419685E-09
  -2.74999999E-02  -3.77446963E-10
  -2.50000004E-02   3.55862140E-09
  -2.25000009E-02  -4.16052304E-10
  -1.99999996E-02  -5.04187314E-09
  -1.75000001E-02   1.01110764E-09
  -1.49999997E-02   6.08707751E-09
  -1.25000002E-02  -1.39159306E-09
  -9.99999978E-03  -5.59987434E-09
  -7.49999983E-03   2.60551536E-09
  -4.99999989E-03   4.01186018E-09
  -2.49999994E-03  -4.81144280E-09
   0.00000000      -2.60070365E-09
   2.49999994E-03   6.00220984E-09
   4.99999989E-03   7.16311011E-10
   7.49999983E-03  -4.75274309E-09
   9.99999978E-03   3.44500894E-09
   1.25000002E-02   2.09619655E-09
   1.49999997E-02  -9.83209691E-09
   1.75000001E-02   4.90618213E-10
   1.99999996E-02   1.69499401E-08
   2.25000009E-02  -9.99115457E-10
   2.50000004E-02  -1.98113259E-08
   2.74999999E-02   2.23369945E-09
   2.99999993E-02   1.60534377E-08
   3.24999988E-02  -1.21751240E-08
   3.50000001E-02  -2.23205880E-08
   3.75000015E-02   1.26920696E-09
   3.99999991E-02  -7.43153361E-09
   4.25000004E-02  -3.94565554E-08
   4.50000018E-02  -3.06376968E-08
   4.74999994E-02  -1.73530452E-08
   5.00000007E-02  -5.69532084E-08
   5.24999984E-02  -9.68339933E-08
   5.49999997E-02  -1.01292940E-07
   5.75000010E-02  -1.31225335E-07
   5.99999987E-02  -1.95661329E-07
   6.25000000E-02  -2.47783390E-07
   6.49999976E-02  -3.24044748E-07
   6.75000027E-02  -4.60425440E-07
   7.00000003E-02  -5.94967048E-07
   7.24999979E-02  -7.34357059E-07
   7.50000030E-02  -9.84026315E-07
   7.75000006E-02  -1.32512616E-06
   7.99999982E-02  -1.66973086E-06
   8.25000033E-02  -2.10150301E-06
   8.50000009E-02  -2.73471187E-06
   8.74999985E-02  -3.50392270E-06
   9.00000036E-02  -4.37854396E-06
   9.25000012E-02  -5.50590312E-06
   9.49999988E-02  -6.95680774E-06
   9.74999964E-02  -8.67355448E-06
  0.100000001      -1.07219421E-05
  0.102499999      -1.32578734E-05
  0.104999997      -1.63335735E-05
  0.107500002      -1.99963961E-05
  0.109999999      -2.43805353E-05
  0.112499997      -2.95790760E-05
  0.115000002      -3.56773598E-05
  0.117500000      -4.28745479E-05
  0.119999997      -5.13475752E-05
  0.122500002      -6.11804207E-05
  0.125000000      -7.25480568E-05
  0.127499998      -8.56928018E-05
  0.129999995      -1.00756457E-04
  0.132499993      -1.17915428E-04
  0.135000005      -1.37469091E-04
  0.137500003      -1.59605421E-04
  0.140000001      -1.84430246E-04
  0.142499998      -2.12241910E-04
  0.144999996      -2.43360875E-04
  0.147499993      -2.77878484E-04
  0.150000006      -3.15929094E-04
  0.152500004      -3.57818441E-04
  0.155000001      -4.03693848E-04
  0.157499999      -4.53601999E-04
  0.159999996      -5.07796649E-04
  0.162499994      -5.66461531E-04
  0.165000007      -6.29482092E-04
  0.167500004      -6.96887611E-04
  0.170000002      -7.68916041E-04
  0.172499999      -8.45501316E-04
  0.174999997      -9.26409324E-04
  0.177499995      -1.01168943E-03
  0.180000007      -1.10132527E-03
  0.182500005      -1.19497441E-03
  0.185000002      -1.29248644E-03
  0.187500000      -1.39387324E-03
  0.189999998      -1.49873598E-03
  0.192499995      -1.60662539E-03
  0.194999993      -1.71752786E-03
  0.197500005      -1.83119648E-03
  0.200000003      -1.94690027E-03
  0.202500001      -2.06433912E-03
  0.204999998      -2.18356238E-03
  0.207499996      -2.30394700E-03
  0.209999993      -2.42462615E-03
  0.212500006      -2.54543195E-03
  0.215000004      -2.66614952E-03
  0.217500001      -2.78583099E-03
  0.219999999      -2.90372036E-03
  0.222499996      -3.01954034E-03
  0.224999994      -3.13251466E-03
  0.227500007      -3.24149593E-03
  0.230000004      -3.34579870E-03
  0.232500002      -3.44467931E-03
  0.234999999      -3.53678106E-03
  0.237499997      -3.62085016E-03
  0.239999995      -3.69589753E-03
  0.242500007      -3.76045494E-03
  0.245000005      -3.81282950E-03
  0.247500002      -3.85169010E-03
  0.250000000      -3.87546024E-03
  0.252499998      -3.88209545E-03
  0.254999995      -3.86992097E-03
  0.257499993      -3.83747951E-03
  0.259999990      -3.78272822E-03
  0.262499988      -3.70367873E-03
  0.264999986      -3.59909399E-03
  0.267500013      -3.46761080E-03
  0.270000011      -3.30747385E-03
  0.272500008      -3.11764679E-03
  0.275000006      -2.89775687E-03
  0.277500004      -2.64716637E-03
  0.280000001      -2.36551231E-03
  0.282499999      -2.05345568E-03
  0.284999996      -1.71196926E-03
  0.287499994      -1.34205539E-03
  0.289999992      -9.45587293E-04
  0.292499989      -5.25188923E-04
  0.294999987      -8.35309474E-05
  0.297500014       3.76194163E-04
  0.300000012       8.49892851E-04
  0.302500010       1.33334112E-03
  0.305000007       1.82229001E-03
  0.307500005       2.31178780E-03
  0.310000002       2.79657310E-03
  0.312500000       3.27176461E-03
  0.314999998       3.73240514E-03
  0.317499995       4.17325599E-03
  0.319999993       4.58953343E-03
  0.322499990       4.97696502E-03
  0.324999988       5.33137284E-03
  0.327499986       5.64910378E-03
  0.330000013       5.92732336E-03
  0.332500011       6.16357615E-03
  0.335000008       6.35598926E-03
  0.337500006       6.50375290E-03
  0.340000004       6.60658069E-03
  0.342500001       6.66448753E-03
  0.344999999       6.67861942E-03
  0.347499996       6.65104017E-03
  0.349999994       6.58366177E-03
  0.352499992       6.47881068E-03
  0.354999989       6.34010881E-03
  0.357499987       6.17136201E-03
  0.360000014       5.97571814E-03
  0.362500012       5.75689925E-03
  0.365000010       5.51951025E-03
  0.367500007       5.26754605E-03
  0.370000005       5.00429468E-03
  0.372500002       4.73358110E-03
  0.375000000       4.45940392E-03
  0.377499998       4.18485003E-03
  0.379999995       3.91252292E-03
  0.382499993       3.64517048E-03
  0.384999990       3.38524114E-03
  0.387499988       3.13459965E-03
  0.389999986       2.89475056E-03
  0.392500013       2.66683102E-03
  0.395000011       2.45173345E-03
  0.397500008       2.25029187E-03
  0.400000006       2.06282130E-03
  0.402500004       1.88904221E-03
  0.405000001       1.72894297E-03
  0.407499999       1.58268155E-03
  0.409999996       1.44957064E-03
  0.412499994       1.32857612E-03
  0.414999992       1.21943781E-03
  0.417499989       1.12186815E-03
  0.419999987       1.03460660E-03
  0.422500014       9.56554839E-04
  0.425000012       8.87502218E-04
  0.427500010       8.26887204E-04
  0.430000007       7.73419684E-04
  0.432500005       7.26300525E-04
  0.435000002       6.85307139E-04
  0.437500000       6.49790629E-04
  0.439999998       6.18806051E-04
  0.442499995       5.91809861E-04
  0.444999993       5.68487274E-04
  0.447499990       5.48411394E-04
  0.449999988       5.31095488E-04
  0.452499986       5.15999447E-04
  0.455000013       5.02724492E-04
  0.457500011       4.91236628E-04
  0.460000008       4.81353549E-04
  0.462500006       4.72432410E-04
  0.465000004       4.64192563E-04
  0.467500001       4.56950569E-04
  0.469999999       4.50551684E-04
  0.472499996       4.44341393E-04
  0.474999994       4.38355317E-04
  0.477499992       4.33047418E-04
  0.479999989       4.28100931E-04
  0.482499987       4.22996876E-04
  0.485000014       4.18073789E-04
  0.487500012       4.13720321E-04
  0.490000010       4.09532484E-04
  0.492500007       4.05237195E-04
  0.495000005       4.01248719E-04
  0.497500002       3.97745869E-04
  0.500000000       3.94387316E-04
  0.502499998       3.91115929E-04
  0.504999995       3.88227927E-04
  0.507499993       3.85771069E-04
  0.509999990       3.83593084E-04
  0.512499988       3.81688791E-04
  0.514999986       3.80126672E-04
  0.517499983       3.78943398E-04
  0.519999981       3.78152734E-04
  0.522499979       3.77665361E-04
  0.524999976       3.77413497E-04
  0.527499974       3.77540448E-04
  0.529999971       3.78112454E-04
  0.532500029       3.78899305E-04
  0.535000026       3.79805395E-04
  0.537500024       3.81047168E-04
  0.540000021       3.82635597E-04
  0.542500019       3.84295738E-04
  0.545000017       3.86012718E-04
  0.547500014       3.87996872E-04
  0.550000012       3.90170026E-04
  0.552500010       3.92295216E-04
  0.555000007       3.94405855E-04
  0.557500005       3.96631716E-04
  0.560000002       3.98894423E-04
  0.562500000       4.01068595E-04
  0.564999998       4.03151993E-04
  0.567499995       4.05182887E-04
  0.569999993       4.07184009E-04
  0.572499990       4.09113418E-04
  0.574999988       4.10837820E-04
  0.577499986       4.12346824E-04
  0.579999983       4.13823116E-04
  0.582499981       4.15266055E-04
  0.584999979       4.16426861E-04
  0.587499976       4.17316449E-04
  0.589999974       4.18213924E-04
  0.592499971       4.19067161E-04
  0.595000029       4.19574848E-04
  0.597500026       4.19835502E-04
  0.600000024       4.20174794E-04
  0.602500021       4.20492113E-04
  0.605000019       4.20496450E-04
  0.607500017       4.20313503E-04
  0.610000014       4.20227356E-04
  0.612500012       4.20151337E-04
  0.615000010       4.19863063E-04
  0.617500007       4.19451040E-04
  0.620000005       4.19147545E-04
  0.622500002       4.18934302E-04
  0.625000000       4.18596028E-04
  0.627499998       4.18103271E-04
  0.629999995       4.17700852E-04
  0.632499993       4.17491538E-04
  0.634999990       4.17202915E-04
  0.637499988       4.16673603E-04
  0.639999986       4.16204857E-04
  0.642499983       4.15985211E-04
  0.644999981       4.15671122E-04
  0.647499979       4.15048271E-04
  0.649999976       4.14458540E-04
  0.652499974       4.14088194E-04
  0.654999971       4.13593691E-04
  0.657500029       4.12811583E-04
  0.660000026       4.12040681E-04
  0.662500024       4.11398592E-04
  0.665000021       4.10642911E-04
  0.667500019       4.09691798E-04
  0.670000017       4.08723281E-04
  0.672500014       4.07821673E-04
  0.675000012       4.06903418E-04
  0.677500010       4.05892642E-04
  0.680000007       4.04833088E-04
  0.682500005       4.03859158E-04
  0.685000002       4.02984821E-04
  0.687500000       4.02053643E-04
  0.689999998       4.01089346E-04
  0.692499995       4.00332618E-04
  0.694999993       3.99736309E-04
  0.697499990       3.99019336E-04
  0.699999988       3.98300617E-04
  0.702499986       3.97902215E-04
  0.704999983       3.97657714E-04
  0.707499981       3.97263560E-04
  0.709999979       3.96929972E-04
  0.712499976       3.96904390E-04
  0.714999974       3.96957708E-04
  0.717499971       3.96916555E-04
  0.720000029       3.96979332E-04
  0.722500026       3.97230178E-04
  0.725000024       3.97537253E-04
  0.727500021       3.97882861E-04
  0.730000019       3.98285978E-04
  0.732500017       3.98710021E-04
  0.735000014       3.99232144E-04
  0.737500012       3.99865181E-04
  0.740000010       4.00422141E-04
  0.742500007       4.00944875E-04
  0.745000005       4.01681027E-04
  0.747500002       4.02483478E-04
  0.750000000       4.03075566E-04
  0.752499998       4.03696002E-04
  0.754999995       4.04563238E-04
  0.757499993       4.05343628E-04
  0.759999990       4.05920378E-04
  0.762499988       4.06673411E-04
  0.764999986       4.07572195E-04
  0.767499983       4.08234599E-04
  0.769999981       4.08834137E-04
  0.772499979       4.09690983E-04
  0.774999976       4.10511275E-04
  0.777499974       4.11071698E-04
  0.779999971       4.11709421E-04
  0.782500029       4.12506808E-04
  0.785000026       4.13150177E-04
  0.787500024       4.13705420E-04
  0.790000021       4.14403359E-04
  0.792500019       4.15061833E-04
  0.795000017       4.15574352E-04
  0.797500014       4.16173658E-04
  0.800000012       4.16814466E-04
  0.802500010       4.17273608E-04
  0.805000007       4.17725765E-04
  0.807500005       4.18316369E-04
  0.810000002       4.18790383E-04
  0.812500000       4.19132353E-04
  0.814999998       4.19618445E-04
  0.817499995       4.20119730E-04
  0.819999993       4.20395896E-04
  0.822499990       4.20681696E-04
  0.824999988       4.21114586E-04
  0.827499986       4.21412406E-04
  0.829999983       4.21591161E-04
  0.832499981       4.21923003E-04
  0.834999979       4.22236568E-04
  0.837499976       4.22332640E-04
  0.839999974       4.22501151E-04
  0.842499971       4.22810990E-04
  0.845000029       4.22906218E-04
  0.847500026       4.22869285E-04
  0.850000024       4.23053309E-04
  0.852500021       4.23245074E-04
  0.855000019       4.23179212E-04
  0.857500017       4.23178339E-04
  0.860000014       4.23384045E-04
  0.862500012       4.23426332E-04
  0.865000010       4.23293037E-04
  0.867500007       4.23319871E-04
  0.870000005       4.23408725E-04
  0.872500002       4.23341349E-04
  0.875000000       4.23296558E-04
  0.877499998       4.23334772E-04
  0.879999995       4.23260906E-04
  0.882499993       4.23199264E-04
  0.884999990       4.23312566E-04
  0.887499988       4.23317018E-04
  0.889999986       4.23127931E-04
  0.892499983       4.23130434E-04
  0.894999981       4.23300633E-04
  0.897499979       4.23238147E-04
  0.899999976       4.23108781E-04
  0.902499974       4.23273654E-04
  0.904999971       4.23435995E-04
  0.907500029       4.23310557E-04
  0.910000026       4.23269666E-04
  0.912500024       4.23483929E-04
  0.915000021       4.23561025E-04
  0.917500019       4.23460238E-04
  0.920000017       4.23552090E-04
  0.922500014       4.23777034E-04
  0.925000012       4.23835969E-04
  0.927500010       4.23848833E-04
  0.930000007       4.24004829E-04
  0.932500005       4.24153492E-04
  0.935000002       4.24209808E-04
  0.937500000       4.24308266E-04
  0.939999998       4.24449390E-04
  0.942499995       4.24563332E-04
  0.944999993       4.24719561E-04
  0.947499990       4.24902799E-04
  0.949999988       4.24992089E-04
  0.952499986       4.25074162E-04
  0.954999983       4.25282546E-04
  0.957499981       4.25476319E-04
  0.959999979       4.25547099E-04
  0.962499976       4.25681443E-04
  0.964999974       4.25955077E-04
  0.967499971       4.26166633E-04
  0.970000029       4.26282320E-04
  0.972500026       4.26485174E-04
  0.975000024       4.26752551E-04
  0.977500021       4.26932267E-04
  0.980000019       4.27108200E-04
  0.982500017       4.27399907E-04
  0.985000014       4.27664898E-04
  0.987500012       4.27803810E-04
  0.990000010       4.27998020E-04
  0.992500007       4.28332161E-04
  0.995000005       4.28604311E-04
  0.997500002       4.28731990E-04
   1.00000000       4.28897503E-04
   1.00250006       4.29156702E-04
   1.00500000       4.29351465E-04
   1.00750005       4.29460400E-04
   1.00999999       4.29620442E-04
   1.01250005       4.29826439E-04
   1.01499999       4.29962471E-04
   1.01750004       4.30036627E-04
   1.01999998       4.30123939E-04
   1.02250004       4.30220301E-04
   1.02499998       4.30301821E-04
   1.02750003       4.30362823E-04
   1.02999997       4.30375920E-04
   1.03250003       4.30362183E-04
   1.03499997       4.30386834E-04
   1.03750002       4.30407410E-04
   1.03999996       4.30340675E-04
   1.04250002       4.30256507E-04
   1.04499996       4.30223794E-04
   1.04750001       4.30129061E-04
   1.04999995       4.29938926E-04
   1.05250001       4.29826789E-04
   1.05499995       4.29797947E-04
   1.05750000       4.29637323E-04
   1.05999994       4.29367821E-04
   1.06250000       4.29219159E-04
   1.06500006       4.29139502E-04
   1.06750000       4.28908621E-04
   1.07000005       4.28607891E-04
   1.07249999       4.28442261E-04
   1.07500005       4.28332161E-04
   1.07749999       4.28118510E-04
   1.08000004       4.27876133E-04
   1.08249998       4.27722262E-04
   1.08500004       4.27607330E-04
   1.08749998       4.27463674E-04
   1.09000003       4.27326129E-04
   1.09249997       4.27244930E-04
   1.09500003       4.27208637E-04
   1.09749997       4.27160470E-04
   1.10000002       4.27093240E-04
   1.10249996       4.27101564E-04
   1.10500002       4.27217165E-04
   1.10749996       4.27291408E-04
   1.11000001       4.27259016E-04
   1.11249995       4.27297287E-04
   1.11500001       4.27476043E-04
   1.11749995       4.27600840E-04
   1.12000000       4.27624880E-04
   1.12249994       4.27748862E-04
   1.12500000       4.27973224E-04
   1.12750006       4.28083906E-04
   1.13000000       4.28101106E-04
   1.13250005       4.28218307E-04
   1.13499999       4.28400235E-04
   1.13750005       4.28496569E-04
   1.13999999       4.28545056E-04
   1.14250004       4.28630970E-04
   1.14499998       4.28712578E-04
   1.14750004       4.28761879E-04
   1.14999998       4.28815605E-04
   1.15250003       4.28859959E-04
   1.15499997       4.28866711E-04
   1.15750003       4.28863132E-04
   1.15999997       4.28865285E-04
   1.16250002       4.28871484E-04
   1.16499996       4.28893341E-04
   1.16750002       4.28901432E-04
   1.16999996       4.28875006E-04
   1.17250001       4.28891624E-04
   1.17499995       4.28961503E-04
   1.17750001       4.28948842E-04
   1.17999995       4.28874599E-04
   1.18250000       4.28940111E-04
   1.18499994       4.29096021E-04
   1.18750000       4.29103966E-04
   1.19000006       4.29049425E-04
   1.19250000       4.29170206E-04
   1.19500005       4.29332315E-04
   1.19749999       4.29331732E-04
   1.20000005       4.29349835E-04
   1.20249999       4.29526146E-04
   1.20500004       4.29642008E-04
   1.20749998       4.29640437E-04
   1.21000004       4.29753884E-04
   1.21249998       4.29948326E-04
   1.21500003       4.30009357E-04
   1.21749997       4.30054875E-04
   1.22000003       4.30238346E-04
   1.22249997       4.30357322E-04
   1.22500002       4.30333515E-04
   1.22749996       4.30435583E-04
   1.23000002       4.30680549E-04
   1.23249996       4.30793327E-04
   1.23500001       4.30813088E-04
   1.23749995       4.30949789E-04
   1.24000001       4.31093678E-04
   1.24249995       4.31126566E-04
   1.24500000       4.31211782E-04
   1.24749994       4.31371096E-04
   1.25000000       4.31434280E-04
   1.25250006       4.31472377E-04
   1.25500000       4.31604480E-04
   1.25750005       4.31671389E-04
   1.25999999       4.31645341E-04
   1.26250005       4.31748544E-04
   1.26499999       4.31896799E-04
   1.26750004       4.31845459E-04
   1.26999998       4.31788503E-04
   1.27250004       4.31937893E-04
   1.27499998       4.32008907E-04
   1.27750003       4.31882363E-04
   1.27999997       4.31918917E-04
   1.28250003       4.32125409E-04
   1.28499997       4.32100001E-04
   1.28750002       4.31929424E-04
   1.28999996       4.31986467E-04
   1.29250002       4.32108354E-04
   1.29499996       4.32016765E-04
   1.29750001       4.31937573E-04
   1.29999995       4.32035129E-04
   1.30250001       4.32060042E-04
   1.30499995       4.31952765E-04
   1.30750000       4.31936642E-04
   1.30999994       4.31992754E-04
   1.31250000       4.31962719E-04
   1.31500006       4.31895256E-04
   1.31750000       4.31864115E-04
   1.32000005       4.31853405E-04
   1.32249999       4.31885535E-04
   1.32500005       4.31905035E-04
   1.32749999       4.31819586E-04
   1.33000004       4.31774009E-04
   1.33249998       4.31867142E-04
   1.33500004       4.31847322E-04
   1.33749998       4.31660243E-04
   1.34000003       4.31654771E-04
   1.34249997       4.31816268E-04
   1.34500003       4.31761029E-04
   1.34749997       4.31596593E-04
   1.35000002       4.31666966E-04
   1.35249996       4.31757071E-04
   1.35500002       4.31613298E-04
   1.35749996       4.31535358E-04
   1.36000001       4.31663706E-04
   1.36249995       4.31676279E-04
   1.36500001       4.31549270E-04
   1.36749995       4.31553170E-04
   1.37000000       4.31618479E-04
   1.37249994       4.31589608E-04
   1.37500000       4.31577791E-04
   1.37750006       4.31585097E-04
   1.38000000       4.31521010E-04
   1.38250005       4.31530672E-04
   1.38499999       4.31614579E-04
   1.38750005       4.31531749E-04
   1.38999999       4.31439665E-04
   1.39250004       4.31611814E-04
   1.39499998       4.31708642E-04
   1.39750004       4.31499910E-04
   1.39999998       4.31474327E-04
   1.40250003       4.31732915E-04
   1.40499997       4.31702851E-04
   1.40750003       4.31476859E-04
   1.40999997       4.31628927E-04
   1.41250002       4.31856228E-04
   1.41499996       4.31675551E-04
   1.41750002       4.31563443E-04
   1.41999996       4.31828405E-04
   1.42250001       4.31887951E-04
   1.42499995       4.31643421E-04
   1.42750001       4.31676075E-04
   1.42999995       4.31888184E-04
   1.43250000       4.31823952E-04
   1.43499994       4.31731634E-04
   1.43750000       4.31853114E-04
   1.44000006       4.31880966E-04
   1.44250000       4.31833294E-04
   1.44500005       4.31963737E-04
   1.44749999       4.31998633E-04
   1.45000005       4.31833003E-04
   1.45249999       4.31922497E-04
   1.45500004       4.32154600E-04
   1.45749998       4.32017783E-04
   1.46000004       4.31879860E-04
   1.46249998       4.32174740E-04
   1.46500003       4.32288361E-04
   1.46749997       4.31963213E-04
   1.47000003       4.31981083E-04
   1.47249997       4.32361383E-04
   1.47500002       4.32284083E-04
   1.47749996       4.31993947E-04
   1.48000002       4.32225381E-04
   1.48249996       4.32508270E-04
   1.48500001       4.32298082E-04
   1.48749995       4.32196568E-04
   1.49000001       4.32490167E-04
   1.49249995       4.32556175E-04
   1.49500000       4.32365516E-04
   1.49749994       4.32444300E-04
   1.50000000       4.32630419E-04
   1.50250006       4.32603934E-04
   1.50500000       4.32622328E-04
   1.50750005       4.32734727E-04
   1.50999999       4.32682660E-04
   1.51250005       4.32672008E-04
   1.51499999       4.32866771E-04
   1.51750004       4.32886562E-04
   1.51999998       4.32745583E-04
   1.52250004       4.32894856E-04
   1.52499998       4.33108333E-04
   1.52750003       4.32970643E-04
   1.52999997       4.32891073E-04
   1.53250003       4.33150271E-04
   1.53499997       4.33225621E-04
   1.53750002       4.33031062E-04
   1.53999996       4.33111156E-04
   1.54250002       4.33353620E-04
   1.54499996       4.33287845E-04
   1.54750001       4.33180743E-04
   1.54999995       4.33358480E-04
   1.55250001       4.33483656E-04
   1.55499995       4.33406647E-04
   1.55750000       4.33432317E-04
   1.55999994       4.33535199E-04
   1.56250000       4.33519686E-04
   1.56500006       4.33533336E-04
   1.56750000       4.33630194E-04
   1.57000005       4.33645066E-04
   1.57249999       4.33672132E-04
   1.57500005       4.33786394E-04
   1.57749999       4.33765876E-04
   1.58000004       4.33691603E-04
   1.58249998       4.33847425E-04
   1.58500004       4.33974317E-04
   1.58749998       4.33818612E-04
   1.59000003       4.33796842E-04
   1.59249997       4.34053945E-04
   1.59500003       4.34087910E-04
   1.59749997       4.33923036E-04
   1.60000002       4.34049434E-04
   1.60249996       4.34248941E-04
   1.60500002       4.34126559E-04
   1.60749996       4.34052083E-04
   1.61000001       4.34258051E-04
   1.61249995       4.34318965E-04
   1.61500001       4.34213958E-04
   1.61749995       4.34318674E-04
   1.62000000       4.34437854E-04
   1.62249994       4.34329500E-04
   1.62500000       4.34341695E-04
   1.62750006       4.34517715E-04
   1.63000000       4.34468122E-04
   1.63250005       4.34385351E-04
   1.63499999       4.34589165E-04
   1.63750005       4.34674235E-04
   1.63999999       4.34491958E-04
   1.64250004       4.34585498E-04
   1.64499998       4.34856513E-04
   1.64750004       4.34724847E-04
   1.64999998       4.34555230E-04
   1.65250003       4.34852438E-04
   1.65499997       4.35021240E-04
   1.65750003       4.34730318E-04
   1.65999997       4.34719201E-04
   1.66250002       4.35083173E-04
   1.66499996       4.35059890E-04
   1.66750002       4.34807909E-04
   1.66999996       4.34983551E-04
   1.67250001       4.35199938E-04
   1.67499995       4.35008958E-04
   1.67750001       4.34958958E-04
   1.67999995       4.35243128E-04
   1.68250000       4.35263268E-04
   1.68499994       4.35077498E-04
   1.68750000       4.35202412E-04
   1.69000006       4.35369817E-04
   1.69250000       4.35255264E-04
   1.69500005       4.35261638E-04
   1.69749999       4.35454684E-04
   1.70000005       4.35397320E-04
   1.70249999       4.35297203E-04
   1.70500004       4.35517461E-04
   1.70749998       4.35615657E-04
   1.71000004       4.35395399E-04
   1.71249998       4.35455964E-04
   1.71500003       4.35765833E-04
   1.71749997       4.35666268E-04
   1.72000003       4.35428054E-04
   1.72249997       4.35666763E-04
   1.72500002       4.35912691E-04
   1.72749996       4.35689552E-04
   1.73000002       4.35592898E-04
   1.73249996       4.35887807E-04
   1.73500001       4.35936876E-04
   1.73749995       4.35710477E-04
   1.74000001       4.35803464E-04
   1.74249995       4.36035654E-04
   1.74500000       4.35932743E-04
   1.74749994       4.35825437E-04
   1.75000000       4.36014059E-04
   1.75250006       4.36094968E-04
   1.75500000       4.35961905E-04
   1.75750005       4.36011411E-04
   1.75999999       4.36171162E-04
   1.76250005       4.36120899E-04
   1.76499999       4.36063245E-04
   1.76750004       4.36189526E-04
   1.76999998       4.36227390E-04
   1.77250004       4.36144619E-04
   1.77499998       4.36229835E-04
   1.77750003       4.36364353E-04
   1.77999997       4.36287053E-04
   1.78250003       4.36224247E-04
   1.78499997       4.36372793E-04
   1.78750002       4.36455593E-04
   1.78999996       4.36360919E-04
   1.79250002       4.36364178E-04
   1.79499996       4.36490198E-04
   1.79750001       4.36506380E-04
   1.79999995       4.36457747E-04
   1.80250001       4.36510803E-04
   1.80499995       4.36578441E-04
   1.80750000       4.36564616E-04
   1.80999994       4.36567992E-04
   1.81250000       4.36623348E-04
   1.81500006       4.36644361E-04
   1.81750000       4.36639879E-04
   1.82000005       4.36683360E-04
   1.82249999       4.36752773E-04
   1.82500005       4.36776434E-04
   1.82749999       4.36754344E-04
   1.83000004       4.36759146E-04
   1.83249998       4.36817558E-04
   1.83500004       4.36843053E-04
   1.83749998       4.36804956E-04
   1.84000003       4.36835835E-04
   1.84249997       4.36948350E-04
   1.84500003       4.36939270E-04
   1.84749997       4.36833507E-04
   1.85000002       4.36904287E-04
   1.85249996       4.37072478E-04
   1.85500002       4.37025359E-04
   1.85749996       4.36915347E-04
   1.86000001       4.37046489E-04
   1.86249995       4.37171082E-04
   1.86500001       4.37032868E-04
   1.86749995       4.36978182E-04
   1.87000000       4.37194161E-04
   1.87249994       4.37269802E-04
   1.87500000       4.37097828E-04
   1.87750006       4.37091454E-04
   1.88000000       4.37266775E-04
   1.88250005       4.37267794E-04
   1.88499999       4.37167822E-04
   1.88750005       4.37232520E-04
   1.88999999       4.37335053E-04
   1.89250004       4.37318988E-04
   1.89499998       4.37305891E-04
   1.89750004       4.37339651E-04
   1.89999998       4.37359617E-04
   1.90250003       4.37410257E-04
   1.90499997       4.37437790E-04
   1.90750003       4.37350915E-04
   1.90999997       4.37354203E-04
   1.91250002       4.37541137E-04
   1.91499996       4.37559647E-04
   1.91750002       4.37369366E-04
   1.91999996       4.37438692E-04
   1.92250001       4.37696930E-04
   1.92499995       4.37598588E-04
   1.92750001       4.37352661E-04
   1.92999995       4.37531358E-04
   1.93250000       4.37800511E-04
   1.93499994       4.37630602E-04
   1.93750000       4.37450508E-04
   1.94000006       4.37675946E-04
   1.94250000       4.37812618E-04
   1.94500005       4.37592942E-04
   1.94749999       4.37536655E-04
   1.95000005       4.37772513E-04
   1.95249999       4.37813200E-04
   1.95500004       4.37641720E-04
   1.95749998       4.37657902E-04
   1.96000004       4.37804410E-04
   1.96249998       4.37806215E-04
   1.96500003       4.37757670E-04
   1.96749997       4.37802839E-04
   1.97000003       4.37844632E-04
   1.97249997       4.37842100E-04
   1.97500002       4.37855313E-04
   1.97749996       4.37861017E-04
   1.98000002       4.37872222E-04