 -0.159999996       0.00000000    
 -0.157499999       0.00000000    
 -0.155000001       0.00000000    
 -0.152500004       0.00000000    
 -0.150000006       0.00000000    
 -0.147499993      -1.07659714E-12
 -0.144999996       8.01742353E-12
 -0.142499998       9.15373246E-12
 -0.140000001      -5.92047938E-11
 -0.137500003      -6.86500162E-11
 -0.135000005       2.01529529E-10
 -0.132499993       3.00950431E-10
 -0.129999995      -4.14403012E-10
 -0.127499998      -8.55702398E-10
 -0.125000000       5.82726145E-10
 -0.122500002       1.89815630E-09
 -0.119999997      -4.73903472E-10
 -0.117500000      -3.82573973E-09
 -0.115000002      -9.45148626E-10
 -0.112499997       6.61472477E-09
 -0.109999999       6.04425932E-09
 -0.107500002      -7.50346452E-09
 -0.104999997      -1.58566493E-08
 -0.102499999       9.06511310E-10
 -0.100000001       2.55210733E-08
  -9.74999964E-02   1.53393636E-08
  -9.49999988E-02  -2.65012492E-08
  -9.25000012E-02  -3.53608982E-08
  -9.00000036E-02   1.44422181E-08
  -8.74999985E-02   4.97709145E-08
  -8.50000009E-02   9.29099286E-09
  -8.25000033E-02  -4.96395742E-08
  -7.99999982E-02  -3.94311570E-08
  -7.75000006E-02   2.53068659E-08
  -7.50000030E-02   6.05784081E-08
  -7.24999979E-02   2.29083383E-08
  -7.00000003E-02  -5.19656105E-08
  -6.75000027E-02  -7.48765387E-08
  -6.49999976E-02   5.50955903E-09
  -6.25000000E-02   9.95102596E-08
  -5.99999987E-02   6.54394086E-08
  -5.75000010E-02  -6.69640770E-08
  -5.49999997E-02  -1.18843019E-07
  -5.24999984E-02  -2.52935166E-08
  -5.00000007E-02   9.25736003E-08
  -4.74999994E-02   1.03300970E-07
  -4.50000018E-02  -1.05448166E-08
  -4.25000004E-02  -1.30923823E-07
  -3.99999991E-02  -8.22800530E-08
  -3.75000015E-02   1.21043925E-07
  -3.50000001E-02   2.10530956E-07
  -3.24999988E-02   6.55741488E-08
  -2.99999993E-02  -5.61161784E-08
  -2.74999999E-02   5.63985765E-08
  -2.50000004E-02   2.49419628E-07
  -2.25000009E-02   3.35760717E-07
  -1.99999996E-02   3.55836335E-07
  -1.75000001E-02   3.88430408E-07
  -1.49999997E-02   4.81820848E-07
  -1.25000002E-02   7.38117194E-07
  -9.99999978E-03   1.15237594E-06
  -7.49999983E-03   1.56273074E-06
  -4.99999989E-03   1.94831478E-06
  -2.49999994E-03   2.47396520E-06
   0.00000000       3.23610266E-06
   2.49999994E-03   4.29367219E-06
   4.99999989E-03   5.74287742E-06
   7.49999983E-03   7.50943445E-06
   9.99999978E-03   9.48248453E-06
   1.25000002E-02   1.19503629E-05
   1.49999997E-02   1.53501569E-05
   1.75000001E-02   1.97014178E-05
   1.99999996E-02   2.48746364E-05
   2.25000009E-02   3.11025869E-05
   2.50000004E-02   3.87614054E-05
   2.74999999E-02   4.81347561E-05
   2.99999993E-02   5.96156679E-05
   3.24999988E-02   7.35695357E-05
   3.50000001E-02   9.01032108E-05
   3.75000015E-02   1.09527449E-04
   3.99999991E-02   1.32640052E-04
   4.25000004E-02   1.60144526E-04
   4.50000018E-02   1.92412917E-04
   4.74999994E-02   2.29959900E-04
   5.00000007E-02   2.73450190E-04
   5.24999984E-02   3.23426764E-04
   5.49999997E-02   3.80641053E-04
   5.75000010E-02   4.46144113E-04
   5.99999987E-02   5.20669040E-04
   6.25000000E-02   6.04624220E-04
   6.49999976E-02   6.98709977E-04
   6.75000027E-02   8.03763920E-04
   7.00000003E-02   9.20324703E-04
   7.24999979E-02   1.04898424E-03
   7.50000030E-02   1.19052199E-03
   7.75000006E-02   1.34532433E-03
   7.99999982E-02   1.51344237E-03
   8.25000033E-02   1.69513747E-03
   8.50000009E-02   1.89060590E-03
   8.74999985E-02   2.09963601E-03
   9.00000036E-02   2.32209684E-03
   9.25000012E-02   2.55795638E-03
   9.49999988E-02   2.80659599E-03
   9.74999964E-02   3.06704477E-03
  0.100000001       3.33867688E-03
  0.102499999       3.62084736E-03
  0.104999997       3.91243631E-03
  0.107500002       4.21231380E-03
  0.109999999       4.51942347E-03
  0.112499997       4.83230362E-03
  0.115000002       5.14948275E-03
  0.117500000       5.47003699E-03
  0.119999997       5.79293724E-03
  0.122500002       6.11657789E-03
  0.125000000       6.43948512E-03
  0.127499998       6.76060654E-03
  0.129999995       7.07881385E-03
  0.132499993       7.39303231E-03
  0.135000005       7.70256389E-03
  0.137500003       8.00656155E-03
  0.140000001       8.30384344E-03
  0.142499998       8.59359838E-03
  0.144999996       8.87545105E-03
  0.147499993       9.14880726E-03
  0.150000006       9.41296946E-03
  0.152500004       9.66750830E-03
  0.155000001       9.91188455E-03
  0.157499999       1.01453383E-02
  0.159999996       1.03674429E-02
  0.162499994       1.05780028E-02
  0.165000007       1.07764089E-02
  0.167500004       1.09617962E-02
  0.170000002       1.11335348E-02
  0.172499999       1.12910550E-02
  0.174999997       1.14336926E-02
  0.177499995       1.15609132E-02
  0.180000007       1.16721969E-02
  0.182500005       1.17667411E-02
  0.185000002       1.18437484E-02
  0.187500000       1.19027477E-02
  0.189999998       1.19434251E-02
  0.192499995       1.19654611E-02
  0.194999993       1.19686099E-02
  0.197500005       1.19526992E-02
  0.200000003       1.19176609E-02
  0.202500001       1.18637430E-02
  0.204999998       1.17915003E-02
  0.207499996       1.17015038E-02
  0.209999993       1.15943337E-02
  0.212500006       1.14708394E-02
  0.215000004       1.13321571E-02
  0.217500001       1.11795198E-02
  0.219999999       1.10142380E-02
  0.222499996       1.08377915E-02
  0.224999994       1.06517738E-02
  0.227500007       1.04577467E-02
  0.230000004       1.02572627E-02
  0.232500002       1.00520086E-02
  0.234999999       9.84375179E-03
  0.237499997       9.63410363E-03
  0.239999995       9.42453090E-03
  0.242500007       9.21651442E-03
  0.245000005       9.01146885E-03
  0.247500002       8.81062727E-03
  0.250000000       8.61512590E-03
  0.252499998       8.42600502E-03
  0.254999995       8.24406650E-03
  0.257499993       8.06994271E-03
  0.259999990       7.90424366E-03
  0.262499988       7.74740707E-03
  0.264999986       7.59969791E-03
  0.267500013       7.46135321E-03
  0.270000011       7.33240275E-03
  0.272500008       7.21256807E-03
  0.275000006       7.10169133E-03
  0.277500004       6.99980743E-03
  0.280000001       6.90661324E-03
  0.282499999       6.82154717E-03
  0.284999996       6.74427440E-03
  0.287499994       6.67444943E-03
  0.289999992       6.61147293E-03
  0.292499989       6.55496633E-03
  0.294999987       6.50474662E-03
  0.297500014       6.46023592E-03
  0.300000012       6.42076973E-03
  0.302500010       6.38614642E-03
  0.305000007       6.35609543E-03
  0.307500005       6.33002305E-03
  0.310000002       6.30772067E-03
  0.312500000       6.28919248E-03
  0.314999998       6.27387920E-03
  0.317499995       6.26122765E-03
  0.319999993       6.25131885E-03
  0.322499990       6.24407921E-03
  0.324999988       6.23905333E-03
  0.327499986       6.23624353E-03
  0.330000013       6.23570522E-03
  0.332500011       6.23682654E-03
  0.335000008       6.23929454E-03
  0.337500006       6.24354230E-03
  0.340000004       6.24944875E-03
  0.342500001       6.25635032E-03
  0.344999999       6.26437273E-03
  0.347499996       6.27379585E-03
  0.349999994       6.28399244E-03
  0.352499992       6.29459508E-03
  0.354999989       6.30608574E-03
  0.357499987       6.31833402E-03
  0.360000014       6.33065449E-03
  0.362500012       6.34319568E-03
  0.365000010       6.35622209E-03
  0.367500007       6.36908505E-03
  0.370000005       6.38147956E-03
  0.372500002       6.39388897E-03
  0.375000000       6.40615728E-03
  0.377499998       6.41770335E-03
  0.379999995       6.42871996E-03
  0.382499993       6.43928396E-03
  0.384999990       6.44877087E-03
  0.387499988       6.45722123E-03
  0.389999986       6.46517379E-03
  0.392500013       6.47218432E-03
  0.395000011       6.47772523E-03
  0.397500008       6.48232643E-03
  0.400000006       6.48612017E-03
  0.402500004       6.48838794E-03
  0.405000001       6.48930110E-03
  0.407499999       6.48951111E-03
  0.409999996       6.48850668E-03
  0.412499994       6.48581795E-03
  0.414999992       6.48216065E-03
  0.417499989       6.47774525E-03
  0.419999987       6.47191005E-03
  0.422500014       6.46488788E-03
  0.425000012       6.45730784E-03
  0.427500010       6.44872664E-03
  0.430000007       6.43884810E-03
  0.432500005       6.42836699E-03
  0.435000002       6.41738903E-03
  0.437500000       6.40544342E-03
  0.439999998       6.39296044E-03
  0.442499995       6.38035499E-03
  0.444999993       6.36704918E-03
  0.447499990       6.35306211E-03
  0.449999988       6.33924827E-03
  0.452499986       6.32545492E-03
  0.455000013       6.31107623E-03
  0.457500011       6.29667426E-03
  0.460000008       6.28272537E-03
  0.462500006       6.26866380E-03
  0.465000004       6.25455659E-03
  0.467500001       6.24118512E-03
  0.469999999       6.22830074E-03
  0.472499996       6.21535722E-03
  0.474999994       6.20293338E-03
  0.477499992       6.19143434E-03
  0.479999989       6.18037255E-03
  0.482499987       6.16987702E-03
  0.485000014       6.16053073E-03
  0.487500012       6.15201099E-03
  0.490000010       6.14399230E-03
  0.492500007       6.13705488E-03
  0.495000005       6.13134541E-03
  0.497500002       6.12638472E-03
  0.500000000       6.12242473E-03
  0.502499998       6.11985615E-03
  0.504999995       6.11815369E-03
  0.507499993       6.11710316E-03
  0.509999990       6.11733133E-03
  0.512499988       6.11877814E-03
  0.514999986       6.12082006E-03
  0.517499983       6.12366945E-03
  0.519999981       6.12761592E-03
  0.522499979       6.13208860E-03
  0.524999976       6.13687048E-03
  0.527499974       6.14242069E-03
  0.529999971       6.14855206E-03
  0.532500029       6.15472440E-03
  0.535000026       6.16111374E-03
  0.537500024       6.16782717E-03
  0.540000021       6.17436133E-03
  0.542500019       6.18067104E-03
  0.545000017       6.18709344E-03
  0.547500014       6.19329792E-03
  0.550000012       6.19890913E-03
  0.552500010       6.20426703E-03
  0.555000007       6.20943680E-03
  0.557500005       6.21394394E-03
  0.560000002       6.21790159E-03
  0.562500000       6.22173492E-03
  0.564999998       6.22514728E-03
  0.567499995       6.22782437E-03
  0.569999993       6.23015966E-03
  0.572499990       6.23235526E-03
  0.574999988       6.23410009E-03
  0.577499986       6.23545004E-03
  0.579999983       6.23671850E-03
  0.582499981       6.23778393E-03
  0.584999979       6.23855041E-03
  0.587499976       6.23932341E-03
  0.589999974       6.24016067E-03
  0.592499971       6.24081213E-03
  0.595000029       6.24137465E-03
  0.597500026       6.24211412E-03
  0.600000024       6.24292716E-03
  0.602500021       6.24367641E-03
  0.605000019       6.24452345E-03
  0.607500017       6.24554185E-03
  0.610000014       6.24655932E-03
  0.612500012       6.24756189E-03
  0.615000010       6.24870509E-03
  0.617500007       6.24995725E-03
  0.620000005       6.25113584E-03
  0.622500002       6.25223899E-03
  0.625000000       6.25340035E-03
  0.627499998       6.25459570E-03
  0.629999995       6.25568023E-03
  0.632499993       6.25666324E-03
  0.634999990       6.25763414E-03
  0.637499988       6.25852076E-03
  0.639999986       6.25925139E-03
  0.642499983       6.25991216E-03
  0.644999981       6.26048632E-03
  0.647499979       6.26081228E-03
  0.649999976       6.26096316E-03
  0.652499974       6.26114197E-03
  0.654999971       6.26125606E-03
  0.657500029       6.26116572E-03
  0.660000026       6.26098504E-03
  0.662500024       6.26068516E-03
  0.665000021       6.26010215E-03
  0.667500019       6.25947071E-03
  0.670000017       6.25907769E-03
  0.672500014       6.25861529E-03
  0.675000012       6.25778316E-03
  0.677500010       6.25686999E-03
  0.680000007       6.25607977E-03
  0.682500005       6.25524484E-03
  0.685000002       6.25443785E-03
  0.687500000       6.25378359E-03
  0.689999998       6.25297986E-03
  0.692499995       6.25194190E-03
  0.694999993       6.25107437E-03
  0.697499990       6.25039823E-03
  0.699999988       6.24961639E-03
  0.702499986       6.24889368E-03
  0.704999983       6.24837913E-03
  0.707499981       6.24770764E-03
  0.709999979       6.24688063E-03
  0.712499976       6.24636281E-03
  0.714999974       6.24603732E-03
  0.717499971       6.24552276E-03
  0.720000029       6.24507898E-03
  0.722500026       6.24488294E-03
  0.725000024       6.24453183E-03
  0.727500021       6.24407455E-03
  0.730000019       6.24397816E-03
  0.732500017       6.24403823E-03
  0.735000014       6.24388084E-03
  0.737500012       6.24379003E-03
  0.740000010       6.24387711E-03
  0.742500007       6.24381891E-03
  0.745000005       6.24383893E-03
  0.747500002       6.24425290E-03
  0.750000000       6.24457467E-03
  0.752499998       6.24455744E-03
  0.754999995       6.24477677E-03
  0.757499993       6.24528108E-03
  0.759999990       6.24554930E-03
  0.762499988       6.24581380E-03
  0.764999986       6.24642428E-03
  0.767499983       6.24686200E-03
  0.769999981       6.24698261E-03
  0.772499979       6.24744408E-03
  0.774999976       6.24814816E-03
  0.777499974       6.24845503E-03
  0.779999971       6.24870695E-03
  0.782500029       6.24937518E-03
  0.785000026       6.24992047E-03
  0.787500024       6.25010533E-03
  0.790000021       6.25051185E-03
  0.792500019       6.25109440E-03
  0.795000017       6.25137566E-03
  0.797500014       6.25166716E-03
  0.800000012       6.25222968E-03
  0.802500010       6.25257054E-03
  0.805000007       6.25268091E-03
  0.807500005       6.25309814E-03
  0.810000002       6.25357497E-03
  0.812500000       6.25366950E-03
  0.814999998       6.25381852E-03
  0.817499995       6.25424692E-03
  0.819999993       6.25442807E-03
  0.822499990       6.25441363E-03
  0.824999988       6.25471119E-03
  0.827499986       6.25502458E-03
  0.829999983       6.25496777E-03
  0.832499981       6.25498546E-03
  0.834999979       6.25526393E-03
  0.837499976       6.25534914E-03
  0.839999974       6.25530491E-03
  0.842499971       6.25548931E-03
  0.845000029       6.25562342E-03
  0.847500026       6.25552842E-03
  0.850000024       6.25562062E-03
  0.852500021       6.25589490E-03
  0.855000019       6.25594379E-03
  0.857500017       6.25595124E-03
  0.860000014       6.25618733E-03
  0.862500012       6.25632517E-03
  0.865000010       6.25629537E-03
  0.867500007       6.25651283E-03
  0.870000005       6.25685509E-03
  0.872500002       6.25693100E-03
  0.875000000       6.25700783E-03
  0.877499998       6.25735149E-03
  0.879999995       6.25759456E-03
  0.882499993       6.25762064E-03
  0.884999990       6.25779945E-03
  0.887499988       6.25809515E-03
  0.889999986       6.25820644E-03
  0.892499983       6.25828421E-03
  0.894999981       6.25850866E-03
  0.897499979       6.25868840E-03
  0.899999976       6.25877408E-03
  0.902499974       6.25891564E-03
  0.904999971       6.25901110E-03
  0.907500029       6.25897152E-03
  0.910000026       6.25900412E-03
  0.912500024       6.25917781E-03
  0.915000021       6.25930866E-03
  0.917500019       6.25936082E-03
  0.920000017       6.25941949E-03
  0.922500014       6.25945441E-03
  0.925000012       6.25948375E-03
  0.927500010       6.25959784E-03
  0.930000007       6.25974825E-03
  0.932500005       6.25986047E-03
  0.935000002       6.25997595E-03
  0.937500000       6.26011286E-03
  0.939999998       6.26026606E-03
  0.942499995       6.26047049E-03
  0.944999993       6.26068236E-03
  0.947499990       6.26083137E-03
  0.949999988       6.26101391E-03
  0.952499986       6.26128679E-03
  0.954999983       6.26152754E-03
  0.957499981       6.26173662E-03
  0.959999979       6.26201695E-03
  0.962499976       6.26229355E-03
  0.964999974       6.26251753E-03
  0.967499971       6.26282534E-03
  0.970000029       6.26316434E-03
  0.972500026       6.26335386E-03
  0.975000024       6.26354432E-03
  0.977500021       6.26391638E-03
  0.980000019       6.26428286E-03
  0.982500017       6.26455015E-03
  0.985000014       6.26487983E-03
  0.987500012       6.26517646E-03
  0.990000010       6.26531942E-03
  0.992500007       6.26561465E-03
  0.995000005       6.26613805E-03
  0.997500002       6.26645191E-03
   1.00000000       6.26652595E-03
   1.00250006       6.26678532E-03
   1.00500000       6.26718905E-03
   1.00750005       6.26746519E-03
   1.00999999       6.26776647E-03
   1.01250005       6.26813387E-03
   1.01499999       6.26828102E-03
   1.01750004       6.26834016E-03
   1.01999998       6.26865355E-03
   1.02250004       6.26903260E-03
   1.02499998       6.26925146E-03
   1.02750003       6.26950804E-03
   1.02999997       6.26975810E-03
   1.03250003       6.26978371E-03
   1.03499997       6.26988756E-03
   1.03750002       6.27027545E-03
   1.03999996       6.27053576E-03
   1.04250002       6.27057999E-03
   1.04499996       6.27078209E-03
   1.04750001       6.27099629E-03
   1.04999995       6.27097534E-03
   1.05250001       6.27112808E-03
   1.05499995       6.27154950E-03
   1.05750000       6.27168035E-03
   1.05999994       6.27158722E-03
   1.06250000       6.27177814E-03
   1.06500006       6.27198862E-03
   1.06750000       6.27193134E-03
   1.07000005       6.27209293E-03
   1.07249999       6.27248734E-03
   1.07500005       6.27250178E-03
   1.07749999       6.27235929E-03
   1.08000004       6.27259817E-03
   1.08249998       6.27281470E-03
   1.08500004       6.27274578E-03
   1.08749998       6.27293158E-03
   1.09000003       6.27325801E-03
   1.09249997       6.27313927E-03
   1.09500003       6.27301773E-03
   1.09749997       6.27339212E-03
   1.10000002       6.27364265E-03
   1.10249996       6.27352716E-03
   1.10500002       6.27366733E-03
   1.10749996       6.27390109E-03
   1.11000001       6.27373764E-03
   1.11249995       6.27375534E-03
   1.11500001       6.27424149E-03
   1.11749995       6.27438026E-03
   1.12000000       6.27414230E-03
   1.12249994       6.27431506E-03
   1.12500000       6.27458887E-03
   1.12750006       6.27444033E-03
   1.13000000       6.27452042E-03
   1.13250005       6.27496419E-03
   1.13499999       6.27491530E-03
   1.13750005       6.27464894E-03
   1.13999999       6.27501030E-03
   1.14250004       6.27536373E-03
   1.14499998       6.27512019E-03
   1.14750004       6.27514301E-03
   1.14999998       6.27557933E-03
   1.15250003       6.27551461E-03
   1.15499997       6.27530552E-03
   1.15750003       6.27572788E-03
   1.15999997       6.27599424E-03
   1.16250002       6.27565058E-03
   1.16499996       6.27574185E-03
   1.16750002       6.27629133E-03
   1.16999996       6.27622800E-03
   1.17250001       6.27595838E-03
   1.17499995       6.27631228E-03
   1.17750001       6.27656700E-03
   1.17999995       6.27635606E-03
   1.18250000       6.27656700E-03
   1.18499994       6.27700705E-03
   1.18750000       6.27681380E-03
   1.19000006       6.27666432E-03
   1.19250000       6.27718261E-03
   1.19500005       6.27740333E-03
   1.19749999       6.27713883E-03
   1.20000005       6.27740985E-03
   1.20249999       6.27786620E-03
   1.20500004       6.27765292E-03
   1.20749998       6.27759751E-03
   1.21000004       6.27821917E-03
   1.21249998       6.27839565E-03
   1.21500003       6.27803104E-03
   1.21749997       6.27828296E-03
   1.22000003       6.27882127E-03
   1.22249997       6.27875514E-03
   1.22500002       6.27877051E-03
   1.22749996       6.27928041E-03
   1.23000002       6.27934374E-03
   1.23249996       6.27906108E-03
   1.23500001       6.27942197E-03
   1.23749995       6.27993979E-03
   1.24000001       6.27985410E-03
   1.24249995       6.27988065E-03
   1.24500000       6.28033094E-03
   1.24749994       6.28041197E-03
   1.25000000       6.28032442E-03
   1.25250006       6.28075469E-03
   1.25500000       6.28108019E-03
   1.25750005       6.28089206E-03
   1.25999999       6.28105272E-03
   1.26250005       6.28158590E-03
   1.26499999       6.28161011E-03
   1.26750004       6.28150720E-03
   1.26999998       6.28197333E-03
   1.27250004       6.28231466E-03
   1.27499998       6.28215866E-03
   1.27750003       6.28232490E-03
   1.27999997       6.28279289E-03
   1.28250003       6.28281431E-03
   1.28499997       6.28278870E-03
   1.28750002       6.28325203E-03
   1.28999996       6.28354866E-03
   1.29250002       6.28344482E-03
   1.29499996       6.28364086E-03
   1.29750001       6.28405111E-03
   1.29999995       6.28412934E-03
   1.30250001       6.28423085E-03
   1.30499995       6.28458662E-03
   1.30750000       6.28467463E-03
   1.30999994       6.28462154E-03
   1.31250000       6.28499314E-03
   1.31500006       6.28538756E-03
   1.31750000       6.28537498E-03
   1.32000005       6.28545694E-03
   1.32249999       6.28574379E-03
   1.32500005       6.28574891E-03
   1.32749999       6.28573867E-03
   1.33000004       6.28611306E-03
   1.33249998       6.28633564E-03
   1.33500004       6.28620340E-03
   1.33749998       6.28635054E-03
   1.34000003       6.28669234E-03
   1.34249997       6.28665462E-03
   1.34500003       6.28658803E-03
   1.34749997       6.28685672E-03
   1.35000002       6.28694706E-03
   1.35249996       6.28680037E-03
   1.35500002       6.28698245E-03
   1.35749996       6.28724601E-03
   1.36000001       6.28715195E-03
   1.36249995       6.28718920E-03
   1.36500001       6.28752541E-03
   1.36749995       6.28752448E-03
   1.37000000       6.28732890E-03
   1.37249994       6.28757849E-03
   1.37500000       6.28788583E-03
   1.37750006       6.28779177E-03
   1.38000000       6.28784532E-03
   1.38250005       6.28821691E-03
   1.38499999       6.28831238E-03
   1.38750005       6.28827466E-03
   1.38999999       6.28858432E-03
   1.39250004       6.28882321E-03
   1.39499998       6.28872775E-03
   1.39750004       6.28888141E-03
   1.39999998       6.28929213E-03
   1.40250003       6.28939504E-03
   1.40499997       6.28943695E-03
   1.40750003       6.28979271E-03
   1.40999997       6.28999108E-03
   1.41250002       6.28992775E-03
   1.41499996       6.29016245E-03
   1.41750002       6.29050098E-03
   1.41999996       6.29044790E-03
   1.42250001       6.29046792E-03
   1.42499995       6.29088003E-03
   1.42750001       6.29105978E-03
   1.42999995       6.29092939E-03
   1.43250000       6.29110727E-03
   1.43499994       6.29137643E-03
   1.43750000       6.29127119E-03
   1.44000006       6.29128516E-03
   1.44250000       6.29167957E-03
   1.44500005       6.29179692E-03
   1.44749999       6.29158923E-03
   1.45000005       6.29168237E-03
   1.45249999       6.29193196E-03
   1.45500004       6.29195245E-03
   1.45749998       6.29207306E-03
   1.46000004       6.29233522E-03
   1.46249998       6.29225420E-03
   1.46500003       6.29207352E-03
   1.46749997       6.29231706E-03
   1.47000003       6.29258947E-03
   1.47249997       6.29254058E-03
   1.47500002       6.29262719E-03
   1.47749996       6.29287120E-03
   1.48000002       6.29280787E-03
   1.48249996       6.29274081E-03
   1.48500001       6.29306678E-03
   1.48749995       6.29328191E-03
   1.49000001       6.29316410E-03
   1.49249995       6.29328331E-03
   1.49500000       6.29359437E-03
   1.49749994       6.29359065E-03
   1.50000000       6.29358226E-03
   1.50250006       6.29390730E-03
   1.50500000       6.29408192E-03
   1.50750005       6.29401067E-03
   1.50999999       6.29421556E-03
   1.51250005       6.29451731E-03
   1.51499999       6.29447913E-03
   1.51750004       6.29452895E-03
   1.51999998       6.29490754E-03
   1.52250004       6.29503932E-03
   1.52499998       6.29493548E-03
   1.52750003       6.29517157E-03
   1.52999997       6.29548077E-03
   1.53250003       6.29545376E-03
   1.53499997       6.29557576E-03
   1.53750002       6.29596179E-03
   1.53999996       6.29598182E-03
   1.54250002       6.29582396E-03
   1.54499996       6.29613455E-03
   1.54750001       6.29649684E-03
   1.54999995       6.29645213E-03
   1.55250001       6.29656110E-03
   1.55499995       6.29694806E-03
   1.55750000       6.29696716E-03
   1.55999994       6.29683770E-03
   1.56250000       6.29715715E-03
   1.56500006       6.29745424E-03
   1.56750000       6.29736623E-03
   1.57000005       6.29750546E-03
   1.57249999       6.29786821E-03
   1.57500005       6.29781745E-03
   1.57749999       6.29775552E-03
   1.58000004       6.29822258E-03
   1.58249998       6.29849220E-03
   1.58500004       6.29822630E-03
   1.58749998       6.29829895E-03
   1.59000003       6.29874691E-03
   1.59249997       6.29875902E-03
   1.59500003       6.29867427E-03
   1.59749997       6.29908778E-03
   1.60000002       6.29930710E-03
   1.60249996       6.29902259E-03
   1.60500002       6.29912596E-03
   1.60749996       6.29959535E-03
   1.61000001       6.29956182E-03
   1.61249995       6.29940396E-03
   1.61500001       6.29980024E-03
   1.61749995       6.30006567E-03
   1.62000000       6.29979931E-03
   1.62249994       6.29982073E-03
   1.62500000       6.30022120E-03
   1.62750006       6.30026450E-03
   1.63000000       6.30019838E-03
   1.63250005       6.30049361E-03
   1.63499999       6.30060630E-03
   1.63750005       6.30038790E-03
   1.63999999       6.30054576E-03
   1.64250004       6.30093412E-03
   1.64499998       6.30090246E-03
   1.64750004       6.30083727E-03
   1.64999998       6.30112784E-03
   1.65250003       6.30121538E-03
   1.65499997       6.30107010E-03
   1.65750003       6.30132528E-03
   1.65999997       6.30166475E-03
   1.66250002       6.30149106E-03
   1.66499996       6.30135089E-03
   1.66750002       6.30168477E-03
   1.66999996       6.30188128E-03
   1.67250001       6.30177744E-03
   1.67499995       6.30193157E-03
   1.67750001       6.30217511E-03
   1.67999995       6.30204240E-03
   1.68250000       6.30191062E-03
   1.68499994       6.30213786E-03
   1.68750000       6.30235858E-03
   1.69000006       6.30238652E-03
   1.69250000       6.30241539E-03
   1.69500005       6.30242191E-03
   1.69749999       6.30242005E-03
   1.70000005       6.30258676E-03
   1.70249999       6.30273763E-03
   1.70500004       6.30269013E-03
   1.70749998       6.30272739E-03
   1.71000004       6.30291365E-03
   1.71249998       6.30295277E-03
   1.71500003       6.30297605E-03
   1.71749997       6.30319770E-03
   1.72000003       6.30328944E-03
   1.72249997       6.30319212E-03
   1.72500002       6.30335184E-03
   1.72749996       6.30363449E-03
   1.73000002       6.30360562E-03
   1.73249996       6.30356371E-03
   1.73500001       6.30378537E-03
   1.73749995       6.30389061E-03
   1.74000001       6.30387710E-03
   1.74249995       6.30409550E-03
   1.74500000       6.30423380E-03
   1.74749994       6.30407874E-03
   1.75000000       6.30417047E-03
   1.75250006       6.30447501E-03
   1.75500000       6.30437536E-03
   1.75750005       6.30423659E-03
   1.75999999       6.30457886E-03
   1.76250005       6.30473625E-03
   1.76499999       6.30443497E-03
   1.76750004       6.30453136E-03
   1.76999998       6.30491087E-03
   1.77250004       6.30471995E-03
   1.77499998       6.30451366E-03
   1.77750003       6.30497793E-03
   1.77999997       6.30516885E-03
   1.78250003       6.30470552E-03
   1.78499997       6.30471716E-03
   1.78750002       6.30521309E-03
   1.78999996       6.30516605E-03
   1.79250002       6.30497187E-03
   1.79499996       6.30529132E-03
   1.79750001       6.30536629E-03
   1.79999995       6.30503893E-03
   1.80250001       6.30527269E-03
   1.80499995       6.30570529E-03
   1.80750000       6.30544499E-03
   1.80999994       6.30530203E-03
   1.81250000       6.30583009E-03
   1.81500006       6.30587712E-03
   1.81750000       6.30538957E-03
   1.82000005       6.30564615E-03
   1.82249999       6.30618492E-03
   1.82500005       6.30588038E-03
   1.82749999       6.30563218E-03
   1.83000004       6.30616443E-03
   1.83249998       6.30628224E-03
   1.83500004       6.30580354E-03
   1.83749998       6.30600890E-03
   1.84000003       6.30653836E-03
   1.84249997       6.30625524E-03
   1.84500003       6.30593672E-03
   1.84749997       6.30638003E-03
   1.85000002       6.30662078E-03
   1.85249996       6.30634185E-03
   1.85500002       6.30644290E-03
   1.85749996       6.30671019E-03
   1.86000001       6.30649040E-03
   1.86249995       6.30644709E-03
   1.86500001       6.30688621E-03
   1.86749995       6.30692951E-03
   1.87000000       6.30664779E-03
   1.87249994       6.30687457E-03
   1.87500000       6.30715676E-03
   1.87750006       6.30690949E-03
   1.88000000       6.30687643E-03
   1.88250005       6.30729645E-03
   1.88499999       6.30729366E-03
   1.88750005       6.30698260E-03
   1.88999999       6.30717678E-03
   1.89250004       6.30748924E-03
   1.89499998       6.30732113E-03
   1.89750004       6.30723173E-03
   1.89999998       6.30752603E-03
   1.90250003       6.30759727E-03
   1.90499997       6.30739192E-03
   1.90750003       6.30743057E-03
   1.90999997       6.30760379E-03
   1.91250002       6.30761962E-03
   1.91499996       6.30767457E-03
   1.91750002       6.30778633E-03
   1.91999996       6.30771602E-03
   1.92250001       6.30765222E-03
   1.92499995       6.30782126E-03
   1.92750001       6.30795537E-03
   1.92999995       6.30789762E-03
   1.93250000       6.30789017E-03
   1.93499994       6.30798331E-03
   1.93750000       6.30801450E-03
   1.94000006       6.30805269E-03
   1.94250000       6.30820403E-03
   1.94500005       6.30830694E-03
   1.94749999       6.30821427E-03
   1.95000005       6.30806945E-03
   1.95249999       6.30812859E-03
   1.95500004       6.30838424E-03
   1.95749998       6.30851090E-03
   1.96000004       6.30838703E-03
   1.96249998       6.30832929E-03
   1.96500003       6.30845409E-03
   1.96749997       6.30846340E-03
   1.97000003       6.30838145E-03
   1.97249997       6.30852580E-03
   1.97500002       6.30871067E-03
   1.97749996       6.30860031E-03
   1.98000002       6.30847597E-03