   0.00000000       0.00000000    
   2.49999994E-03   0.00000000    
   4.99999989E-03   0.00000000    
   7.49999983E-03   0.00000000    
   9.99999978E-03   0.00000000    
   1.25000002E-02  -1.58866440E-15
   1.49999997E-02   2.09192150E-14
   1.75000001E-02  -9.44275718E-14
   1.99999996E-02   1.22591976E-14
   2.25000009E-02   8.18729687E-13
   2.50000004E-02  -8.31530157E-13
   2.74999999E-02  -3.76468518E-12
   2.99999993E-02   5.28350020E-12
   3.24999988E-02   1.22723316E-11
   3.50000001E-02  -2.13098966E-11
   3.75000015E-02  -3.12491387E-11
   3.99999991E-02   6.85902515E-11
   4.25000004E-02   6.76144002E-11
   4.50000018E-02  -1.91339111E-10
   4.74999994E-02  -1.42127060E-10
   5.00000007E-02   4.67152095E-10
   5.24999984E-02   3.28138794E-10
   5.49999997E-02  -9.66835723E-10
   5.75000010E-02  -7.87796606E-10
   5.99999987E-02   1.62179881E-09
   6.25000000E-02   1.68961345E-09
   6.49999976E-02  -2.09082929E-09
   6.75000027E-02  -2.93289593E-09
   7.00000003E-02   1.89145943E-09
   7.24999979E-02   3.92774302E-09
   7.50000030E-02  -8.48153991E-10
   7.75000006E-02  -3.83551813E-09
   7.99999982E-02  -6.20106466E-10
   8.25000033E-02   2.10270290E-09
   8.50000009E-02   1.67988023E-09
   8.74999985E-02   1.32796307E-09
   9.00000036E-02  -1.08071641E-09
   9.25000012E-02  -5.59089708E-09
   9.49999988E-02  -2.82225621E-09
   9.74999964E-02   7.50431806E-09
  0.100000001       9.74678649E-09
  0.102499999      -2.22493202E-09
  0.104999997      -1.39792542E-08
  0.107500002      -1.04511422E-08
  0.109999999       7.79036302E-09
  0.112499997       2.17363461E-08
  0.115000002       8.08893130E-09
  0.117500000      -2.26095427E-08
  0.119999997      -2.40487132E-08
  0.122500002       1.38088918E-08
  0.125000000       3.42677353E-08
  0.127499998       2.12358975E-09
  0.129999995      -3.50783651E-08
  0.132499993      -2.32964279E-08
  0.135000005       1.78305584E-08
  0.137500003       3.22821272E-08
  0.140000001       4.83549023E-09
  0.142499998      -2.33504931E-08
  0.144999996      -9.74779812E-09
  0.147499993       2.29560104E-08
  0.150000006       1.62519029E-08
  0.152500004      -1.35178011E-08
  0.155000001       1.16707932E-08
  0.157499999       7.86620546E-08
  0.159999996       8.32956175E-08
  0.162499994       1.99819947E-08
  0.165000007       9.22538845E-09
  0.167500004       1.00669652E-07
  0.170000002       2.00514009E-07
  0.172499999       2.22667865E-07
  0.174999997       2.03968554E-07
  0.177499995       2.51111203E-07
  0.180000007       4.14338416E-07
  0.182500005       6.28607381E-07
  0.185000002       8.10086419E-07
  0.187500000       9.84144890E-07
  0.189999998       1.23569703E-06
  0.192499995       1.59599244E-06
  0.194999993       2.07994594E-06
  0.197500005       2.71940144E-06
  0.200000003       3.48414960E-06
  0.202500001       4.34283038E-06
  0.204999998       5.40681913E-06
  0.207499996       6.80327730E-06
  0.209999993       8.50840934E-06
  0.212500006       1.05229537E-05
  0.215000004       1.29972432E-05
  0.217500001       1.60094150E-05
  0.219999999       1.95207085E-05
  0.222499996       2.36249743E-05
  0.224999994       2.85153419E-05
  0.227500007       3.42799540E-05
  0.230000004       4.10183893E-05
  0.232500002       4.89138292E-05
  0.234999999       5.79984371E-05
  0.237499997       6.82262471E-05
  0.239999995       7.98223409E-05
  0.242500007       9.31293325E-05
  0.245000005       1.08234679E-04
  0.247500002       1.25115825E-04
  0.250000000       1.43853424E-04
  0.252499998       1.64491736E-04
  0.254999995       1.87101599E-04
  0.257499993       2.11950464E-04
  0.259999990       2.39164277E-04
  0.262499988       2.68499949E-04
  0.264999986       2.99805601E-04
  0.267500013       3.33211909E-04
  0.270000011       3.68707580E-04
  0.272500008       4.06121428E-04
  0.275000006       4.45402780E-04
  0.277500004       4.86357050E-04
  0.280000001       5.28522884E-04
  0.282499999       5.71705692E-04
  0.284999996       6.15974481E-04
  0.287499994       6.61024184E-04
  0.289999992       7.06317311E-04
  0.292499989       7.51629879E-04
  0.294999987       7.96757115E-04
  0.297500014       8.41247907E-04
  0.300000012       8.84908135E-04
  0.302500010       9.27765330E-04
  0.305000007       9.69431596E-04
  0.307500005       1.00941560E-03
  0.310000002       1.04777538E-03
  0.312500000       1.08466088E-03
  0.314999998       1.11987814E-03
  0.317499995       1.15342846E-03
  0.319999993       1.18557108E-03
  0.322499990       1.21627108E-03
  0.324999988       1.24555978E-03
  0.327499986       1.27408130E-03
  0.330000013       1.30243087E-03
  0.332500011       1.33069523E-03
  0.335000008       1.35918602E-03
  0.337500006       1.38864748E-03
  0.340000004       1.41961174E-03
  0.342500001       1.45255437E-03
  0.344999999       1.48834591E-03
  0.347499996       1.52771419E-03
  0.349999994       1.57093781E-03
  0.352499992       1.61853223E-03
  0.354999989       1.67134625E-03
  0.357499987       1.72993506E-03
  0.360000014       1.79469970E-03
  0.362500012       1.86622096E-03
  0.365000010       1.94476801E-03
  0.367500007       2.03021429E-03
  0.370000005       2.12273700E-03
  0.372500002       2.22267769E-03
  0.375000000       2.32980796E-03
  0.377499998       2.44359532E-03
  0.379999995       2.56369147E-03
  0.382499993       2.68952316E-03
  0.384999990       2.82011856E-03
  0.387499988       2.95465533E-03
  0.389999986       3.09237186E-03
  0.392500013       3.23199877E-03
  0.395000011       3.37200053E-03
  0.397500008       3.51105235E-03
  0.400000006       3.64780915E-03
  0.402500004       3.78074660E-03
  0.405000001       3.90844326E-03
  0.407499999       4.02950961E-03
  0.409999996       4.14236449E-03
  0.412499994       4.24553407E-03
  0.414999992       4.33790451E-03
  0.417499989       4.41845832E-03
  0.419999987       4.48619761E-03
  0.422500014       4.54035681E-03
  0.425000012       4.58037015E-03
  0.427500010       4.60581016E-03
  0.430000007       4.61659022E-03
  0.432500005       4.61296178E-03
  0.435000002       4.59524244E-03
  0.437500000       4.56383545E-03
  0.439999998       4.51945420E-03
  0.442499995       4.46307473E-03
  0.444999993       4.39580064E-03
  0.447499990       4.31886222E-03
  0.449999988       4.23360616E-03
  0.452499986       4.14143037E-03
  0.455000013       4.04375419E-03
  0.457500011       3.94199090E-03
  0.460000008       3.83758289E-03
  0.462500006       3.73203401E-03
  0.465000004       3.62674636E-03
  0.467500001       3.52289760E-03
  0.469999999       3.42160137E-03
  0.472499996       3.32395546E-03
  0.474999994       3.23084253E-03
  0.477499992       3.14298528E-03
  0.479999989       3.06111504E-03
  0.482499987       2.98572145E-03
  0.485000014       2.91692861E-03
  0.487500012       2.85491347E-03
  0.490000010       2.79995590E-03
  0.492500007       2.75196740E-03
  0.495000005       2.71058851E-03
  0.497500002       2.67565250E-03
  0.500000000       2.64693401E-03
  0.502499998       2.62382347E-03
  0.504999995       2.60576862E-03
  0.507499993       2.59246863E-03
  0.509999990       2.58339616E-03
  0.512499988       2.57781125E-03
  0.514999986       2.57519772E-03
  0.517499983       2.57508666E-03
  0.519999981       2.57680938E-03
  0.522499979       2.57984502E-03
  0.524999976       2.58386275E-03
  0.527499974       2.58832611E-03
  0.529999971       2.59267050E-03
  0.532500029       2.59662652E-03
  0.535000026       2.59988476E-03
  0.537500024       2.60200421E-03
  0.540000021       2.60286219E-03
  0.542500019       2.60245241E-03
  0.545000017       2.60038860E-03
  0.547500014       2.59635574E-03
  0.550000012       2.59052147E-03
  0.552500010       2.58293469E-03
  0.555000007       2.57335720E-03
  0.557500005       2.56192009E-03
  0.560000002       2.54893047E-03
  0.562500000       2.53422069E-03
  0.564999998       2.51765107E-03
  0.567499995       2.49965372E-03
  0.569999993       2.48052808E-03
  0.572499990       2.46014120E-03
  0.574999988       2.43867957E-03
  0.577499986       2.41659535E-03
  0.579999983       2.39387271E-03
  0.582499981       2.37043179E-03
  0.584999979       2.34673824E-03
  0.587499976       2.32315413E-03
  0.589999974       2.29955511E-03
  0.592499971       2.27605668E-03
  0.595000029       2.25306582E-03
  0.597500026       2.23059137E-03
  0.600000024       2.20853672E-03
  0.602500021       2.18726764E-03
  0.605000019       2.16705166E-03
  0.607500017       2.14768224E-03
  0.610000014       2.12915381E-03
  0.612500012       2.11176439E-03
  0.615000010       2.09547905E-03
  0.617500007       2.08013272E-03
  0.620000005       2.06595054E-03
  0.622500002       2.05308199E-03
  0.625000000       2.04125675E-03
  0.627499998       2.03037728E-03
  0.629999995       2.02063681E-03
  0.632499993       2.01194175E-03
  0.634999990       2.00408301E-03
  0.637499988       1.99721614E-03
  0.639999986       1.99141935E-03
  0.642499983       1.98634295E-03
  0.644999981       1.98181975E-03
  0.647499979       1.97807327E-03
  0.649999976       1.97509537E-03
  0.652499974       1.97261246E-03
  0.654999971       1.97060895E-03
  0.657500029       1.96915027E-03
  0.660000026       1.96802686E-03
  0.662500024       1.96710927E-03
  0.665000021       1.96655421E-03
  0.667500019       1.96636538E-03
  0.670000017       1.96631951E-03
  0.672500014       1.96635723E-03
  0.675000012       1.96652394E-03
  0.677500010       1.96673255E-03
  0.680000007       1.96696189E-03
  0.682500005       1.96731323E-03
  0.685000002       1.96770299E-03
  0.687500000       1.96795794E-03
  0.689999998       1.96813885E-03
  0.692499995       1.96834118E-03
  0.694999993       1.96847087E-03
  0.697499990       1.96850789E-03
  0.699999988       1.96854328E-03
  0.702499986       1.96845992E-03
  0.704999983       1.96812768E-03
  0.707499981       1.96775026E-03
  0.709999979       1.96747924E-03
  0.712499976       1.96708064E-03
  0.714999974       1.96643104E-03
  0.717499971       1.96576188E-03
  0.720000029       1.96513603E-03
  0.722500026       1.96435116E-03
  0.725000024       1.96344289E-03
  0.727500021       1.96261657E-03
  0.730000019       1.96180842E-03
  0.732500017       1.96087756E-03
  0.735000014       1.95993087E-03
  0.737500012       1.95906777E-03
  0.740000010       1.95820583E-03
  0.742500007       1.95734156E-03
  0.745000005       1.95656391E-03
  0.747500002       1.95582910E-03
  0.750000000       1.95509032E-03
  0.752499998       1.95444864E-03
  0.754999995       1.95393874E-03
  0.757499993       1.95346423E-03
  0.759999990       1.95301999E-03
  0.762499988       1.95266842E-03
  0.764999986       1.95237272E-03
  0.767499983       1.95211545E-03
  0.769999981       1.95197971E-03
  0.772499979       1.95195549E-03
  0.774999976       1.95192825E-03
  0.777499974       1.95190345E-03
  0.779999971       1.95197179E-03
  0.782500029       1.95211603E-03
  0.785000026       1.95227517E-03
  0.787500024       1.95247924E-03
  0.790000021       1.95276074E-03
  0.792500019       1.95307168E-03
  0.795000017       1.95337250E-03
  0.797500014       1.95368729E-03
  0.800000012       1.95404724E-03
  0.802500010       1.95445167E-03
  0.805000007       1.95489265E-03
  0.807500005       1.95536343E-03
  0.810000002       1.95583724E-03
  0.812500000       1.95628125E-03
  0.814999998       1.95672526E-03
  0.817499995       1.95725053E-03
  0.819999993       1.95784587E-03
  0.822499990       1.95839722E-03
  0.824999988       1.95887731E-03
  0.827499986       1.95938349E-03
  0.829999983       1.95994694E-03
  0.832499981       1.96051691E-03
  0.834999979       1.96111016E-03
  0.837499976       1.96174905E-03
  0.839999974       1.96234370E-03
  0.842499971       1.96285150E-03
  0.845000029       1.96338235E-03
  0.847500026       1.96400238E-03
  0.850000024       1.96465570E-03
  0.852500021       1.96530810E-03
  0.855000019       1.96593977E-03
  0.857500017       1.96649088E-03
  0.860000014       1.96700450E-03
  0.862500012       1.96762802E-03
  0.865000010       1.96835957E-03
  0.867500007       1.96905434E-03
  0.870000005       1.96966436E-03
  0.872500002       1.97023107E-03
  0.875000000       1.97077217E-03
  0.877499998       1.97136099E-03
  0.879999995       1.97206927E-03
  0.882499993       1.97278219E-03
  0.884999990       1.97334611E-03
  0.887499988       1.97382341E-03
  0.889999986       1.97434146E-03
  0.892499983       1.97487487E-03
  0.894999981       1.97537872E-03
  0.897499979       1.97587116E-03
  0.899999976       1.97630120E-03
  0.902499974       1.97660876E-03
  0.904999971       1.97687233E-03
  0.907500029       1.97716826E-03
  0.910000026       1.97744323E-03
  0.912500024       1.97765627E-03
  0.915000021       1.97782251E-03
  0.917500019       1.97789702E-03
  0.920000017       1.97786489E-03
  0.922500014       1.97784300E-03
  0.925000012       1.97789562E-03
  0.927500010       1.97793730E-03
  0.930000007       1.97791238E-03
  0.932500005       1.97784300E-03
  0.935000002       1.97772100E-03
  0.937500000       1.97758386E-03
  0.939999998       1.97755382E-03
  0.942499995       1.97761832E-03
  0.944999993       1.97761250E-03
  0.947499990       1.97751587E-03
  0.949999988       1.97746302E-03
  0.952499986       1.97747722E-03
  0.954999983       1.97750353E-03
  0.957499981       1.97757315E-03
  0.959999979       1.97768258E-03
  0.962499976       1.97772309E-03
  0.964999974       1.97770563E-03
  0.967499971       1.97778549E-03
  0.970000029       1.97796780E-03
  0.972500026       1.97811448E-03
  0.975000024       1.97820575E-03
  0.977500021       1.97829609E-03
  0.980000019       1.97836547E-03
  0.982500017       1.97844696E-03
  0.985000014       1.97863509E-03
  0.987500012       1.97885022E-03
  0.990000010       1.97892985E-03
  0.992500007       1.97895034E-03
  0.995000005       1.97907304E-03
  0.997500002       1.97923463E-03
   1.00000000       1.97934126E-03
   1.00250006       1.97946001E-03
   1.00500000       1.97958411E-03
   1.00750005       1.97962672E-03
   1.00999999       1.97968422E-03
   1.01250005       1.97984884E-03
   1.01499999       1.97995221E-03
   1.01750004       1.97992241E-03
   1.01999998       1.97996781E-03
   1.02250004       1.98010588E-03
   1.02499998       1.98012008E-03
   1.02750003       1.98007398E-03
   1.02999997       1.98015734E-03
   1.03250003       1.98021601E-03
   1.03499997       1.98012195E-03
   1.03750002       1.98010192E-03
   1.03999996       1.98019226E-03
   1.04250002       1.98012823E-03
   1.04499996       1.97999016E-03
   1.04750001       1.98004628E-03
   1.04999995       1.98010891E-03
   1.05250001       1.97995431E-03
   1.05499995       1.97984208E-03
   1.05750000       1.97990006E-03
   1.05999994       1.97983556E-03
   1.06250000       1.97965140E-03
   1.06500006       1.97962555E-03
   1.06750000       1.97962206E-03
   1.07000005       1.97942671E-03
   1.07249999       1.97928911E-03
   1.07500005       1.97933358E-03
   1.07749999       1.97925535E-03
   1.08000004       1.97903044E-03
   1.08249998       1.97893358E-03
   1.08500004       1.97888468E-03
   1.08749998       1.97871472E-03
   1.09000003       1.97859597E-03
   1.09249997       1.97855569E-03
   1.09500003       1.97838037E-03
   1.09749997       1.97819993E-03
   1.10000002       1.97820202E-03
   1.10249996       1.97810424E-03
   1.10500002       1.97779364E-03
   1.10749996       1.97765953E-03
   1.11000001       1.97770749E-03
   1.11249995       1.97753031E-03
   1.11500001       1.97725347E-03
   1.11749995       1.97721832E-03
   1.12000000       1.97715475E-03
   1.12249994       1.97683019E-03
   1.12500000       1.97661971E-03
   1.12750006       1.97663275E-03
   1.13000000       1.97648467E-03
   1.13250005       1.97620154E-03
   1.13499999       1.97608024E-03
   1.13750005       1.97594822E-03
   1.13999999       1.97564741E-03
   1.14250004       1.97547115E-03
   1.14499998       1.97543320E-03
   1.14750004       1.97519246E-03
   1.14999998       1.97486440E-03
   1.15250003       1.97473518E-03
   1.15499997       1.97458034E-03
   1.15750003       1.97423599E-03
   1.15999997       1.97400362E-03
   1.16250002       1.97389582E-03
   1.16499996       1.97359803E-03
   1.16750002       1.97324855E-03
   1.16999996       1.97311421E-03
   1.17250001       1.97292725E-03
   1.17499995       1.97251257E-03
   1.17750001       1.97222363E-03
   1.17999995       1.97213958E-03
   1.18250000       1.97190139E-03
   1.18499994       1.97154307E-03
   1.18750000       1.97137101E-03
   1.19000006       1.97124085E-03
   1.19250000       1.97093561E-03
   1.19500005       1.97069370E-03
   1.19749999       1.97064527E-03
   1.20000005       1.97050651E-03
   1.20249999       1.97022711E-03
   1.20500004       1.97008718E-03
   1.20749998       1.97006087E-03
   1.21000004       1.96990650E-03
   1.21249998       1.96971721E-03
   1.21500003       1.96968578E-03
   1.21749997       1.96966203E-03
   1.22000003       1.96948973E-03
   1.22249997       1.96933025E-03
   1.22500002       1.96929579E-03
   1.22749996       1.96923898E-03
   1.23000002       1.96912000E-03
   1.23249996       1.96906249E-03
   1.23500001       1.96900754E-03
   1.23749995       1.96882407E-03
   1.24000001       1.96865224E-03
   1.24249995       1.96864549E-03
   1.24500000       1.96863478E-03
   1.24749994       1.96848391E-03
   1.25000000       1.96834980E-03
   1.25250006       1.96827180E-03
   1.25500000       1.96809834E-03
   1.25750005       1.96793745E-03
   1.25999999       1.96796726E-03
   1.26250005       1.96795608E-03
   1.26499999       1.96771161E-03
   1.26750004       1.96752418E-03
   1.26999998       1.96753698E-03
   1.27250004       1.96746434E-03
   1.27499998       1.96729624E-03
   1.27750003       1.96728273E-03
   1.27999997       1.96724921E-03
   1.28250003       1.96699169E-03
   1.28499997       1.96684641E-03
   1.28750002       1.96695235E-03
   1.28999996       1.96689926E-03
   1.29250002       1.96667621E-03
   1.29499996       1.96668063E-03
   1.29750001       1.96674513E-03
   1.29999995       1.96654582E-03
   1.30250001       1.96642336E-03
   1.30499995       1.96657865E-03
   1.30750000       1.96656026E-03
   1.30999994       1.96633115E-03
   1.31250000       1.96635583E-03
   1.31500006       1.96648529E-03
   1.31750000       1.96634256E-03
   1.32000005       1.96624268E-03
   1.32249999       1.96638773E-03
   1.32500005       1.96634140E-03
   1.32749999       1.96611811E-03
   1.33000004       1.96618750E-03
   1.33249998       1.96633092E-03
   1.33500004       1.96616631E-03
   1.33749998       1.96607970E-03
   1.34000003       1.96624873E-03
   1.34249997       1.96616305E-03
   1.34500003       1.96589297E-03
   1.34749997       1.96599122E-03
   1.35000002       1.96617143E-03
   1.35249996       1.96596212E-03
   1.35500002       1.96581078E-03
   1.35749996       1.96598191E-03
   1.36000001       1.96592114E-03
   1.36249995       1.96562614E-03
   1.36500001       1.96568714E-03
   1.36749995       1.96588063E-03
   1.37000000       1.96569110E-03
   1.37249994       1.96548761E-03
   1.37500000       1.96559425E-03
   1.37750006       1.96558726E-03
   1.38000000       1.96541823E-03
   1.38250005       1.96550693E-03
   1.38499999       1.96563895E-03
   1.38750005       1.96544919E-03
   1.38999999       1.96531625E-03
   1.39250004       1.96548761E-03
   1.39499998       1.96556374E-03
   1.39750004       1.96549459E-03
   1.39999998       1.96559029E-03
   1.40250003       1.96565525E-03
   1.40499997       1.96550833E-03
   1.40750003       1.96555094E-03
   1.40999997       1.96584477E-03
   1.41250002       1.96590275E-03
   1.41499996       1.96577632E-03
   1.41750002       1.96588319E-03
   1.41999996       1.96603034E-03
   1.42250001       1.96595350E-03
   1.42499995       1.96598237E-03
   1.42750001       1.96622708E-03
   1.42999995       1.96628273E-03
   1.43250000       1.96615257E-03
   1.43499994       1.96620147E-03
   1.43750000       1.96633232E-03
   1.44000006       1.96630624E-03
   1.44250000       1.96630089E-03
   1.44500005       1.96641614E-03
   1.44749999       1.96642801E-03
   1.45000005       1.96633441E-03
   1.45249999       1.96633767E-03
   1.45500004       1.96640147E-03
   1.45749998       1.96642708E-03
   1.46000004       1.96646433E-03
   1.46249998       1.96647551E-03
   1.46500003       1.96639961E-03
   1.46749997       1.96637935E-03
   1.47000003       1.96647923E-03
   1.47249997       1.96652347E-03
   1.47500002       1.96647085E-03
   1.47749996       1.96646503E-03
   1.48000002       1.96649507E-03
   1.48249996       1.96649111E-03
   1.48500001       1.96653628E-03
   1.48749995       1.96664175E-03
   1.49000001       1.96666573E-03
   1.49249995       1.96661707E-03
   1.49500000       1.96664594E-03
   1.49749994       1.96675584E-03
   1.50000000       1.96684687E-03
   1.50250006       1.96689856E-03
   1.50500000       1.96694396E-03
   1.50750005       1.96700054E-03
   1.50999999       1.96706853E-03
   1.51250005       1.96713465E-03
   1.51499999       1.96722918E-03
   1.51750004       1.96738378E-03
   1.51999998       1.96749135E-03
   1.52250004       1.96747086E-03
   1.52499998       1.96750602E-03
   1.52750003       1.96773396E-03
   1.52999997       1.96792651E-03
   1.53250003       1.96792302E-03
   1.53499997       1.96794583E-03
   1.53750002       1.96811440E-03
   1.53999996       1.96823478E-03
   1.54250002       1.96828204E-03
   1.54499996       1.96843199E-03
   1.54750001       1.96862803E-03
   1.54999995       1.96871324E-03
   1.55250001       1.96876167E-03
   1.55499995       1.96886668E-03
   1.55750000       1.96897727E-03
   1.55999994       1.96910906E-03
   1.56250000       1.96929043E-03
   1.56500006       1.96940964E-03
   1.56750000       1.96944969E-03
   1.57000005       1.96954096E-03
   1.57249999       1.96965528E-03
   1.57500005       1.96971698E-03
   1.57749999       1.96985761E-03
   1.58000004       1.97007973E-03
   1.58249998       1.97012606E-03
   1.58500004       1.97005086E-03
   1.58749998       1.97019987E-03
   1.59000003       1.97049510E-03
   1.59249997       1.97058334E-03
   1.59500003       1.97055680E-03
   1.59749997       1.97068113E-03
   1.60000002       1.97082618E-03
   1.60249996       1.97086530E-03
   1.60500002       1.97100383E-03
   1.60749996       1.97125971E-03
   1.61000001       1.97137496E-03
   1.61249995       1.97138451E-03
   1.61500001       1.97152677E-03
   1.61749995       1.97173702E-03
   1.62000000       1.97185599E-03
   1.62249994       1.97197194E-03
   1.62500000       1.97214982E-03
   1.62750006       1.97229604E-03
   1.63000000       1.97242596E-03
   1.63250005       1.97259476E-03
   1.63499999       1.97270908E-03
   1.63750005       1.97277544E-03
   1.63999999       1.97295262E-03
   1.64250004       1.97317754E-03
   1.64499998       1.97326206E-03
   1.64750004       1.97331258E-03
   1.64999998       1.97349442E-03
   1.65250003       1.97366648E-03
   1.65499997       1.97373540E-03
   1.65750003       1.97388115E-03
   1.65999997       1.97409163E-03
   1.66250002       1.97413238E-03
   1.66499996       1.97410514E-03
   1.66750002       1.97429885E-03
   1.66999996       1.97456754E-03
   1.67250001       1.97461224E-03
   1.67499995       1.97457825E-03
   1.67750001       1.97471329E-03
   1.67999995       1.97488139E-03
   1.68250000       1.97493494E-03
   1.68499994       1.97501597E-03
   1.68750000       1.97516126E-03
   1.69000006       1.97520666E-03
   1.69250000       1.97519991E-03
   1.69500005       1.97532866E-03
   1.69749999       1.97551097E-03
   1.70000005       1.97556708E-03
   1.70249999       1.97557057E-03
   1.70500004       1.97564834E-03
   1.70749998       1.97574985E-03
   1.71000004       1.97583903E-03
   1.71249998       1.97596499E-03
   1.71500003       1.97607675E-03
   1.71749997       1.97610422E-03
   1.72000003       1.97614310E-03
   1.72249997       1.97628117E-03
   1.72500002       1.97643880E-03
   1.72749996       1.97655545E-03
   1.73000002       1.97667768E-03
   1.73249996       1.97678991E-03
   1.73500001       1.97684905E-03
   1.73749995       1.97693566E-03
   1.74000001       1.97711657E-03
   1.74249995       1.97730912E-03
   1.74500000       1.97745138E-03
   1.74749994       1.97758223E-03
   1.75000000       1.97769632E-03
   1.75250006       1.97777688E-03
   1.75500000       1.97790959E-03
   1.75750005       1.97811890E-03
   1.75999999       1.97827560E-03
   1.76250005       1.97835010E-03
   1.76499999       1.97846373E-03
   1.76750004       1.97860482E-03
   1.76999998       1.97867956E-03
   1.77250004       1.97877432E-03
   1.77499998       1.97896408E-03
   1.77750003       1.97908585E-03
   1.77999997       1.97906885E-03
   1.78250003       1.97912473E-03
   1.78499997       1.97931798E-03
   1.78750002       1.97943440E-03
   1.78999996       1.97943114E-03
   1.79250002       1.97948120E-03
   1.79499996       1.97958155E-03
   1.79750001       1.97963766E-03
   1.79999995       1.97973032E-03
   1.80250001       1.97988562E-03
   1.80499995       1.97994686E-03
   1.80750000       1.97992870E-03
   1.80999994       1.98001997E-03
   1.81250000       1.98018737E-03
   1.81500006       1.98028074E-03
   1.81750000       1.98035082E-03
   1.82000005       1.98044558E-03
   1.82249999       1.98048167E-03
   1.82500005       1.98054081E-03
   1.82749999       1.98075129E-03
   1.83000004       1.98091986E-03
   1.83249998       1.98088796E-03
   1.83500004       1.98089611E-03
   1.83749998       1.98107329E-03
   1.84000003       1.98118342E-03
   1.84249997       1.98120927E-03
   1.84500003       1.98136643E-03
   1.84749997       1.98151264E-03
   1.85000002       1.98145071E-03
   1.85249996       1.98146375E-03
   1.85500002       1.98171870E-03
   1.85749996       1.98184396E-03
   1.86000001       1.98173407E-03
   1.86249995       1.98177900E-03
   1.86500001       1.98200578E-03
   1.86749995       1.98207982E-03
   1.87000000       1.98207283E-03
   1.87249994       1.98221579E-03
   1.87500000       1.98233686E-03
   1.87750006       1.98232126E-03
   1.88000000       1.98239391E-03
   1.88250005       1.98255945E-03
   1.88499999       1.98261230E-03
   1.88750005       1.98265398E-03
   1.88999999       1.98280881E-03
   1.89250004       1.98289077E-03
   1.89499998       1.98287913E-03
   1.89750004       1.98299345E-03
   1.89999998       1.98314246E-03
   1.90250003       1.98313501E-03
   1.90499997       1.98316108E-03
   1.90750003       1.98332919E-03
   1.90999997       1.98339019E-03
   1.91250002       1.98337063E-03
   1.91499996       1.98353734E-03
   1.91750002       1.98371150E-03
   1.91999996       1.98362512E-03
   1.92250001       1.98355410E-03
   1.92499995       1.98372360E-03
   1.92750001       1.98386237E-03
   1.92999995       1.98386912E-03
   1.93250000       1.98395713E-03
   1.93499994       1.98404584E-03
   1.93750000       1.98398298E-03
   1.94000006       1.98400160E-03
   1.94250000       1.98420114E-03
   1.94500005       1.98430009E-03
   1.94749999       1.98427588E-03
   1.95000005       1.98435271E-03
   1.95249999       1.98443187E-03
   1.95500004       1.98439439E-03
   1.95749998       1.98446889E-03
   1.96000004       1.98467751E-03
   1.96249998       1.98472361E-03
   1.96500003       1.98465330E-03
   1.96749997       1.98471826E-03
   1.97000003       1.98480673E-03
   1.97249997       1.98480580E-03
   1.97500002       1.98491034E-03
   1.97749996       1.98507262E-03
   1.98000002       1.98502955E-03
   1.98249996       1.98494829E-03
   1.98500001       1.98509288E-03
   1.98749995       1.98523002E-03
   1.99000001       1.98517134E-03
   1.99249995       1.98517460E-03
   1.99500000       1.98529428E-03
   1.99749994       1.98528566E-03
   2.00000000       1.98524236E-03
   2.00250006       1.98538019E-03
   2.00500011       1.98549987E-03
   2.00749993       1.98543863E-03
   2.00999999       1.98542490E-03
   2.01250005       1.98553246E-03
   2.01500010       1.98556646E-03
   2.01749992       1.98556134E-03
   2.01999998       1.98565517E-03
   2.02250004       1.98572199E-03
   2.02500010       1.98569056E-03
   2.02749991       1.98571943E-03
   2.02999997       1.98580557E-03
   2.03250003       1.98581954E-03
   2.03500009       1.98584702E-03
   2.03749990       1.98594411E-03
   2.03999996       1.98593875E-03
   2.04250002       1.98585074E-03
   2.04500008       1.98591757E-03
   2.04749990       1.98607449E-03
   2.04999995       1.98608194E-03
   2.05250001       1.98601792E-03
   2.05500007       1.98603724E-03
   2.05749989       1.98604329E-03
   2.05999994       1.98601722E-03
   2.06250000       1.98611524E-03
   2.06500006       1.98625191E-03
   2.06750011       1.98619184E-03
   2.06999993       1.98603887E-03
   2.07249999       1.98606425E-03
   2.07500005       1.98622840E-03
   2.07750010       1.98632339E-03
   2.07999992       1.98632246E-03
   2.08249998       1.98629079E-03
   2.08500004       1.98624213E-03
   2.08750010       1.98622420E-03
   2.08999991       1.98629731E-03
   2.09249997       1.98640674E-03
   2.09500003       1.98645471E-03
   2.09750009       1.98642607E-03
   2.09999990       1.98636856E-03
   2.10249996       1.98634970E-03
   2.10500002       1.98641326E-03
   2.10750008       1.98649196E-03
   2.10999990       1.98647985E-03
   2.11249995       1.98642188E-03
   2.11500001       1.98644376E-03
   2.11750007       1.98650802E-03
   2.11999989       1.98649592E-03
   2.12249994       1.98645657E-03
   2.12500000       1.98649080E-03
   2.12750006       1.98652176E-03
   2.13000011       1.98646937E-03
   2.13249993       1.98644842E-03
   2.13499999       1.98653224E-03
   2.13750005       1.98657671E-03
   2.14000010       1.98649964E-03