 -0.159999996       0.00000000    
 -0.157499999       0.00000000    
 -0.155000001       0.00000000    
 -0.152500004       0.00000000    
 -0.150000006       0.00000000    
 -0.147499993       8.52428039E-15
 -0.144999996       3.66144425E-14
 -0.142499998      -4.73676545E-13
 -0.140000001       9.36898020E-13
 -0.137500003       3.01114624E-12
 -0.135000005      -8.87556782E-12
 -0.132499993      -1.19042623E-11
 -0.129999995       4.01817780E-11
 -0.127499998       3.50595525E-11
 -0.125000000      -1.27748881E-10
 -0.122500002      -8.25383512E-11
 -0.119999997       3.31475680E-10
 -0.117500000       1.72741849E-10
 -0.115000002      -7.56209206E-10
 -0.112499997      -3.94923205E-10
 -0.109999999       1.49718016E-09
 -0.107500002       1.00562580E-09
 -0.104999997      -2.37689890E-09
 -0.102499999      -2.28501262E-09
 -0.100000001       2.63691780E-09
  -9.74999964E-02   3.85616961E-09
  -9.49999988E-02  -1.37980405E-09
  -9.25000012E-02  -4.19983204E-09
  -9.00000036E-02  -1.07526477E-09
  -8.74999985E-02   1.71635284E-09
  -8.50000009E-02   2.67244826E-09
  -8.25000033E-02   3.33676886E-09
  -7.99999982E-02  -1.28897759E-09
  -7.75000006E-02  -8.90286334E-09
  -7.50000030E-02  -4.22795665E-09
  -7.24999979E-02   1.17222463E-08
  -7.00000003E-02   1.40448293E-08
  -6.75000027E-02  -5.88883609E-09
  -6.49999976E-02  -2.29268071E-08
  -6.25000000E-02  -1.29377122E-08
  -5.99999987E-02   1.71139423E-08
  -5.75000010E-02   3.36480959E-08
  -5.49999997E-02   8.41706083E-09
  -5.24999984E-02  -3.53555976E-08
  -5.00000007E-02  -3.45860158E-08
  -4.74999994E-02   1.67653305E-08
  -4.50000018E-02   4.13220462E-08
  -4.25000004E-02   3.94516420E-09
  -3.99999991E-02  -2.90492252E-08
  -3.75000015E-02  -1.62707874E-08
  -3.50000001E-02  -2.51396415E-09
  -3.24999988E-02  -3.40174955E-09
  -2.99999993E-02   2.09383906E-08
  -2.74999999E-02   4.88942469E-08
  -2.50000004E-02   1.89107485E-08
  -2.25000009E-02  -3.36084938E-08
  -1.99999996E-02  -2.05647730E-08
  -1.75000001E-02   5.20587342E-08
  -1.49999997E-02   1.11243281E-07
  -1.25000002E-02   1.24155449E-07
  -9.99999978E-03   1.01789993E-07
  -7.49999983E-03   8.69565753E-08
  -4.99999989E-03   1.46379705E-07
  -2.49999994E-03   2.76625912E-07
   0.00000000       3.89696652E-07
   2.49999994E-03   4.74321894E-07
   4.99999989E-03   6.18802289E-07
   7.49999983E-03   8.31393493E-07
   9.99999978E-03   1.06253310E-06
   1.25000002E-02   1.39007523E-06
   1.49999997E-02   1.91214122E-06
   1.75000001E-02   2.54297970E-06
   1.99999996E-02   3.19638866E-06
   2.25000009E-02   4.01129455E-06
   2.50000004E-02   5.15022703E-06
   2.74999999E-02   6.60918977E-06
   2.99999993E-02   8.40198027E-06
   3.24999988E-02   1.06411198E-05
   3.50000001E-02   1.33597714E-05
   3.75000015E-02   1.65735710E-05
   3.99999991E-02   2.04904536E-05
   4.25000004E-02   2.53620328E-05
   4.50000018E-02   3.12668708E-05
   4.74999994E-02   3.82735161E-05
   5.00000007E-02   4.65839694E-05
   5.24999984E-02   5.63851354E-05
   5.49999997E-02   6.78567303E-05
   5.75000010E-02   8.13377264E-05
   5.99999987E-02   9.71737463E-05
   6.25000000E-02   1.15513016E-04
   6.49999976E-02   1.36521092E-04
   6.75000027E-02   1.60563854E-04
   7.00000003E-02   1.87990299E-04
   7.24999979E-02   2.19044043E-04
   7.50000030E-02   2.54060200E-04
   7.75000006E-02   2.93408724E-04
   7.99999982E-02   3.37287755E-04
   8.25000033E-02   3.85861465E-04
   8.50000009E-02   4.39424330E-04
   8.74999985E-02   4.98226262E-04
   9.00000036E-02   5.62396541E-04
   9.25000012E-02   6.32102950E-04
   9.49999988E-02   7.07467436E-04
   9.74999964E-02   7.88395526E-04
  0.100000001       8.74773599E-04
  0.102499999       9.66622727E-04
  0.104999997       1.06386095E-03
  0.107500002       1.16621214E-03
  0.109999999       1.27340946E-03
  0.112499997       1.38514803E-03
  0.115000002       1.50093751E-03
  0.117500000       1.62031932E-03
  0.119999997       1.74298289E-03
  0.122500002       1.86847022E-03
  0.125000000       1.99612929E-03
  0.127499998       2.12541129E-03
  0.129999995       2.25581951E-03
  0.132499993       2.38670222E-03
  0.135000005       2.51748553E-03
  0.137500003       2.64781690E-03
  0.140000001       2.77720345E-03
  0.142499998       2.90493993E-03
  0.144999996       3.03053157E-03
  0.147499993       3.15368664E-03
  0.150000006       3.27395042E-03
  0.152500004       3.39084282E-03
  0.155000001       3.50411539E-03
  0.157499999       3.61347036E-03
  0.159999996       3.71839874E-03
  0.162499994       3.81853036E-03
  0.165000007       3.91372060E-03
  0.167500004       4.00369521E-03
  0.170000002       4.08804789E-03
  0.172499999       4.16647224E-03
  0.174999997       4.23866743E-03
  0.177499995       4.30423627E-03
  0.180000007       4.36287373E-03
  0.182500005       4.41437168E-03
  0.185000002       4.45840182E-03
  0.187500000       4.49457113E-03
  0.189999998       4.52259136E-03
  0.192499995       4.54221340E-03
  0.194999993       4.55318904E-03
  0.197500005       4.55537159E-03
  0.200000003       4.54866793E-03
  0.202500001       4.53295000E-03
  0.204999998       4.50823316E-03
  0.207499996       4.47471999E-03
  0.209999993       4.43256367E-03
  0.212500006       4.38191975E-03
  0.215000004       4.32321522E-03
  0.217500001       4.25701402E-03
  0.219999999       4.18377668E-03
  0.222499996       4.10407782E-03
  0.224999994       4.01875749E-03
  0.227500007       3.92861944E-03
  0.230000004       3.83434934E-03
  0.232500002       3.73682147E-03
  0.234999999       3.63707007E-03
  0.237499997       3.53595335E-03
  0.239999995       3.43424943E-03
  0.242500007       3.33292037E-03
  0.245000005       3.23290518E-03
  0.247500002       3.13490489E-03
  0.250000000       3.03960987E-03
  0.252499998       2.94778030E-03
  0.254999995       2.85998336E-03
  0.257499993       2.77660461E-03
  0.259999990       2.69810855E-03
  0.262499988       2.62491032E-03
  0.264999986       2.55714590E-03
  0.267500013       2.49487907E-03
  0.270000011       2.43827375E-03
  0.272500008       2.38731550E-03
  0.275000006       2.34175799E-03
  0.277500004       2.30146339E-03
  0.280000001       2.26635463E-03
  0.282499999       2.23609386E-03
  0.284999996       2.21024570E-03
  0.287499994       2.18858430E-03
  0.289999992       2.17084168E-03
  0.292499989       2.15652538E-03
  0.294999987       2.14525545E-03
  0.297500014       2.13683466E-03
  0.300000012       2.13087769E-03
  0.302500010       2.12689000E-03
  0.305000007       2.12462852E-03
  0.307500005       2.12391606E-03
  0.310000002       2.12437753E-03
  0.312500000       2.12573493E-03
  0.314999998       2.12792726E-03
  0.317499995       2.13072682E-03
  0.319999993       2.13378551E-03
  0.322499990       2.13703699E-03
  0.324999988       2.14051409E-03
  0.327499986       2.14401353E-03
  0.330000013       2.14738864E-03
  0.332500011       2.15071300E-03
  0.335000008       2.15392164E-03
  0.337500006       2.15683831E-03
  0.340000004       2.15954753E-03
  0.342500001       2.16215826E-03
  0.344999999       2.16450612E-03
  0.347499996       2.16653873E-03
  0.349999994       2.16846121E-03
  0.352499992       2.17027613E-03
  0.354999989       2.17180443E-03
  0.357499987       2.17311480E-03
  0.360000014       2.17433367E-03
  0.362500012       2.17534695E-03
  0.365000010       2.17613298E-03
  0.367500007       2.17685313E-03
  0.370000005       2.17743358E-03
  0.372500002       2.17767386E-03
  0.375000000       2.17764173E-03
  0.377499998       2.17742613E-03
  0.379999995       2.17691017E-03
  0.382499993       2.17607757E-03
  0.384999990       2.17497954E-03
  0.387499988       2.17342610E-03
  0.389999986       2.17129244E-03
  0.392500013       2.16877041E-03
  0.395000011       2.16588122E-03
  0.397500008       2.16236897E-03
  0.400000006       2.15825578E-03
  0.402500004       2.15372117E-03
  0.405000001       2.14861101E-03
  0.407499999       2.14278023E-03
  0.409999996       2.13644747E-03
  0.412499994       2.12968793E-03
  0.414999992       2.12231278E-03
  0.417499989       2.11441936E-03
  0.419999987       2.10624188E-03
  0.422500014       2.09766557E-03
  0.425000012       2.08862266E-03
  0.427500010       2.07942002E-03
  0.430000007       2.07019434E-03
  0.432500005       2.06078333E-03
  0.435000002       2.05128756E-03
  0.437500000       2.04199669E-03
  0.439999998       2.03293934E-03
  0.442499995       2.02411460E-03
  0.444999993       2.01573479E-03
  0.447499990       2.00789282E-03
  0.449999988       2.00055377E-03
  0.452499986       1.99386664E-03
  0.455000013       1.98799511E-03
  0.457500011       1.98292686E-03
  0.460000008       1.97873288E-03
  0.462500006       1.97554845E-03
  0.465000004       1.97333517E-03
  0.467500001       1.97210070E-03
  0.469999999       1.97202712E-03
  0.472499996       1.97309675E-03
  0.474999994       1.97514403E-03
  0.477499992       1.97826745E-03
  0.479999989       1.98259647E-03
  0.482499987       1.98795297E-03
  0.485000014       1.99425151E-03
  0.487500012       2.00164667E-03
  0.490000010       2.01005931E-03
  0.492500007       2.01926660E-03
  0.495000005       2.02934607E-03
  0.497500002       2.04035407E-03
  0.500000000       2.05203588E-03
  0.502499998       2.06430815E-03
  0.504999995       2.07732990E-03
  0.507499993       2.09097355E-03
  0.509999990       2.10499205E-03
  0.512499988       2.11947877E-03
  0.514999986       2.13449751E-03
  0.517499983       2.14978610E-03
  0.519999981       2.16524885E-03
  0.522499979       2.18102965E-03
  0.524999976       2.19702907E-03
  0.527499974       2.21305736E-03
  0.529999971       2.22920533E-03
  0.532500029       2.24548834E-03
  0.535000026       2.26166891E-03
  0.537500024       2.27771048E-03
  0.540000021       2.29376322E-03
  0.542500019       2.30972073E-03
  0.545000017       2.32540583E-03
  0.547500014       2.34089349E-03
  0.550000012       2.35620677E-03
  0.552500010       2.37116148E-03
  0.555000007       2.38571293E-03
  0.557500005       2.39996193E-03
  0.560000002       2.41384585E-03
  0.562500000       2.42723781E-03
  0.564999998       2.44013383E-03
  0.567499995       2.45251739E-03
  0.569999993       2.46431306E-03
  0.572499990       2.47551361E-03
  0.574999988       2.48610950E-03
  0.577499986       2.49600504E-03
  0.579999983       2.50514876E-03
  0.582499981       2.51355884E-03
  0.584999979       2.52120406E-03
  0.587499976       2.52804044E-03
  0.589999974       2.53406470E-03
  0.592499971       2.53923167E-03
  0.595000029       2.54347199E-03
  0.597500026       2.54679634E-03
  0.600000024       2.54924386E-03
  0.602500021       2.55080452E-03
  0.605000019       2.55146576E-03
  0.607500017       2.55123200E-03
  0.610000014       2.55008950E-03
  0.612500012       2.54804152E-03
  0.615000010       2.54513789E-03
  0.617500007       2.54146336E-03
  0.620000005       2.53709452E-03
  0.622500002       2.53201765E-03
  0.625000000       2.52616871E-03
  0.627499998       2.51964107E-03
  0.629999995       2.51263031E-03
  0.632499993       2.50515994E-03
  0.634999990       2.49720109E-03
  0.637499988       2.48892326E-03
  0.639999986       2.48041539E-03
  0.642499983       2.47153128E-03
  0.644999981       2.46236217E-03
  0.647499979       2.45323381E-03
  0.649999976       2.44412571E-03
  0.652499974       2.43485137E-03
  0.654999971       2.42562429E-03
  0.657500029       2.41664960E-03
  0.660000026       2.40771589E-03
  0.662500024       2.39882292E-03
  0.665000021       2.39031133E-03
  0.667500019       2.38212454E-03
  0.670000017       2.37400061E-03
  0.672500014       2.36617634E-03
  0.675000012       2.35886150E-03
  0.677500010       2.35175528E-03
  0.680000007       2.34483741E-03
  0.682500005       2.33850558E-03
  0.685000002       2.33263383E-03
  0.687500000       2.32683704E-03
  0.689999998       2.32138229E-03
  0.692499995       2.31656642E-03
  0.694999993       2.31203344E-03
  0.697499990       2.30763922E-03
  0.699999988       2.30376911E-03
  0.702499986       2.30038445E-03
  0.704999983       2.29712366E-03
  0.707499981       2.29414739E-03
  0.709999979       2.29166797E-03
  0.712499976       2.28939601E-03
  0.714999974       2.28725513E-03
  0.717499971       2.28553801E-03
  0.720000029       2.28412682E-03
  0.722500026       2.28274497E-03
  0.725000024       2.28158524E-03
  0.727500021       2.28074356E-03
  0.730000019       2.27992656E-03
  0.732500017       2.27918336E-03
  0.735000014       2.27876427E-03
  0.737500012       2.27840664E-03
  0.740000010       2.27788114E-03
  0.742500007       2.27751257E-03
  0.745000005       2.27737450E-03
  0.747500002       2.27710186E-03
  0.750000000       2.27676751E-03
  0.752499998       2.27665156E-03
  0.754999995       2.27648369E-03
  0.757499993       2.27605016E-03
  0.759999990       2.27568112E-03
  0.762499988       2.27544247E-03
  0.764999986       2.27501616E-03
  0.767499983       2.27450347E-03
  0.769999981       2.27413327E-03
  0.772499979       2.27364386E-03
  0.774999976       2.27291649E-03
  0.777499974       2.27228645E-03
  0.779999971       2.27173883E-03
  0.782500029       2.27095862E-03
  0.785000026       2.27010343E-03
  0.787500024       2.26941495E-03
  0.790000021       2.26864405E-03
  0.792500019       2.26767571E-03
  0.795000017       2.26681330E-03
  0.797500014       2.26606685E-03
  0.800000012       2.26516766E-03
  0.802500010       2.26420164E-03
  0.805000007       2.26335390E-03
  0.807500005       2.26247823E-03
  0.810000002       2.26150709E-03
  0.812500000       2.26062466E-03
  0.814999998       2.25983304E-03
  0.817499995       2.25897855E-03
  0.819999993       2.25808984E-03
  0.822499990       2.25723861E-03
  0.824999988       2.25639110E-03
  0.827499986       2.25557084E-03
  0.829999983       2.25480273E-03
  0.832499981       2.25401856E-03
  0.834999979       2.25322368E-03
  0.837499976       2.25247676E-03
  0.839999974       2.25171424E-03
  0.842499971       2.25091726E-03
  0.845000029       2.25020852E-03
  0.847500026       2.24955892E-03
  0.850000024       2.24883156E-03
  0.852500021       2.24810326E-03
  0.855000019       2.24746647E-03
  0.857500017       2.24679615E-03
  0.860000014       2.24607973E-03
  0.862500012       2.24548578E-03
  0.865000010       2.24496308E-03
  0.867500007       2.24433467E-03
  0.870000005       2.24368344E-03
  0.872500002       2.24314374E-03
  0.875000000       2.24262127E-03
  0.877499998       2.24206760E-03
  0.879999995       2.24157749E-03
  0.882499993       2.24112323E-03
  0.884999990       2.24062521E-03
  0.887499988       2.24014348E-03
  0.889999986       2.23972858E-03
  0.892499983       2.23933929E-03
  0.894999981       2.23897304E-03
  0.897499979       2.23862589E-03
  0.899999976       2.23825034E-03
  0.902499974       2.23789620E-03
  0.904999971       2.23761611E-03
  0.907500029       2.23732181E-03
  0.910000026       2.23700097E-03
  0.912500024       2.23677163E-03
  0.915000021       2.23657535E-03
  0.917500019       2.23628827E-03
  0.920000017       2.23602983E-03
  0.922500014       2.23589316E-03
  0.925000012       2.23571737E-03
  0.927500010       2.23547057E-03
  0.930000007       2.23529758E-03
  0.932500005       2.23514833E-03
  0.935000002       2.23492831E-03
  0.937500000       2.23476882E-03
  0.939999998       2.23469757E-03
  0.942499995       2.23454670E-03
  0.944999993       2.23435787E-03
  0.947499990       2.23424868E-03
  0.949999988       2.23408639E-03
  0.952499986       2.23385659E-03
  0.954999983       2.23377137E-03
  0.957499981       2.23373459E-03
  0.959999979       2.23351480E-03
  0.962499976       2.23329873E-03
  0.964999974       2.23325309E-03
  0.967499971       2.23311991E-03
  0.970000029       2.23285356E-03
  0.972500026       2.23273877E-03
  0.975000024       2.23268196E-03
  0.977500021       2.23243912E-03
  0.980000019       2.23223073E-03
  0.982500017       2.23219953E-03
  0.985000014       2.23205937E-03
  0.987500012       2.23181676E-03
  0.990000010       2.23174598E-03
  0.992500007       2.23167613E-03
  0.995000005       2.23142048E-03
  0.997500002       2.23128777E-03
   1.00000000       2.23131385E-03
   1.00250006       2.23112945E-03
   1.00500000       2.23089149E-03
   1.00750005       2.23095086E-03
   1.00999999       2.23096833E-03
   1.01250005       2.23067845E-03
   1.01499999       2.23053549E-03
   1.01750004       2.23065703E-03
   1.01999998       2.23057182E-03
   1.02250004       2.23034597E-03
   1.02499998       2.23037717E-03
   1.02750003       2.23042490E-03
   1.02999997       2.23021768E-03
   1.03250003       2.23009172E-03
   1.03499997       2.23016203E-03
   1.03750002       2.23010569E-03
   1.03999996       2.22997740E-03
   1.04250002       2.22998532E-03
   1.04499996       2.22992268E-03
   1.04750001       2.22975085E-03
   1.04999995       2.22976948E-03
   1.05250001       2.22984864E-03
   1.05499995       2.22969032E-03
   1.05750000       2.22955248E-03
   1.05999994       2.22963118E-03
   1.06250000       2.22958555E-03
   1.06500006       2.22938578E-03
   1.06750000       2.22940021E-03
   1.07000005       2.22949870E-03
   1.07249999       2.22935784E-03
   1.07500005       2.22921325E-03
   1.07749999       2.22927122E-03
   1.08000004       2.22924864E-03
   1.08249998       2.22908589E-03
   1.08500004       2.22904095E-03
   1.08749998       2.22904771E-03
   1.09000003       2.22894875E-03
   1.09249997       2.22889031E-03
   1.09500003       2.22889218E-03
   1.09749997       2.22879578E-03
   1.10000002       2.22871383E-03
   1.10249996       2.22874177E-03
   1.10500002       2.22866028E-03
   1.10749996       2.22849101E-03
   1.11000001       2.22851522E-03
   1.11249995       2.22859578E-03
   1.11500001       2.22846307E-03
   1.11749995       2.22834200E-03
   1.12000000       2.22841883E-03
   1.12249994       2.22841464E-03
   1.12500000       2.22825841E-03
   1.12750006       2.22822791E-03
   1.13000000       2.22829008E-03
   1.13250005       2.22823978E-03
   1.13499999       2.22818507E-03
   1.13750005       2.22822488E-03
   1.13999999       2.22821557E-03
   1.14250004       2.22817087E-03
   1.14499998       2.22820439E-03
   1.14750004       2.22820672E-03
   1.14999998       2.22813454E-03
   1.15250003       2.22815084E-03
   1.15499997       2.22821743E-03
   1.15750003       2.22819066E-03
   1.15999997       2.22818879E-03
   1.16250002       2.22828193E-03
   1.16499996       2.22828868E-03
   1.16750002       2.22822651E-03
   1.16999996       2.22828379E-03
   1.17250001       2.22836458E-03
   1.17499995       2.22833757E-03
   1.17750001       2.22835201E-03
   1.17999995       2.22844072E-03
   1.18250000       2.22844700E-03
   1.18499994       2.22845958E-03
   1.18750000       2.22859182E-03
   1.19000006       2.22863699E-03
   1.19250000       2.22854945E-03
   1.19500005       2.22859788E-03
   1.19749999       2.22874526E-03
   1.20000005       2.22875178E-03
   1.20249999       2.22876016E-03
   1.20500004       2.22892081E-03
   1.20749998       2.22898345E-03
   1.21000004       2.22890358E-03
   1.21249998       2.22898484E-03
   1.21500003       2.22917041E-03
   1.21749997       2.22917716E-03
   1.22000003       2.22915318E-03
   1.22249997       2.22930009E-03
   1.22500002       2.22940207E-03
   1.22749996       2.22936855E-03
   1.23000002       2.22943816E-03
   1.23249996       2.22959276E-03
   1.23500001       2.22962606E-03
   1.23749995       2.22963444E-03
   1.24000001       2.22974573E-03
   1.24249995       2.22983095E-03
   1.24500000       2.22986657E-03
   1.24749994       2.22996413E-03
   1.25000000       2.23004166E-03
   1.25250006       2.23004841E-03
   1.25500000       2.23013805E-03
   1.25750005       2.23027496E-03
   1.25999999       2.23029079E-03
   1.26250005       2.23032036E-03
   1.26499999       2.23048357E-03
   1.26750004       2.23054946E-03
   1.26999998       2.23048031E-03
   1.27250004       2.23057368E-03
   1.27499998       2.23077880E-03
   1.27750003       2.23079720E-03
   1.27999997       2.23076390E-03
   1.28250003       2.23091082E-03
   1.28499997       2.23101093E-03
   1.28750002       2.23092875E-03
   1.28999996       2.23095273E-03
   1.29250002       2.23113364E-03
   1.29499996       2.23118486E-03
   1.29750001       2.23113224E-03
   1.29999995       2.23119184E-03
   1.30250001       2.23126612E-03
   1.30499995       2.23124214E-03
   1.30750000       2.23126845E-03
   1.30999994       2.23135762E-03
   1.31250000       2.23136018E-03
   1.31500006       2.23134388E-03
   1.31750000       2.23140977E-03
   1.32000005       2.23144540E-03
   1.32249999       2.23144423E-03
   1.32500005       2.23152968E-03
   1.32749999       2.23160652E-03
   1.33000004       2.23156880E-03
   1.33249998       2.23159487E-03
   1.33500004       2.23174016E-03
   1.33749998       2.23178184E-03
   1.34000003       2.23174249E-03
   1.34249997       2.23184540E-03
   1.34500003       2.23197672E-03
   1.34749997       2.23195343E-03
   1.35000002       2.23196368E-03
   1.35249996       2.23211502E-03
   1.35500002       2.23217485E-03
   1.35749996       2.23212293E-03
   1.36000001       2.23219022E-03
   1.36249995       2.23230594E-03
   1.36500001       2.23229057E-03
   1.36749995       2.23229104E-03
   1.37000000       2.23239302E-03
   1.37249994       2.23240140E-03
   1.37500000       2.23233318E-03
   1.37750006       2.23238650E-03
   1.38000000       2.23245402E-03
   1.38250005       2.23240047E-03
   1.38499999       2.23240326E-03
   1.38750005       2.23249150E-03
   1.38999999       2.23245635E-03
   1.39250004       2.23238394E-03
   1.39499998       2.23245751E-03
   1.39750004       2.23247940E-03
   1.39999998       2.23236275E-03
   1.40250003       2.23239884E-03
   1.40499997       2.23254971E-03
   1.40750003       2.23247404E-03
   1.40999997       2.23234179E-03
   1.41250002       2.23246752E-03
   1.41499996       2.23256578E-03
   1.41750002       2.23241979E-03
   1.41999996       2.23239860E-03
   1.42250001       2.23256648E-03
   1.42499995       2.23253365E-03
   1.42750001       2.23241327E-03
   1.42999995       2.23255507E-03
   1.43250000       2.23268289E-03
   1.43499994       2.23254017E-03
   1.43750000       2.23250128E-03
   1.44000006       2.23267195E-03
   1.44250000       2.23267241E-03
   1.44500005       2.23259511E-03
   1.44749999       2.23274552E-03
   1.45000005       2.23282981E-03
   1.45249999       2.23266613E-03
   1.45500004       2.23269430E-03
   1.45749998       2.23294599E-03
   1.46000004       2.23293854E-03
   1.46249998       2.23280629E-03
   1.46500003       2.23295088E-03
   1.46749997       2.23307009E-03
   1.47000003       2.23292806E-03
   1.47249997       2.23295670E-03
   1.47500002       2.23319419E-03
   1.47749996       2.23316904E-03
   1.48000002       2.23303633E-03
   1.48249996       2.23318534E-03
   1.48500001       2.23328546E-03
   1.48749995       2.23311665E-03
   1.49000001       2.23313062E-03
   1.49249995       2.23334343E-03
   1.49500000       2.23328057E-03
   1.49749994       2.23313249E-03
   1.50000000       2.23328243E-03
   1.50250006       2.23336997E-03
   1.50500000       2.23319116E-03
   1.50750005       2.23320513E-03
   1.50999999       2.23338907E-03
   1.51250005       2.23328057E-03
   1.51499999       2.23313016E-03
   1.51750004       2.23331130E-03
   1.51999998       2.23339978E-03
   1.52250004       2.23319326E-03
   1.52499998       2.23319698E-03
   1.52750003       2.23338837E-03
   1.52999997       2.23327847E-03
   1.53250003       2.23312993E-03
   1.53499997       2.23334087E-03
   1.53750002       2.23346893E-03
   1.53999996       2.23326054E-03
   1.54250002       2.23322981E-03
   1.54499996       2.23344029E-03
   1.54750001       2.23341607E-03
   1.54999995       2.23329896E-03
   1.55250001       2.23344332E-03
   1.55499995       2.23352783E-03
   1.55750000       2.23336462E-03
   1.55999994       2.23337440E-03
   1.56250000       2.23356998E-03
   1.56500006       2.23352481E-03
   1.56750000       2.23338930E-03
   1.57000005       2.23350758E-03
   1.57249999       2.23360024E-03
   1.57500005       2.23344355E-03
   1.57749999       2.23340071E-03
   1.58000004       2.23357533E-03
   1.58249998       2.23361421E-03
   1.58500004       2.23351107E-03
   1.58749998       2.23353365E-03
   1.59000003       2.23360118E-03
   1.59249997       2.23356998E-03
   1.59500003       2.23359093E-03
   1.59749997       2.23370851E-03
   1.60000002       2.23376323E-03
   1.60249996       2.23376765E-03
   1.60500002       2.23381864E-03
   1.60749996       2.23385496E-03
   1.61000001       2.23387871E-03
   1.61249995       2.23399745E-03
   1.61500001       2.23411759E-03
   1.61749995       2.23409152E-03
   1.62000000       2.23406218E-03
   1.62249994       2.23418931E-03
   1.62500000       2.23431317E-03
   1.62750006       2.23427964E-03
   1.63000000       2.23425124E-03
   1.63250005       2.23435904E-03
   1.63499999       2.23442726E-03
   1.63750005       2.23433482E-03
   1.63999999       2.23427452E-03
   1.64250004       2.23436323E-03
   1.64499998       2.23438651E-03
   1.64750004       2.23424076E-03
   1.64999998       2.23416043E-03
   1.65250003       2.23421422E-03
   1.65499997       2.23415392E-03
   1.65750003       2.23398767E-03
   1.65999997       2.23397650E-03
   1.66250002       2.23402958E-03
   1.66499996       2.23389780E-03
   1.66750002       2.23374693E-03
   1.66999996       2.23377487E-03
   1.67250001       2.23378325E-03
   1.67499995       2.23369710E-03
   1.67750001       2.23372784E-03
   1.67999995       2.23378954E-03
   1.68250000       2.23367428E-03
   1.68499994       2.23361049E-03
   1.68750000       2.23376253E-03
   1.69000006       2.23383424E-03
   1.69250000       2.23377883E-03
   1.69500005       2.23388919E-03
   1.69749999       2.23402679E-03
   1.70000005       2.23393179E-03
   1.70249999       2.23391782E-03
   1.70500004       2.23416463E-03
   1.70749998       2.23425543E-03
   1.71000004       2.23414670E-03
   1.71249998       2.23426428E-03
   1.71500003       2.23444705E-03
   1.71749997       2.23432737E-03
   1.72000003       2.23426591E-03
   1.72249997       2.23452342E-03
   1.72500002       2.23460258E-03
   1.72749996       2.23439350E-03
   1.73000002       2.23442377E-03
   1.73249996       2.23463099E-03
   1.73500001       2.23456766E-03
   1.73749995       2.23446894E-03
   1.74000001       2.23461725E-03
   1.74249995       2.23464449E-03
   1.74500000       2.23447289E-03
   1.74749994       2.23452901E-03
   1.75000000       2.23470549E-03
   1.75250006       2.23463983E-03
   1.75500000       2.23459373E-03
   1.75750005       2.23476673E-03
   1.75999999       2.23478745E-03
   1.76250005       2.23465310E-03
   1.76499999       2.23476184E-03
   1.76750004       2.23493017E-03
   1.76999998       2.23483867E-03
   1.77250004       2.23481585E-03
   1.77499998       2.23502354E-03
   1.77750003       2.23504659E-03
   1.77999997       2.23490805E-03
   1.78250003       2.23501376E-03
   1.78499997       2.23515532E-03
   1.78750002       2.23502819E-03
   1.78999996       2.23499327E-03
   1.79250002       2.23520095E-03
   1.79499996       2.23521003E-03
   1.79750001       2.23503425E-03
   1.79999995       2.23509432E-03
   1.80250001       2.23522796E-03
   1.80499995       2.23511853E-03
   1.80750000       2.23504379E-03
   1.80999994       2.23517511E-03
   1.81250000       2.23519141E-03
   1.81500006       2.23508244E-03
   1.81750000       2.23513972E-03
   1.82000005       2.23523681E-03
   1.82249999       2.23517441E-03
   1.82500005       2.23516650E-03
   1.82749999       2.23527453E-03
   1.83000004       2.23525823E-03
   1.83249998       2.23520561E-03
   1.83500004       2.23533204E-03
   1.83749998       2.23542727E-03
   1.84000003       2.23534601E-03
   1.84249997       2.23536510E-03
   1.84500003       2.23552343E-03
   1.84749997       2.23552482E-03
   1.85000002       2.23545218E-03
   1.85249996       2.23559048E-03
   1.85500002       2.23574252E-03
   1.85749996       2.23563844E-03
   1.86000001       2.23553460E-03
   1.86249995       2.23568501E-03
   1.86500001       2.23584520E-03
   1.86749995       2.23579933E-03
   1.87000000       2.23573530E-03
   1.87249994       2.23580515E-03
   1.87500000       2.23586778E-03
   1.87750006       2.23583402E-03
   1.88000000       2.23583216E-03
   1.88250005       2.23591691E-03
   1.88499999       2.23596813E-03
   1.88750005       2.23594764E-03
   1.88999999       2.23596138E-03
   1.89250004       2.23602424E-03
   1.89499998       2.23605265E-03
   1.89750004       2.23606755E-03
   1.89999998       2.23612622E-03
   1.90250003       2.23616883E-03
   1.90499997       2.23617232E-03
   1.90750003       2.23622099E-03
   1.90999997       2.23628921E-03
   1.91250002       2.23629363E-03
   1.91499996       2.23632460E-03
   1.91750002       2.23642541E-03
   1.91999996       2.23643216E-03
   1.92250001       2.23636744E-03
   1.92499995       2.23645126E-03
   1.92750001       2.23657442E-03
   1.92999995       2.23650015E-03
   1.93250000       2.23643193E-03
   1.93499994       2.23657559E-03
   1.93750000       2.23665196E-03
   1.94000006       2.23654159E-03
   1.94250000       2.23656301E-03
   1.94500005       2.23671109E-03
   1.94749999       2.23666802E-03
   1.95000005       2.23657070E-03
   1.95249999       2.23669223E-03
   1.95500004       2.23680190E-03
   1.95749998       2.23672949E-03
   1.96000004       2.23675207E-03
   1.96249998       2.23689619E-03
   1.96500003       2.23688711E-03
   1.96749997       2.23682588E-03
   1.97000003       2.23691994E-03
   1.97249997       2.23699305E-03
   1.97500002       2.23697489E-03
   1.97749996       2.23706639E-03
   1.98000002       2.23716395E-03