   0.00000000       0.00000000    
   2.49999994E-03   0.00000000    
   4.99999989E-03   0.00000000    
   7.49999983E-03   0.00000000    
   9.99999978E-03   0.00000000    
   1.25000002E-02  -1.31521577E-17
   1.49999997E-02   8.31978194E-17
   1.75000001E-02  -3.51227040E-15
   1.99999996E-02   1.78098842E-14
   2.25000009E-02  -1.30995907E-14
   2.50000004E-02  -1.17043053E-13
   2.74999999E-02   2.27039172E-13
   2.99999993E-02   3.68451878E-13
   3.24999988E-02  -1.23111796E-12
   3.50000001E-02  -5.79906186E-13
   3.75000015E-02   4.48981347E-12
   3.99999991E-02  -4.70489316E-13
   4.25000004E-02  -1.34543071E-11
   4.50000018E-02   6.13527371E-12
   4.74999994E-02   3.66299074E-11
   5.00000007E-02  -2.09391376E-11
   5.24999984E-02  -9.29543664E-11
   5.49999997E-02   4.16135910E-11
   5.75000010E-02   2.12599660E-10
   5.99999987E-02  -3.77959400E-11
   6.25000000E-02  -4.16874146E-10
   6.49999976E-02  -5.87190990E-11
   6.75000027E-02   6.74208023E-10
   7.00000003E-02   3.18819804E-10
   7.24999979E-02  -8.79296691E-10
   7.50000030E-02  -7.42068518E-10
   7.75000006E-02   9.16437537E-10
   7.99999982E-02   1.24290422E-09
   8.25000033E-02  -7.48178020E-10
   8.50000009E-02  -1.74989767E-09
   8.74999985E-02   3.62787411E-10
   9.00000036E-02   2.22712004E-09
   9.25000012E-02   3.46411344E-10
   9.49999988E-02  -2.45482346E-09
   9.74999964E-02  -1.37570222E-09
  0.100000001       1.99113059E-09
  0.102499999       2.17466023E-09
  0.104999997      -8.10202405E-10
  0.107500002      -1.93282146E-09
  0.109999999      -1.84322321E-10
  0.112499997       6.86059098E-10
  0.115000002       1.43701422E-11
  0.117500000       5.06115594E-10
  0.119999997       1.18296717E-09
  0.122500002      -8.94756158E-10
  0.125000000      -2.64924060E-09
  0.127499998       6.59224619E-10
  0.129999995       4.15236334E-09
  0.132499993      -7.00201494E-11
  0.135000005      -5.91074301E-09
  0.137500003      -1.05212528E-09
  0.140000001       7.97531641E-09
  0.142499998       3.17364512E-09
  0.144999996      -9.73326308E-09
  0.147499993      -5.95655125E-09
  0.150000006       1.15046976E-08
  0.152500004       9.97469840E-09
  0.155000001      -1.43986076E-08
  0.157499999      -2.19860752E-08
  0.159999996       4.79317963E-09
  0.162499994       2.79143944E-08
  0.165000007       1.59917395E-08
  0.167500004      -2.31506725E-09
  0.170000002       1.37025884E-08
  0.172499999       4.81336393E-08
  0.174999997       5.58688455E-08
  0.177499995       4.05306615E-08
  0.180000007       4.97146573E-08
  0.182500005       9.54564428E-08
  0.185000002       1.40986572E-07
  0.187500000       1.75411884E-07
  0.189999998       2.33939630E-07
  0.192499995       3.29707746E-07
  0.194999993       4.38748117E-07
  0.197500005       5.64695199E-07
  0.200000003       7.43304952E-07
  0.202500001       9.83375230E-07
  0.204999998       1.27773774E-06
  0.207499996       1.65428401E-06
  0.209999993       2.14959050E-06
  0.212500006       2.77172649E-06
  0.215000004       3.54017379E-06
  0.217500001       4.50617881E-06
  0.219999999       5.70929205E-06
  0.222499996       7.18135334E-06
  0.224999994       8.98764301E-06
  0.227500007       1.12021808E-05
  0.230000004       1.38849064E-05
  0.232500002       1.71276733E-05
  0.234999999       2.10477974E-05
  0.237499997       2.57227603E-05
  0.239999995       3.12293996E-05
  0.242500007       3.77254291E-05
  0.245000005       4.53915709E-05
  0.247500002       5.43534588E-05
  0.250000000       6.47402412E-05
  0.252499998       7.67238016E-05
  0.254999995       9.04584667E-05
  0.257499993       1.06098887E-04
  0.259999990       1.23863676E-04
  0.262499988       1.43954021E-04
  0.264999986       1.66471800E-04
  0.267500013       1.91524028E-04
  0.270000011       2.19292182E-04
  0.272500008       2.49918783E-04
  0.275000006       2.83462927E-04
  0.277500004       3.19992832E-04
  0.280000001       3.59569996E-04
  0.282499999       4.02158563E-04
  0.284999996       4.47677070E-04
  0.287499994       4.96077060E-04
  0.289999992       5.47269883E-04
  0.292499989       6.01062726E-04
  0.294999987       6.57219032E-04
  0.297500014       7.15493748E-04
  0.300000012       7.75598863E-04
  0.302500010       8.37204687E-04
  0.305000007       8.99960403E-04
  0.307500005       9.63483937E-04
  0.310000002       1.02737627E-03
  0.312500000       1.09124987E-03
  0.314999998       1.15470763E-03
  0.317499995       1.21733488E-03
  0.319999993       1.27874082E-03
  0.322499990       1.33857958E-03
  0.324999988       1.39654253E-03
  0.327499986       1.45236601E-03
  0.330000013       1.50581903E-03
  0.332500011       1.55669113E-03
  0.335000008       1.60484703E-03
  0.337500006       1.65025610E-03
  0.340000004       1.69291778E-03
  0.342500001       1.73284276E-03
  0.344999999       1.77014701E-03
  0.347499996       1.80504774E-03
  0.349999994       1.83775637E-03
  0.352499992       1.86850049E-03
  0.354999989       1.89760781E-03
  0.357499987       1.92544505E-03
  0.360000014       1.95235584E-03
  0.362500012       1.97873637E-03
  0.365000010       2.00504391E-03
  0.367500007       2.03168602E-03
  0.370000005       2.05903780E-03
  0.372500002       2.08753883E-03
  0.375000000       2.11764500E-03
  0.377499998       2.14972068E-03
  0.379999995       2.18407810E-03
  0.382499993       2.22105440E-03
  0.384999990       2.26098322E-03
  0.387499988       2.30413908E-03
  0.389999986       2.35072500E-03
  0.392500013       2.40088254E-03
  0.395000011       2.45471811E-03
  0.397500008       2.51229922E-03
  0.400000006       2.57361494E-03
  0.402500004       2.63857585E-03
  0.405000001       2.70705437E-03
  0.407499999       2.77886190E-03
  0.409999996       2.85370694E-03
  0.412499994       2.93123955E-03
  0.414999992       3.01107764E-03
  0.417499989       3.09273624E-03
  0.419999987       3.17563815E-03
  0.422500014       3.25920363E-03
  0.425000012       3.34283011E-03
  0.427500010       3.42581701E-03
  0.430000007       3.50743253E-03
  0.432500005       3.58696794E-03
  0.435000002       3.66368890E-03
  0.437500000       3.73683893E-03
  0.439999998       3.80570441E-03
  0.442499995       3.86960595E-03
  0.444999993       3.92788742E-03
  0.447499990       3.97997117E-03
  0.449999988       4.02535265E-03
  0.452499986       4.06355551E-03
  0.455000013       4.09420673E-03
  0.457500011       4.11709910E-03
  0.460000008       4.13208455E-03
  0.462500006       4.13903827E-03
  0.465000004       4.13797190E-03
  0.467500001       4.12904425E-03
  0.469999999       4.11247881E-03
  0.472499996       4.08858713E-03
  0.474999994       4.05779853E-03
  0.477499992       4.02056798E-03
  0.479999989       3.97736486E-03
  0.482499987       3.92875727E-03
  0.485000014       3.87538434E-03
  0.487500012       3.81785608E-03
  0.490000010       3.75680765E-03
  0.492500007       3.69293452E-03
  0.495000005       3.62686906E-03
  0.497500002       3.55916261E-03
  0.500000000       3.49039864E-03
  0.502499998       3.42115504E-03
  0.504999995       3.35192285E-03
  0.507499993       3.28317750E-03
  0.509999990       3.21539468E-03
  0.512499988       3.14891478E-03
  0.514999986       3.08396691E-03
  0.517499983       3.02083720E-03
  0.519999981       2.95982021E-03
  0.522499979       2.90107424E-03
  0.524999976       2.84469128E-03
  0.527499974       2.79078283E-03
  0.529999971       2.73940526E-03
  0.532500029       2.69054552E-03
  0.535000026       2.64421571E-03
  0.537500024       2.60042585E-03
  0.540000021       2.55910121E-03
  0.542500019       2.52015959E-03
  0.545000017       2.48355907E-03
  0.547500014       2.44919700E-03
  0.550000012       2.41691689E-03
  0.552500010       2.38663866E-03
  0.555000007       2.35832436E-03
  0.557500005       2.33184523E-03
  0.560000002       2.30703549E-03
  0.562500000       2.28380226E-03
  0.564999998       2.26207194E-03
  0.567499995       2.24172068E-03
  0.569999993       2.22262833E-03
  0.572499990       2.20471178E-03
  0.574999988       2.18788721E-03
  0.577499986       2.17206054E-03
  0.579999983       2.15715053E-03
  0.582499981       2.14308151E-03
  0.584999979       2.12977710E-03
  0.587499976       2.11716490E-03
  0.589999974       2.10516830E-03
  0.592499971       2.09373096E-03
  0.595000029       2.08283891E-03
  0.597500026       2.07246491E-03
  0.600000024       2.06251745E-03
  0.602500021       2.05292925E-03
  0.605000019       2.04371731E-03
  0.607500017       2.03488162E-03
  0.610000014       2.02634744E-03
  0.612500012       2.01808708E-03
  0.615000010       2.01013871E-03
  0.617500007       2.00247858E-03
  0.620000005       1.99502846E-03
  0.622500002       1.98779278E-03
  0.625000000       1.98082440E-03
  0.627499998       1.97410095E-03
  0.629999995       1.96757796E-03
  0.632499993       1.96127011E-03
  0.634999990       1.95518066E-03
  0.637499988       1.94927142E-03
  0.639999986       1.94355892E-03
  0.642499983       1.93808693E-03
  0.644999981       1.93281844E-03
  0.647499979       1.92770630E-03
  0.649999976       1.92279438E-03
  0.652499974       1.91811321E-03
  0.654999971       1.91361143E-03
  0.657500029       1.90928183E-03
  0.660000026       1.90518226E-03
  0.662500024       1.90129364E-03
  0.665000021       1.89755799E-03
  0.667500019       1.89402001E-03
  0.670000017       1.89073419E-03
  0.672500014       1.88764115E-03
  0.675000012       1.88470655E-03
  0.677500010       1.88200595E-03
  0.680000007       1.87955028E-03
  0.682500005       1.87725050E-03
  0.685000002       1.87510508E-03
  0.687500000       1.87318819E-03
  0.689999998       1.87148410E-03
  0.692499995       1.86994229E-03
  0.694999993       1.86858536E-03
  0.697499990       1.86741049E-03
  0.699999988       1.86635135E-03
  0.702499986       1.86541234E-03
  0.704999983       1.86463888E-03
  0.707499981       1.86398462E-03
  0.709999979       1.86339580E-03
  0.712499976       1.86290382E-03
  0.714999974       1.86249032E-03
  0.717499971       1.86206866E-03
  0.720000029       1.86165771E-03
  0.722500026       1.86131825E-03
  0.725000024       1.86096248E-03
  0.727500021       1.86048634E-03
  0.730000019       1.85994594E-03
  0.732500017       1.85938051E-03
  0.735000014       1.85868971E-03
  0.737500012       1.85784034E-03
  0.740000010       1.85691181E-03
  0.742500007       1.85586326E-03
  0.745000005       1.85455987E-03
  0.747500002       1.85301504E-03
  0.750000000       1.85132574E-03
  0.752499998       1.84946205E-03
  0.754999995       1.84734643E-03
  0.757499993       1.84499193E-03
  0.759999990       1.84241391E-03
  0.762499988       1.83957000E-03
  0.764999986       1.83645810E-03
  0.767499983       1.83311163E-03
  0.769999981       1.82951079E-03
  0.772499979       1.82563823E-03
  0.774999976       1.82153238E-03
  0.777499974       1.81720068E-03
  0.779999971       1.81260507E-03
  0.782500029       1.80776336E-03
  0.785000026       1.80272351E-03
  0.787500024       1.79746829E-03
  0.790000021       1.79197255E-03
  0.792500019       1.78628054E-03
  0.795000017       1.78042834E-03
  0.797500014       1.77440187E-03
  0.800000012       1.76821405E-03
  0.802500010       1.76189630E-03
  0.805000007       1.75543909E-03
  0.807500005       1.74884405E-03
  0.810000002       1.74216938E-03
  0.812500000       1.73544430E-03
  0.814999998       1.72864622E-03
  0.817499995       1.72179088E-03
  0.819999993       1.71492028E-03
  0.822499990       1.70804269E-03
  0.824999988       1.70118164E-03
  0.827499986       1.69438939E-03
  0.829999983       1.68766582E-03
  0.832499981       1.68099743E-03
  0.834999979       1.67444919E-03
  0.837499976       1.66806858E-03
  0.839999974       1.66181719E-03
  0.842499971       1.65572611E-03
  0.845000029       1.64991163E-03
  0.847500026       1.64436433E-03
  0.850000024       1.63900538E-03
  0.852500021       1.63392723E-03
  0.855000019       1.62925164E-03
  0.857500017       1.62489538E-03
  0.860000014       1.62080198E-03
  0.862500012       1.61713269E-03
  0.865000010       1.61394919E-03
  0.867500007       1.61110517E-03
  0.870000005       1.60861621E-03
  0.872500002       1.60666031E-03
  0.875000000       1.60519627E-03
  0.877499998       1.60407147E-03
  0.879999995       1.60336972E-03
  0.882499993       1.60321116E-03
  0.884999990       1.60348706E-03
  0.887499988       1.60412164E-03
  0.889999986       1.60521781E-03
  0.892499983       1.60677196E-03
  0.894999981       1.60866324E-03
  0.897499979       1.61091518E-03
  0.899999976       1.61358481E-03
  0.902499974       1.61656493E-03
  0.904999971       1.61979999E-03
  0.907500029       1.62338605E-03
  0.910000026       1.62729493E-03
  0.912500024       1.63137412E-03
  0.915000021       1.63562794E-03
  0.917500019       1.64013845E-03
  0.920000017       1.64483499E-03
  0.922500014       1.64963154E-03
  0.925000012       1.65456242E-03
  0.927500010       1.65961683E-03
  0.930000007       1.66471035E-03
  0.932500005       1.66984100E-03
  0.935000002       1.67502917E-03
  0.937500000       1.68021314E-03
  0.939999998       1.68536394E-03
  0.942499995       1.69051450E-03
  0.944999993       1.69562467E-03
  0.947499990       1.70062983E-03
  0.949999988       1.70555548E-03
  0.952499986       1.71040394E-03
  0.954999983       1.71509967E-03
  0.957499981       1.71964709E-03
  0.959999979       1.72410777E-03
  0.962499976       1.72843016E-03
  0.964999974       1.73254788E-03
  0.967499971       1.73651532E-03
  0.970000029       1.74035213E-03
  0.972500026       1.74397684E-03
  0.975000024       1.74740015E-03
  0.977500021       1.75069738E-03
  0.980000019       1.75381417E-03
  0.982500017       1.75668858E-03
  0.985000014       1.75941526E-03
  0.987500012       1.76204368E-03
  0.990000010       1.76446489E-03
  0.992500007       1.76665513E-03
  0.995000005       1.76872325E-03
  0.997500002       1.77067553E-03
   1.00000000       1.77244435E-03
   1.00250006       1.77407544E-03
   1.00500000       1.77561538E-03
   1.00750005       1.77699386E-03
   1.00999999       1.77820958E-03
   1.01250005       1.77936943E-03
   1.01499999       1.78046071E-03
   1.01750004       1.78139191E-03
   1.01999998       1.78221881E-03
   1.02250004       1.78303441E-03
   1.02499998       1.78377249E-03
   1.02750003       1.78438262E-03
   1.02999997       1.78496342E-03
   1.03250003       1.78554654E-03
   1.03499997       1.78603060E-03
   1.03750002       1.78642268E-03
   1.03999996       1.78683549E-03
   1.04250002       1.78725331E-03
   1.04499996       1.78759231E-03
   1.04750001       1.78789545E-03
   1.04999995       1.78822479E-03
   1.05250001       1.78853108E-03
   1.05499995       1.78878848E-03
   1.05750000       1.78904866E-03
   1.05999994       1.78931688E-03
   1.06250000       1.78957207E-03
   1.06500006       1.78984553E-03
   1.06750000       1.79011840E-03
   1.07000005       1.79032539E-03
   1.07249999       1.79052749E-03
   1.07500005       1.79082493E-03
   1.07749999       1.79113797E-03
   1.08000004       1.79136172E-03
   1.08249998       1.79157895E-03
   1.08500004       1.79186719E-03
   1.08749998       1.79214543E-03
   1.09000003       1.79239118E-03
   1.09249997       1.79268792E-03
   1.09500003       1.79300213E-03
   1.09749997       1.79325184E-03
   1.10000002       1.79351226E-03
   1.10249996       1.79384602E-03
   1.10500002       1.79414626E-03
   1.10749996       1.79437781E-03
   1.11000001       1.79465883E-03
   1.11249995       1.79499248E-03
   1.11500001       1.79527176E-03
   1.11749995       1.79552473E-03
   1.12000000       1.79582601E-03
   1.12249994       1.79611286E-03
   1.12500000       1.79633754E-03
   1.12750006       1.79657631E-03
   1.13000000       1.79685326E-03
   1.13250005       1.79710961E-03
   1.13499999       1.79734721E-03
   1.13750005       1.79758435E-03
   1.13999999       1.79778540E-03
   1.14250004       1.79796817E-03
   1.14499998       1.79819216E-03
   1.14750004       1.79841626E-03
   1.14999998       1.79858215E-03
   1.15250003       1.79874245E-03
   1.15499997       1.79892627E-03
   1.15750003       1.79907470E-03
   1.15999997       1.79919705E-03
   1.16250002       1.79935095E-03
   1.16499996       1.79949298E-03
   1.16750002       1.79958262E-03
   1.16999996       1.79968332E-03
   1.17250001       1.79980590E-03
   1.17499995       1.79987843E-03
   1.17750001       1.79992896E-03
   1.17999995       1.80002500E-03
   1.18250000       1.80010474E-03
   1.18499994       1.80011813E-03
   1.18750000       1.80015352E-03
   1.19000006       1.80023897E-03
   1.19250000       1.80028100E-03
   1.19500005       1.80028158E-03
   1.19749999       1.80032791E-03
   1.20000005       1.80039031E-03
   1.20249999       1.80040032E-03
   1.20500004       1.80041359E-03
   1.20749998       1.80048973E-03
   1.21000004       1.80056982E-03
   1.21249998       1.80060568E-03
   1.21500003       1.80064118E-03
   1.21749997       1.80070952E-03
   1.22000003       1.80079183E-03
   1.22249997       1.80087460E-03
   1.22500002       1.80096319E-03
   1.22749996       1.80106121E-03
   1.23000002       1.80116890E-03
   1.23249996       1.80127786E-03
   1.23500001       1.80138275E-03
   1.23749995       1.80149090E-03
   1.24000001       1.80160382E-03
   1.24249995       1.80171570E-03
   1.24500000       1.80183351E-03
   1.24749994       1.80195482E-03
   1.25000000       1.80206366E-03
   1.25250006       1.80216925E-03
   1.25500000       1.80228567E-03
   1.25750005       1.80238904E-03
   1.25999999       1.80247054E-03
   1.26250005       1.80256204E-03
   1.26499999       1.80265470E-03
   1.26750004       1.80271489E-03
   1.26999998       1.80278288E-03
   1.27250004       1.80289638E-03
   1.27499998       1.80299801E-03
   1.27750003       1.80305634E-03
   1.27999997       1.80312921E-03
   1.28250003       1.80322281E-03
   1.28499997       1.80328882E-03
   1.28750002       1.80336135E-03
   1.28999996       1.80348381E-03
   1.29250002       1.80359860E-03
   1.29499996       1.80367823E-03
   1.29750001       1.80378463E-03
   1.29999995       1.80391665E-03
   1.30250001       1.80402480E-03
   1.30499995       1.80413923E-03
   1.30750000       1.80428370E-03
   1.30999994       1.80440804E-03
   1.31250000       1.80452701E-03
   1.31500006       1.80469966E-03
   1.31750000       1.80487370E-03
   1.32000005       1.80499733E-03
   1.32249999       1.80514739E-03
   1.32500005       1.80534751E-03
   1.32749999       1.80550781E-03
   1.33000004       1.80564704E-03
   1.33249998       1.80585077E-03
   1.33500004       1.80605927E-03
   1.33749998       1.80620712E-03
   1.34000003       1.80638267E-03
   1.34249997       1.80661515E-03
   1.34500003       1.80680666E-03
   1.34749997       1.80696603E-03
   1.35000002       1.80717430E-03
   1.35249996       1.80738315E-03
   1.35500002       1.80754764E-03
   1.35749996       1.80774264E-03
   1.36000001       1.80796825E-03
   1.36249995       1.80814264E-03
   1.36500001       1.80830841E-03
   1.36749995       1.80852669E-03
   1.37000000       1.80871936E-03
   1.37249994       1.80886220E-03
   1.37500000       1.80904695E-03
   1.37750006       1.80924882E-03
   1.38000000       1.80938258E-03
   1.38250005       1.80951983E-03
   1.38499999       1.80971948E-03
   1.38750005       1.80987618E-03
   1.38999999       1.80997001E-03
   1.39250004       1.81011530E-03
   1.39499998       1.81028876E-03
   1.39750004       1.81039423E-03
   1.39999998       1.81049411E-03
   1.40250003       1.81064499E-03
   1.40499997       1.81075698E-03
   1.40750003       1.81082031E-03
   1.40999997       1.81093288E-03
   1.41250002       1.81106222E-03
   1.41499996       1.81112916E-03
   1.41750002       1.81119738E-03
   1.41999996       1.81130529E-03
   1.42250001       1.81137084E-03
   1.42499995       1.81140716E-03
   1.42750001       1.81150215E-03
   1.42999995       1.81159831E-03
   1.43250000       1.81162171E-03
   1.43499994       1.81165815E-03
   1.43750000       1.81174767E-03
   1.44000006       1.81179459E-03
   1.44250000       1.81180437E-03
   1.44500005       1.81187049E-03
   1.44749999       1.81195198E-03
   1.45000005       1.81197131E-03
   1.45249999       1.81198504E-03
   1.45500004       1.81203580E-03
   1.45749998       1.81206083E-03
   1.46000004       1.81206164E-03
   1.46249998       1.81210414E-03
   1.46500003       1.81215943E-03
   1.46749997       1.81216840E-03
   1.47000003       1.81216525E-03
   1.47249997       1.81218889E-03
   1.47500002       1.81221170E-03
   1.47749996       1.81222009E-03
   1.48000002       1.81223254E-03
   1.48249996       1.81224383E-03
   1.48500001       1.81224698E-03
   1.48749995       1.81225501E-03
   1.49000001       1.81226537E-03
   1.49249995       1.81226945E-03
   1.49500000       1.81227701E-03
   1.49749994       1.81228388E-03
   1.50000000       1.81227573E-03
   1.50250006       1.81226362E-03
   1.50500000       1.81226095E-03
   1.50750005       1.81226048E-03
   1.50999999       1.81226584E-03
   1.51250005       1.81227853E-03
   1.51499999       1.81227096E-03
   1.51750004       1.81224267E-03
   1.51999998       1.81223277E-03
   1.52250004       1.81224232E-03
   1.52499998       1.81223697E-03
   1.52750003       1.81222265E-03
   1.52999997       1.81222300E-03
   1.53250003       1.81222020E-03
   1.53499997       1.81219808E-03
   1.53750002       1.81218132E-03
   1.53999996       1.81219017E-03
   1.54250002       1.81221508E-03
   1.54499996       1.81222893E-03
   1.54750001       1.81221159E-03
   1.54999995       1.81218958E-03
   1.55250001       1.81221240E-03
   1.55499995       1.81226060E-03
   1.55750000       1.81227282E-03
   1.55999994       1.81226700E-03
   1.56250000       1.81229040E-03
   1.56500006       1.81231322E-03
   1.56750000       1.81231392E-03
   1.57000005       1.81234453E-03
   1.57249999       1.81239867E-03
   1.57500005       1.81240949E-03
   1.57749999       1.81241054E-03
   1.58000004       1.81246689E-03
   1.58249998       1.81251368E-03
   1.58500004       1.81249611E-03
   1.58749998       1.81250088E-03
   1.59000003       1.81256875E-03
   1.59249997       1.81261566E-03
   1.59500003       1.81262998E-03
   1.59749997       1.81267259E-03
   1.60000002       1.81271520E-03
   1.60249996       1.81272661E-03
   1.60500002       1.81276747E-03
   1.60749996       1.81283511E-03
   1.61000001       1.81285630E-03
   1.61249995       1.81287178E-03
   1.61500001       1.81294617E-03
   1.61749995       1.81300484E-03
   1.62000000       1.81301206E-03
   1.62249994       1.81306689E-03
   1.62500000       1.81316293E-03
   1.62750006       1.81318936E-03
   1.63000000       1.81320170E-03
   1.63250005       1.81330601E-03
   1.63499999       1.81339739E-03
   1.63750005       1.81338401E-03
   1.63999999       1.81340484E-03
   1.64250004       1.81353162E-03
   1.64499998       1.81361893E-03
   1.64750004       1.81362708E-03
   1.64999998       1.81368028E-03
   1.65250003       1.81377633E-03
   1.65499997       1.81382126E-03
   1.65750003       1.81386177E-03
   1.65999997       1.81396049E-03
   1.66250002       1.81404315E-03
   1.66499996       1.81406969E-03
   1.66750002       1.81411323E-03
   1.66999996       1.81419181E-03
   1.67250001       1.81426085E-03
   1.67499995       1.81432674E-03
   1.67750001       1.81439891E-03
   1.67999995       1.81444548E-03
   1.68250000       1.81448180E-03
   1.68499994       1.81454397E-03
   1.68750000       1.81460241E-03
   1.69000006       1.81463803E-03
   1.69250000       1.81469065E-03
   1.69500005       1.81475002E-03
   1.69749999       1.81477272E-03
   1.70000005       1.81479740E-03
   1.70249999       1.81485584E-03
   1.70500004       1.81487994E-03
   1.70749998       1.81485876E-03
   1.71000004       1.81488856E-03
   1.71249998       1.81496423E-03
   1.71500003       1.81497738E-03
   1.71749997       1.81494118E-03
   1.72000003       1.81495131E-03
   1.72249997       1.81498949E-03
   1.72500002       1.81499717E-03
   1.72749996       1.81500812E-03
   1.73000002       1.81503978E-03
   1.73249996       1.81504269E-03
   1.73500001       1.81502907E-03
   1.73749995       1.81505410E-03
   1.74000001       1.81509857E-03
   1.74249995       1.81512232E-03
   1.74500000       1.81514327E-03
   1.74749994       1.81517075E-03
   1.75000000       1.81519310E-03
   1.75250006       1.81523338E-03
   1.75500000       1.81529264E-03
   1.75750005       1.81532674E-03
   1.75999999       1.81534921E-03
   1.76250005       1.81540707E-03
   1.76499999       1.81546411E-03
   1.76750004       1.81548321E-03
   1.76999998       1.81552500E-03
   1.77250004       1.81560288E-03
   1.77499998       1.81563816E-03
   1.77750003       1.81564363E-03
   1.77999997       1.81569799E-03
   1.78250003       1.81575667E-03
   1.78499997       1.81575504E-03
   1.78750002       1.81577227E-03
   1.78999996       1.81584910E-03
   1.79250002       1.81587669E-03
   1.79499996       1.81583408E-03
   1.79750001       1.81583897E-03
   1.79999995       1.81589811E-03
   1.80250001       1.81591790E-03
   1.80499995       1.81591534E-03
   1.80750000       1.81594538E-03
   1.80999994       1.81596039E-03
   1.81250000       1.81593816E-03
   1.81500006       1.81594503E-03
   1.81750000       1.81598484E-03
   1.82000005       1.81599974E-03
   1.82249999       1.81599986E-03
   1.82500005       1.81601697E-03
   1.82749999       1.81603059E-03
   1.83000004       1.81604177E-03
   1.83249998       1.81607623E-03
   1.83500004       1.81610638E-03
   1.83749998       1.81610778E-03
   1.84000003       1.81611802E-03
   1.84249997       1.81615225E-03
   1.84500003       1.81618263E-03
   1.84749997       1.81621441E-03
   1.85000002       1.81625527E-03
   1.85249996       1.81627192E-03
   1.85500002       1.81627192E-03
   1.85749996       1.81630498E-03
   1.86000001       1.81635632E-03
   1.86249995       1.81638019E-03
   1.86500001       1.81639637E-03
   1.86749995       1.81643292E-03
   1.87000000       1.81646855E-03
   1.87249994       1.81649672E-03
   1.87500000       1.81652815E-03
   1.87750006       1.81654992E-03
   1.88000000       1.81657285E-03
   1.88250005       1.81662187E-03
   1.88499999       1.81665970E-03
   1.88750005       1.81666634E-03
   1.88999999       1.81670825E-03
   1.89250004       1.81678927E-03
   1.89499998       1.81681337E-03
   1.89750004       1.81679765E-03
   1.89999998       1.81685295E-03
   1.90250003       1.81694212E-03
   1.90499997       1.81696587E-03
   1.90750003       1.81698380E-03
   1.90999997       1.81706483E-03
   1.91250002       1.81712315E-03
   1.91499996       1.81712210E-03
   1.91750002       1.81716506E-03
   1.91999996       1.81726087E-03
   1.92250001       1.81730755E-03
   1.92499995       1.81731652E-03
   1.92750001       1.81736832E-03
   1.92999995       1.81744038E-03
   1.93250000       1.81748532E-03
   1.93499994       1.81752944E-03
   1.93750000       1.81758380E-03
   1.94000006       1.81762257E-03
   1.94250000       1.81765633E-03
   1.94500005       1.81769975E-03
   1.94749999       1.81773736E-03
   1.95000005       1.81777973E-03
   1.95249999       1.81784458E-03
   1.95500004       1.81790045E-03
   1.95749998       1.81793002E-03
   1.96000004       1.81796378E-03
   1.96249998       1.81800639E-03
   1.96500003       1.81804062E-03
   1.96749997       1.81808427E-03
   1.97000003       1.81813980E-03
   1.97249997       1.81817741E-03
   1.97500002       1.81820965E-03
   1.97749996       1.81826309E-03
   1.98000002       1.81830977E-03
   1.98249996       1.81833282E-03
   1.98500001       1.81836798E-03
   1.98749995       1.81841827E-03
   1.99000001       1.81845389E-03
   1.99249995       1.81849208E-03
   1.99500000       1.81854435E-03
   1.99749994       1.81857543E-03
   2.00000000       1.81859126E-03
   2.00250006       1.81863108E-03
   2.00500011       1.81867019E-03
   2.00749993       1.81868672E-03
   2.00999999       1.81872398E-03
   2.01250005       1.81877613E-03
   2.01500010       1.81878393E-03
   2.01749992       1.81877974E-03
   2.01999998       1.81882444E-03
   2.02250004       1.81886612E-03
   2.02500010       1.81886286E-03
   2.02749991       1.81888056E-03
   2.02999997       1.81893003E-03
   2.03250003       1.81893993E-03
   2.03500009       1.81893411E-03
   2.03749990       1.81897683E-03
   2.03999996       1.81901699E-03
   2.04250002       1.81900873E-03
   2.04500008       1.81901606E-03
   2.04749990       1.81905960E-03
   2.04999995       1.81907916E-03
   2.05250001       1.81908323E-03
   2.05500007       1.81911932E-03
   2.05749989       1.81915611E-03
   2.05999994       1.81916566E-03
   2.06250000       1.81918754E-03
   2.06500006       1.81922945E-03
   2.06750011       1.81925611E-03
   2.06999993       1.81927171E-03
   2.07249999       1.81929325E-03
   2.07500005       1.81931641E-03
   2.07750010       1.81935728E-03
   2.07999992       1.81941816E-03
   2.08249998       1.81944983E-03
   2.08500004       1.81944820E-03
   2.08750010       1.81946682E-03
   2.08999991       1.81950093E-03
   2.09249997       1.81951700E-03
   2.09500003       1.81954843E-03
   2.09750009       1.81960640E-03
   2.09999990       1.81962759E-03
   2.10249996       1.81961549E-03
   2.10500002       1.81964028E-03
   2.10750008       1.81968533E-03
   2.10999990       1.81969535E-03
   2.11249995       1.81970152E-03
   2.11500001       1.81973330E-03
   2.11750007       1.81975286E-03
   2.11999989       1.81976135E-03
   2.12249994       1.81979244E-03
   2.12500000       1.81981537E-03
   2.12750006       1.81980338E-03
   2.13000011       1.81980315E-03
   2.13249993       1.81983132E-03
   2.13499999       1.81984925E-03
   2.13750005       1.81985833E-03
   2.14000010       1.81987789E-03