   0.00000000       0.00000000    
   2.49999994E-03   0.00000000    
   4.99999989E-03   0.00000000    
   7.49999983E-03   0.00000000    
   9.99999978E-03   0.00000000    
   1.25000002E-02   0.00000000    
   1.49999997E-02   8.88374359E-18
   1.75000001E-02  -2.27184742E-17
   1.99999996E-02   7.84332074E-16
   2.25000009E-02  -2.52351571E-15
   2.50000004E-02  -2.57813536E-15
   2.74999999E-02   2.12475860E-14
   2.99999993E-02  -5.22637540E-16
   3.24999988E-02  -9.10134259E-14
   3.50000001E-02   1.70550423E-14
   3.75000015E-02   2.65518835E-13
   3.99999991E-02  -2.42488507E-15
   4.25000004E-02  -5.58538567E-13
   4.50000018E-02  -2.70577452E-13
   4.74999994E-02   7.77921943E-13
   5.00000007E-02   1.29575528E-12
   5.24999984E-02  -3.14556080E-13
   5.49999997E-02  -3.51605724E-12
   5.75000010E-02  -1.61117777E-12
   5.99999987E-02   6.45547374E-12
   6.25000000E-02   4.42841337E-12
   6.49999976E-02  -8.13715935E-12
   6.75000027E-02  -3.49719927E-12
   7.00000003E-02   6.58385499E-12
   7.24999979E-02  -1.08051007E-11
   7.50000030E-02  -3.04650272E-12
   7.75000006E-02   4.79487387E-11
   7.99999982E-02   1.94195072E-12
   8.25000033E-02  -1.06863372E-10
   8.50000009E-02  -2.12806227E-12
   8.74999985E-02   1.69968026E-10
   9.00000036E-02  -1.44566061E-11
   9.25000012E-02  -2.07366707E-10
   9.49999988E-02   8.39998973E-11
   9.74999964E-02   1.83452031E-10
  0.100000001      -2.53160076E-10
  0.102499999      -6.47725068E-11
  0.104999997       5.72448866E-10
  0.107500002      -1.42798787E-10
  0.109999999      -1.04896347E-09
  0.112499997       3.53491875E-10
  0.115000002       1.51211499E-09
  0.117500000      -5.06607423E-10
  0.119999997      -1.55175961E-09
  0.122500002       8.46512416E-10
  0.125000000       8.59852911E-10
  0.127499998      -1.90715843E-09
  0.129999995       2.25896093E-10
  0.132499993       3.76686637E-09
  0.135000005      -9.61580149E-10
  0.137500003      -5.40777600E-09
  0.140000001       1.41499490E-09
  0.142499998       5.64679903E-09
  0.144999996      -2.73513923E-09
  0.147499993      -4.67763339E-09
  0.150000006       5.45277690E-09
  0.152500004       3.51529583E-09
  0.155000001      -8.61868177E-09
  0.157499999      -2.47440601E-09
  0.159999996       1.09996607E-08
  0.162499994       1.63764080E-09
  0.165000007      -1.05712452E-08
  0.167500004       1.02300024E-09
  0.170000002       7.54536611E-09
  0.172499999      -8.69159145E-09
  0.174999997      -1.08818705E-08
  0.177499995       5.73052894E-09
  0.180000007      -9.56259405E-10
  0.182500005      -2.16525535E-08
  0.185000002      -1.50462700E-08
  0.187500000      -5.10178566E-09
  0.189999998      -2.69669389E-08
  0.192499995      -4.59681644E-08
  0.194999993      -4.12543883E-08
  0.197500005      -5.54657831E-08
  0.200000003      -9.25240116E-08
  0.202500001      -1.11709660E-07
  0.204999998      -1.34451454E-07
  0.207499996      -2.01089364E-07
  0.209999993      -2.74893239E-07
  0.212500006      -3.30832933E-07
  0.215000004      -4.26584876E-07
  0.217500001      -5.82262885E-07
  0.219999999      -7.47565423E-07
  0.222499996      -9.34625916E-07
  0.224999994      -1.20577170E-06
  0.227500007      -1.55024463E-06
  0.230000004      -1.94267341E-06
  0.232500002      -2.43873774E-06
  0.234999999      -3.07965956E-06
  0.237499997      -3.83906581E-06
  0.239999995      -4.74208127E-06
  0.242500007      -5.87112982E-06
  0.245000005      -7.24253869E-06
  0.247500002      -8.84724705E-06
  0.250000000      -1.07624965E-05
  0.252499998      -1.30757953E-05
  0.254999995      -1.57989707E-05
  0.257499993      -1.89660332E-05
  0.259999990      -2.26883258E-05
  0.262499988      -2.70506662E-05
  0.264999986      -3.20844338E-05
  0.267500013      -3.78623045E-05
  0.270000011      -4.45044570E-05
  0.272500008      -5.21020083E-05
  0.275000006      -6.07208349E-05
  0.277500004      -7.04560225E-05
  0.280000001      -8.14209998E-05
  0.282499999      -9.37018194E-05
  0.284999996      -1.07367625E-04
  0.287499994      -1.22518322E-04
  0.289999992      -1.39272568E-04
  0.292499989      -1.57700924E-04
  0.294999987      -1.77834634E-04
  0.297500014      -1.99748072E-04
  0.300000012      -2.23537543E-04
  0.302500010      -2.49225472E-04
  0.305000007      -2.76800944E-04
  0.307500005      -3.06308502E-04
  0.310000002      -3.37771402E-04
  0.312500000      -3.71126574E-04
  0.314999998      -4.06337407E-04
  0.317499995      -4.43409197E-04
  0.319999993      -4.82242991E-04
  0.322499990      -5.22683898E-04
  0.324999988      -5.64683520E-04
  0.327499986      -6.08180417E-04
  0.330000013      -6.52946241E-04
  0.332500011      -6.98769698E-04
  0.335000008      -7.45569298E-04
  0.337500006      -7.93160987E-04
  0.340000004      -8.41213332E-04
  0.342500001      -8.89495248E-04
  0.344999999      -9.37837583E-04
  0.347499996      -9.85896098E-04
  0.349999994      -1.03327178E-03
  0.352499992      -1.07969239E-03
  0.354999989      -1.12482265E-03
  0.357499987      -1.16816221E-03
  0.360000014      -1.20926497E-03
  0.362500012      -1.24774268E-03
  0.365000010      -1.28304574E-03
  0.367500007      -1.31455017E-03
  0.370000005      -1.34173525E-03
  0.372500002      -1.36402459E-03
  0.375000000      -1.38068653E-03
  0.377499998      -1.39104086E-03
  0.379999995      -1.39447895E-03
  0.382499993      -1.39026926E-03
  0.384999990      -1.37764413E-03
  0.387499988      -1.35596842E-03
  0.389999986      -1.32459938E-03
  0.392500013      -1.28283049E-03
  0.395000011      -1.23011251E-03
  0.397500008      -1.16604415E-03
  0.400000006      -1.09016919E-03
  0.402500004      -1.00211776E-03
  0.405000001      -9.01815947E-04
  0.407499999      -7.89303565E-04
  0.409999996      -6.64618157E-04
  0.412499994      -5.28055069E-04
  0.414999992      -3.80235375E-04
  0.417499989      -2.21847949E-04
  0.419999987      -5.36562766E-05
  0.422500014       1.23264355E-04
  0.425000012       3.07589711E-04
  0.427500010       4.97941626E-04
  0.430000007       6.92825241E-04
  0.432500005       8.90540774E-04
  0.435000002       1.08929246E-03
  0.437500000       1.28726591E-03
  0.439999998       1.48259813E-03
  0.442499995       1.67341391E-03
  0.444999993       1.85788528E-03
  0.447499990       2.03424017E-03
  0.449999988       2.20081536E-03
  0.452499986       2.35610851E-03
  0.455000013       2.49876804E-03
  0.457500011       2.62761931E-03
  0.460000008       2.74173054E-03
  0.462500006       2.84039299E-03
  0.465000004       2.92309420E-03
  0.467500001       2.98959250E-03
  0.469999999       3.03992070E-03
  0.472499996       3.07428418E-03
  0.474999994       3.09307151E-03
  0.477499992       3.09694046E-03
  0.479999989       3.08675761E-03
  0.482499987       3.06346198E-03
  0.485000014       3.02808429E-03
  0.487500012       2.98181851E-03
  0.490000010       2.92595499E-03
  0.492500007       2.86177034E-03
  0.495000005       2.79052299E-03
  0.497500002       2.71348562E-03
  0.500000000       2.63192668E-03
  0.502499998       2.54704710E-03
  0.504999995       2.45993049E-03
  0.507499993       2.37156940E-03
  0.509999990       2.28291494E-03
  0.512499988       2.19482533E-03
  0.514999986       2.10799626E-03
  0.517499983       2.02300749E-03
  0.519999981       1.94038858E-03
  0.522499979       1.86056748E-03
  0.524999976       1.78384280E-03
  0.527499974       1.71044527E-03
  0.529999971       1.64054509E-03
  0.532500029       1.57421792E-03
  0.535000026       1.51148788E-03
  0.537500024       1.45236426E-03
  0.540000021       1.39679923E-03
  0.542500019       1.34467729E-03
  0.545000017       1.29587506E-03
  0.547500014       1.25028053E-03
  0.550000012       1.20777241E-03
  0.552500010       1.16820331E-03
  0.555000007       1.13138719E-03
  0.557500005       1.09714852E-03
  0.560000002       1.06539123E-03
  0.562500000       1.03601022E-03
  0.564999998       1.00877823E-03
  0.567499995       9.83498059E-04
  0.569999993       9.60139092E-04
  0.572499990       9.38632351E-04
  0.574999988       9.18737147E-04
  0.577499986       9.00294515E-04
  0.579999983       8.83317203E-04
  0.582499981       8.67709750E-04
  0.584999979       8.53248232E-04
  0.587499976       8.39861692E-04
  0.589999974       8.27566022E-04
  0.592499971       8.16216576E-04
  0.595000029       8.05656833E-04
  0.597500026       7.95901986E-04
  0.600000024       7.86923629E-04
  0.602500021       7.78560119E-04
  0.605000019       7.70763261E-04
  0.607500017       7.63584103E-04
  0.610000014       7.56932597E-04
  0.612500012       7.50684354E-04
  0.615000010       7.44878547E-04
  0.617500007       7.39545038E-04
  0.620000005       7.34577072E-04
  0.622500002       7.29927619E-04
  0.625000000       7.25648133E-04
  0.627499998       7.21708406E-04
  0.629999995       7.18040566E-04
  0.632499993       7.14663824E-04
  0.634999990       7.11577304E-04
  0.637499988       7.08716922E-04
  0.639999986       7.06088496E-04
  0.642499983       7.03718513E-04
  0.644999981       7.01528857E-04
  0.647499979       6.99470635E-04
  0.649999976       6.97611365E-04
  0.652499974       6.95939816E-04
  0.654999971       6.94337650E-04
  0.657500029       6.92800852E-04
  0.660000026       6.91405905E-04
  0.662500024       6.90095942E-04
  0.665000021       6.88773056E-04
  0.667500019       6.87470718E-04
  0.670000017       6.86229847E-04
  0.672500014       6.84988161E-04
  0.675000012       6.83707709E-04
  0.677500010       6.82415382E-04
  0.680000007       6.81095116E-04
  0.682500005       6.79713034E-04
  0.685000002       6.78291486E-04
  0.687500000       6.76840544E-04
  0.689999998       6.75321033E-04
  0.692499995       6.73726667E-04
  0.694999993       6.72083173E-04
  0.697499990       6.70384325E-04
  0.699999988       6.68612134E-04
  0.702499986       6.66765030E-04
  0.704999983       6.64837658E-04
  0.707499981       6.62834849E-04
  0.709999979       6.60768535E-04
  0.712499976       6.58605015E-04
  0.714999974       6.56308490E-04
  0.717499971       6.53912546E-04
  0.720000029       6.51430571E-04
  0.722500026       6.48788176E-04
  0.725000024       6.45950204E-04
  0.727500021       6.42956700E-04
  0.730000019       6.39788574E-04
  0.732500017       6.36382145E-04
  0.735000014       6.32741372E-04
  0.737500012       6.28862879E-04
  0.740000010       6.24676817E-04
  0.742500007       6.20175153E-04
  0.745000005       6.15396188E-04
  0.747500002       6.10269257E-04
  0.750000000       6.04720903E-04
  0.752499998       5.98821964E-04
  0.754999995       5.92597353E-04
  0.757499993       5.85929316E-04
  0.759999990       5.78807318E-04
  0.762499988       5.71346493E-04
  0.764999986       5.63513255E-04
  0.767499983       5.55206672E-04
  0.769999981       5.46511961E-04
  0.772499979       5.37523651E-04
  0.774999976       5.28161239E-04
  0.777499974       5.18422574E-04
  0.779999971       5.08465862E-04
  0.782500029       4.98310546E-04
  0.785000026       4.87876270E-04
  0.787500024       4.77286580E-04
  0.790000021       4.66714002E-04
  0.792500019       4.56120353E-04
  0.795000017       4.45502199E-04
  0.797500014       4.35072521E-04
  0.800000012       4.24959202E-04
  0.802500010       4.15121031E-04
  0.805000007       4.05659754E-04
  0.807500005       3.96801915E-04
  0.810000002       3.88622488E-04
  0.812500000       3.81141872E-04
  0.814999998       3.74528317E-04
  0.817499995       3.68948386E-04
  0.819999993       3.64452775E-04
  0.822499990       3.61134647E-04
  0.824999988       3.59148951E-04
  0.827499986       3.58571677E-04
  0.829999983       3.59449827E-04
  0.832499981       3.61894752E-04
  0.834999979       3.65980028E-04
  0.837499976       3.71697854E-04
  0.839999974       3.79069243E-04
  0.842499971       3.88139160E-04
  0.845000029       3.98882345E-04
  0.847500026       4.11231624E-04
  0.850000024       4.25130245E-04
  0.852500021       4.40501753E-04
  0.855000019       4.57243412E-04
  0.857500017       4.75238194E-04
  0.860000014       4.94320877E-04
  0.862500012       5.14306244E-04
  0.865000010       5.35049010E-04
  0.867500007       5.56384155E-04
  0.870000005       5.78075822E-04
  0.872500002       5.99906780E-04
  0.875000000       6.21711428E-04
  0.877499998       6.43284759E-04
  0.879999995       6.64397900E-04
  0.882499993       6.84881874E-04
  0.884999990       7.04577484E-04
  0.887499988       7.23291480E-04
  0.889999986       7.40881718E-04
  0.892499983       7.57262344E-04
  0.894999981       7.72311410E-04
  0.897499979       7.85911456E-04
  0.899999976       7.98029301E-04
  0.902499974       8.08649347E-04
  0.904999971       8.17723980E-04
  0.907500029       8.25245923E-04
  0.910000026       8.31255631E-04
  0.912500024       8.35785584E-04
  0.915000021       8.38888926E-04
  0.917500019       8.40646506E-04
  0.920000017       8.41111119E-04
  0.922500014       8.40348192E-04
  0.925000012       8.38490727E-04
  0.927500010       8.35642102E-04
  0.930000007       8.31836544E-04
  0.932500005       8.27173237E-04
  0.935000002       8.21817084E-04
  0.937500000       8.15843872E-04
  0.939999998       8.09275429E-04
  0.942499995       8.02224095E-04
  0.944999993       7.94818567E-04
  0.947499990       7.87094410E-04
  0.949999988       7.79091089E-04
  0.952499986       7.70908315E-04
  0.954999983       7.62608193E-04
  0.957499981       7.54210574E-04
  0.959999979       7.45773024E-04
  0.962499976       7.37354334E-04
  0.964999974       7.28969171E-04
  0.967499971       7.20645825E-04
  0.970000029       7.12434470E-04
  0.972500026       7.04348669E-04
  0.975000024       6.96390693E-04
  0.977500021       6.88594941E-04
  0.980000019       6.80990110E-04
  0.982500017       6.73578936E-04
  0.985000014       6.66366599E-04
  0.987500012       6.59359735E-04
  0.990000010       6.52568124E-04
  0.992500007       6.46014872E-04
  0.995000005       6.39697304E-04
  0.997500002       6.33589225E-04
   1.00000000       6.27711066E-04
   1.00250006       6.22098043E-04
   1.00500000       6.16714300E-04
   1.00750005       6.11534168E-04
   1.00999999       6.06612710E-04
   1.01250005       6.01952430E-04
   1.01499999       5.97473525E-04
   1.01750004       5.93190838E-04
   1.01999998       5.89181727E-04
   1.02250004       5.85395261E-04
   1.02499998       5.81756758E-04
   1.02750003       5.78330830E-04
   1.02999997       5.75153390E-04
   1.03250003       5.72131248E-04
   1.03499997       5.69249969E-04
   1.03750002       5.66590752E-04
   1.03999996       5.64116985E-04
   1.04250002       5.61748224E-04
   1.04499996       5.59536798E-04
   1.04750001       5.57519437E-04
   1.04999995       5.55613195E-04
   1.05250001       5.53807069E-04
   1.05499995       5.52172482E-04
   1.05750000       5.50667348E-04
   1.05999994       5.49219490E-04
   1.06250000       5.47887816E-04
   1.06500006       5.46701776E-04
   1.06750000       5.45574701E-04
   1.07000005       5.44505485E-04
   1.07249999       5.43567934E-04
   1.07500005       5.42714028E-04
   1.07749999       5.41880843E-04
   1.08000004       5.41136193E-04
   1.08249998       5.40500274E-04
   1.08500004       5.39879082E-04
   1.08749998       5.39280067E-04
   1.09000003       5.38788736E-04
   1.09249997       5.38363471E-04
   1.09500003       5.37935004E-04
   1.09749997       5.37555665E-04
   1.10000002       5.37253509E-04
   1.10249996       5.36968466E-04
   1.10500002       5.36705425E-04
   1.10749996       5.36503154E-04
   1.11000001       5.36321022E-04
   1.11249995       5.36147039E-04
   1.11500001       5.36037900E-04
   1.11749995       5.35967527E-04
   1.12000000       5.35876548E-04
   1.12249994       5.35819854E-04
   1.12500000       5.35832485E-04
   1.12750006       5.35830681E-04
   1.13000000       5.35806816E-04
   1.13250005       5.35847037E-04
   1.13499999       5.35918109E-04
   1.13750005       5.35945524E-04
   1.13999999       5.35993837E-04
   1.14250004       5.36102918E-04
   1.14499998       5.36180451E-04
   1.14750004       5.36220963E-04
   1.14999998       5.36318985E-04
   1.15250003       5.36438893E-04
   1.15499997       5.36496635E-04
   1.15750003       5.36555890E-04
   1.15999997       5.36670792E-04
   1.16250002       5.36766369E-04
   1.16499996       5.36827662E-04
   1.16750002       5.36919280E-04
   1.16999996       5.37011307E-04
   1.17250001       5.37059677E-04
   1.17499995       5.37125743E-04
   1.17750001       5.37219981E-04
   1.17999995       5.37265150E-04
   1.18250000       5.37288724E-04
   1.18499994       5.37366373E-04
   1.18750000       5.37439482E-04
   1.19000006       5.37451357E-04
   1.19250000       5.37475338E-04
   1.19500005       5.37532091E-04
   1.19749999       5.37548680E-04
   1.20000005       5.37544896E-04
   1.20249999       5.37580112E-04
   1.20500004       5.37605199E-04
   1.20749998       5.37589309E-04
   1.21000004       5.37597458E-04
   1.21249998       5.37625863E-04
   1.21500003       5.37612650E-04
   1.21749997       5.37593034E-04
   1.22000003       5.37608343E-04
   1.22249997       5.37606073E-04
   1.22500002       5.37582499E-04
   1.22749996       5.37593383E-04
   1.23000002       5.37600310E-04
   1.23249996       5.37558226E-04
   1.23500001       5.37537737E-04
   1.23749995       5.37554850E-04
   1.24000001       5.37519110E-04
   1.24249995       5.37451764E-04
   1.24500000       5.37442393E-04
   1.24749994       5.37427550E-04
   1.25000000       5.37337328E-04
   1.25250006       5.37269167E-04
   1.25500000       5.37259679E-04
   1.25750005       5.37196989E-04
   1.25999999       5.37087675E-04
   1.26250005       5.37036220E-04
   1.26499999       5.36991167E-04
   1.26750004       5.36874693E-04
   1.26999998       5.36776963E-04
   1.27250004       5.36742911E-04
   1.27499998       5.36669628E-04
   1.27750003       5.36555657E-04
   1.27999997       5.36494073E-04
   1.28250003       5.36446867E-04
   1.28499997       5.36352105E-04
   1.28750002       5.36279287E-04
   1.28999996       5.36251406E-04
   1.29250002       5.36192791E-04
   1.29499996       5.36130741E-04
   1.29750001       5.36131905E-04
   1.29999995       5.36126143E-04
   1.30250001       5.36072010E-04
   1.30499995       5.36064443E-04
   1.30750000       5.36106993E-04
   1.30999994       5.36102743E-04
   1.31250000       5.36094769E-04
   1.31500006       5.36163745E-04
   1.31750000       5.36229054E-04
   1.32000005       5.36243839E-04
   1.32249999       5.36307576E-04
   1.32500005       5.36420441E-04
   1.32749999       5.36483189E-04
   1.33000004       5.36545587E-04
   1.33249998       5.36686974E-04
   1.33500004       5.36815322E-04
   1.33749998       5.36885811E-04
   1.34000003       5.37013519E-04
   1.34249997       5.37198852E-04
   1.34500003       5.37323009E-04
   1.34749997       5.37427957E-04
   1.35000002       5.37612126E-04
   1.35249996       5.37796877E-04
   1.35500002       5.37918764E-04
   1.35749996       5.38077322E-04
   1.36000001       5.38291177E-04
   1.36249995       5.38457534E-04
   1.36500001       5.38599794E-04
   1.36749995       5.38804103E-04
   1.37000000       5.39010973E-04
   1.37249994       5.39160741E-04
   1.37500000       5.39333909E-04
   1.37750006       5.39557834E-04
   1.38000000       5.39745786E-04
   1.38250005       5.39901375E-04
   1.38499999       5.40104695E-04
   1.38750005       5.40329551E-04
   1.38999999       5.40509121E-04
   1.39250004       5.40677167E-04
   1.39499998       5.40880952E-04
   1.39750004       5.41087764E-04
   1.39999998       5.41266287E-04
   1.40250003       5.41440386E-04
   1.40499997       5.41632238E-04
   1.40750003       5.41831425E-04
   1.40999997       5.42015827E-04
   1.41250002       5.42181486E-04
   1.41499996       5.42351685E-04
   1.41750002       5.42535970E-04
   1.41999996       5.42707450E-04
   1.42250001       5.42863447E-04
   1.42499995       5.43036673E-04
   1.42750001       5.43213217E-04
   1.42999995       5.43355709E-04
   1.43250000       5.43496688E-04
   1.43499994       5.43672300E-04
   1.43750000       5.43832430E-04
   1.44000006       5.43950533E-04
   1.44250000       5.44089300E-04
   1.44500005       5.44258452E-04
   1.44749999       5.44392562E-04
   1.45000005       5.44501818E-04
   1.45249999       5.44646347E-04
   1.45500004       5.44799143E-04
   1.45749998       5.44910436E-04
   1.46000004       5.45013347E-04
   1.46249998       5.45141287E-04
   1.46500003       5.45268646E-04
   1.46749997       5.45383082E-04
   1.47000003       5.45493560E-04
   1.47249997       5.45592629E-04
   1.47500002       5.45691524E-04
   1.47749996       5.45813586E-04
   1.48000002       5.45929477E-04
   1.48249996       5.46011666E-04
   1.48500001       5.46103169E-04
   1.48749995       5.46223542E-04
   1.49000001       5.46325115E-04
   1.49249995       5.46406547E-04
   1.49500000       5.46514697E-04
   1.49749994       5.46630879E-04
   1.50000000       5.46715804E-04
   1.50250006       5.46801894E-04
   1.50500000       5.46912604E-04
   1.50750005       5.47011790E-04
   1.50999999       5.47097996E-04
   1.51250005       5.47206204E-04
   1.51499999       5.47315576E-04
   1.51750004       5.47396136E-04
   1.51999998       5.47483680E-04
   1.52250004       5.47601958E-04
   1.52499998       5.47709700E-04
   1.52750003       5.47786942E-04
   1.52999997       5.47868258E-04
   1.53250003       5.47973672E-04
   1.53499997       5.48087351E-04
   1.53750002       5.48186363E-04
   1.53999996       5.48263313E-04
   1.54250002       5.48347540E-04
   1.54499996       5.48467040E-04
   1.54750001       5.48583514E-04
   1.54999995       5.48655633E-04
   1.55250001       5.48733573E-04
   1.55499995       5.48864249E-04
   1.55750000       5.48986194E-04
   1.55999994       5.49055403E-04
   1.56250000       5.49140561E-04
   1.56500006       5.49271354E-04
   1.56750000       5.49377350E-04
   1.57000005       5.49449353E-04
   1.57249999       5.49554185E-04
   1.57500005       5.49679040E-04
   1.57749999       5.49767341E-04
   1.58000004       5.49852382E-04
   1.58249998       5.49978053E-04
   1.58500004       5.50095341E-04
   1.58749998       5.50174329E-04
   1.59000003       5.50272060E-04
   1.59249997       5.50403085E-04
   1.59500003       5.50507801E-04
   1.59749997       5.50581841E-04
   1.60000002       5.50682133E-04
   1.60249996       5.50807978E-04
   1.60500002       5.50912635E-04
   1.60749996       5.50996047E-04
   1.61000001       5.51087607E-04
   1.61249995       5.51188132E-04
   1.61500001       5.51286212E-04
   1.61749995       5.51380566E-04
   1.62000000       5.51465841E-04
   1.62249994       5.51547448E-04
   1.62500000       5.51644713E-04
   1.62750006       5.51744946E-04
   1.63000000       5.51815087E-04
   1.63250005       5.51871723E-04
   1.63499999       5.51958859E-04
   1.63750005       5.52060199E-04
   1.63999999       5.52127371E-04
   1.64250004       5.52173704E-04
   1.64499998       5.52245765E-04
   1.64750004       5.52333542E-04
   1.64999998       5.52397862E-04
   1.65250003       5.52446581E-04
   1.65499997       5.52508689E-04
   1.65750003       5.52577781E-04
   1.65999997       5.52633312E-04
   1.66250002       5.52680460E-04
   1.66499996       5.52732032E-04
   1.66750002       5.52785408E-04
   1.66999996       5.52834594E-04
   1.67250001       5.52883139E-04
   1.67499995       5.52932150E-04
   1.67750001       5.52974641E-04
   1.67999995       5.53013233E-04
   1.68250000       5.53065271E-04
   1.68499994       5.53129299E-04
   1.68750000       5.53174003E-04
   1.69000006       5.53197460E-04
   1.69250000       5.53245365E-04
   1.69500005       5.53326390E-04
   1.69749999       5.53385355E-04
   1.70000005       5.53409976E-04
   1.70249999       5.53459162E-04
   1.70500004       5.53541700E-04
   1.70749998       5.53599792E-04
   1.71000004       5.53631748E-04
   1.71249998       5.53690712E-04
   1.71500003       5.53770631E-04
   1.71749997       5.53828082E-04
   1.72000003       5.53875871E-04
   1.72249997       5.53944148E-04
   1.72500002       5.54015336E-04
   1.72749996       5.54073253E-04
   1.73000002       5.54135535E-04
   1.73249996       5.54205151E-04
   1.73500001       5.54270053E-04
   1.73749995       5.54335769E-04
   1.74000001       5.54404862E-04
   1.74249995       5.54468483E-04
   1.74500000       5.54532686E-04
   1.74749994       5.54602535E-04
   1.75000000       5.54663653E-04
   1.75250006       5.54719998E-04
   1.75500000       5.54785656E-04
   1.75750005       5.54841419E-04
   1.75999999       5.54883794E-04
   1.76250005       5.54950617E-04
   1.76499999       5.55031002E-04
   1.76750004       5.55071980E-04
   1.76999998       5.55100152E-04
   1.77250004       5.55172795E-04
   1.77499998       5.55245846E-04
   1.77750003       5.55271748E-04
   1.77999997       5.55313774E-04
   1.78250003       5.55400969E-04
   1.78499997       5.55455335E-04
   1.78750002       5.55469713E-04
   1.78999996       5.55526058E-04
   1.79250002       5.55611390E-04
   1.79499996       5.55653765E-04
   1.79750001       5.55682404E-04
   1.79999995       5.55747189E-04
   1.80250001       5.55808831E-04
   1.80499995       5.55847480E-04
   1.80750000       5.55906503E-04
   1.80999994       5.55977516E-04
   1.81250000       5.56022802E-04
   1.81500006       5.56072278E-04
   1.81750000       5.56148880E-04
   1.82000005       5.56211977E-04
   1.82249999       5.56255807E-04
   1.82500005       5.56322222E-04
   1.82749999       5.56402141E-04
   1.83000004       5.56462153E-04
   1.83249998       5.56520827E-04
   1.83500004       5.56598417E-04
   1.83749998       5.56671002E-04
   1.84000003       5.56730840E-04
   1.84249997       5.56797662E-04
   1.84500003       5.56872052E-04
   1.84749997       5.56940970E-04
   1.85000002       5.57004416E-04
   1.85249996       5.57068153E-04
   1.85500002       5.57139574E-04
   1.85749996       5.57213556E-04
   1.86000001       5.57266816E-04
   1.86249995       5.57306805E-04
   1.86500001       5.57371648E-04
   1.86749995       5.57443884E-04
   1.87000000       5.57478983E-04
   1.87249994       5.57512918E-04
   1.87500000       5.57589345E-04
   1.87750006       5.57651452E-04
   1.88000000       5.57663967E-04
   1.88250005       5.57698018E-04
   1.88499999       5.57773223E-04
   1.88750005       5.57816471E-04
   1.88999999       5.57832594E-04
   1.89250004       5.57884458E-04
   1.89499998       5.57942840E-04
   1.89750004       5.57965657E-04
   1.89999998       5.58000815E-04
   1.90250003       5.58064727E-04
   1.90499997       5.58102911E-04
   1.90750003       5.58124855E-04
   1.90999997       5.58177126E-04
   1.91250002       5.58231724E-04
   1.91499996       5.58262866E-04
   1.91750002       5.58309490E-04
   1.91999996       5.58371714E-04
   1.92250001       5.58411994E-04
   1.92499995       5.58450178E-04
   1.92750001       5.58504893E-04
   1.92999995       5.58542204E-04
   1.93250000       5.58571599E-04
   1.93499994       5.58628002E-04
   1.93750000       5.58673695E-04
   1.94000006       5.58690575E-04
   1.94250000       5.58738073E-04
   1.94500005       5.58802567E-04
   1.94749999       5.58812695E-04
   1.95000005       5.58817293E-04
   1.95249999       5.58883650E-04
   1.95500004       5.58934757E-04
   1.95749998       5.58924570E-04
   1.96000004       5.58950007E-04
   1.96249998       5.59021777E-04
   1.96500003       5.59039530E-04
   1.96749997       5.59029635E-04
   1.97000003       5.59079112E-04
   1.97249997       5.59131906E-04
   1.97500002       5.59132313E-04
   1.97749996       5.59155538E-04
   1.98000002       5.59217064E-04
   1.98249996       5.59240812E-04
   1.98500001       5.59252396E-04
   1.98749995       5.59313165E-04
   1.99000001       5.59364038E-04
   1.99249995       5.59366948E-04
   1.99500000       5.59395878E-04
   1.99749994       5.59460372E-04
   2.00000000       5.59493317E-04
   2.00250006       5.59511711E-04
   2.00500011       5.59555658E-04
   2.00749993       5.59586508E-04
   2.00999999       5.59602282E-04
   2.01250005       5.59649721E-04
   2.01500010       5.59690699E-04
   2.01749992       5.59684762E-04
   2.01999998       5.59703039E-04
   2.02250004       5.59767243E-04
   2.02500010       5.59786975E-04
   2.02749991       5.59767301E-04
   2.02999997       5.59801410E-04
   2.03250003       5.59855194E-04
   2.03500009       5.59845066E-04
   2.03749990       5.59829292E-04
   2.03999996       5.59873646E-04
   2.04250002       5.59908687E-04
   2.04500008       5.59894543E-04
   2.04749990       5.59901760E-04
   2.04999995       5.59942855E-04
   2.05250001       5.59954264E-04
   2.05500007       5.59947046E-04
   2.05749989       5.59975218E-04
   2.05999994       5.60015033E-04
   2.06250000       5.60023531E-04
   2.06500006       5.60030690E-04
   2.06750011       5.60068816E-04
   2.06999993       5.60106302E-04
   2.07249999       5.60115033E-04
   2.07500005       5.60126209E-04
   2.07750010       5.60166372E-04
   2.07999992       5.60205546E-04
   2.08249998       5.60218003E-04
   2.08500004       5.60232555E-04
   2.08750010       5.60271146E-04
   2.08999991       5.60303917E-04
   2.09249997       5.60315792E-04
   2.09500003       5.60337212E-04
   2.09750009       5.60370332E-04
   2.09999990       5.60386397E-04
   2.10249996       5.60399552E-04
   2.10500002       5.60431392E-04
   2.10750008       5.60453453E-04
   2.10999990       5.60457702E-04
   2.11249995       5.60480112E-04
   2.11500001       5.60507411E-04
   2.11750007       5.60504326E-04
   2.11999989       5.60510438E-04
   2.12249994       5.60555607E-04
   2.12500000       5.60577551E-04
   2.12750006       5.60557935E-04
   2.13000011       5.60572022E-04
   2.13249993       5.60621615E-04
   2.13499999       5.60632325E-04
   2.13750005       5.60620450E-04
   2.14000010       5.60646993E-04