 -0.159999996       0.00000000    
 -0.157499999       0.00000000    
 -0.155000001       0.00000000    
 -0.152500004       0.00000000    
 -0.150000006       0.00000000    
 -0.147499993      -1.40172141E-17
 -0.144999996       3.50639612E-16
 -0.142499998      -5.46208857E-15
 -0.140000001       2.44654371E-14
 -0.137500003      -1.55979084E-14
 -0.135000005      -1.65632563E-13
 -0.132499993       3.18118904E-13
 -0.129999995       5.20478354E-13
 -0.127499998      -1.76724520E-12
 -0.125000000      -7.72976518E-13
 -0.122500002       6.45102374E-12
 -0.119999997      -1.04614668E-12
 -0.117500000      -1.89739474E-11
 -0.115000002       1.07985582E-11
 -0.112499997       5.01803876E-11
 -0.109999999      -3.91370547E-11
 -0.107500002      -1.25155830E-10
 -0.104999997       9.31527563E-11
 -0.102499999       2.89790164E-10
 -0.100000001      -1.50856008E-10
  -9.74999964E-02  -5.94970351E-10
  -9.49999988E-02   1.33133060E-10
  -9.25000012E-02   1.04132414E-09
  -9.00000036E-02   7.74111886E-11
  -8.74999985E-02  -1.52360435E-09
  -8.50000009E-02  -5.46422130E-10
  -8.25000033E-02   1.86507898E-09
  -7.99999982E-02   1.21733745E-09
  -7.75000006E-02  -1.93672900E-09
  -7.50000030E-02  -1.97617100E-09
  -7.24999979E-02   1.67912551E-09
  -7.00000003E-02   2.72207923E-09
  -6.75000027E-02  -9.90266202E-10
  -6.49999976E-02  -3.19616866E-09
  -6.25000000E-02  -1.34090516E-10
  -5.99999987E-02   2.86885227E-09
  -5.75000010E-02   1.10633547E-09
  -5.49999997E-02  -1.55002355E-09
  -5.24999984E-02  -8.57904525E-10
  -5.00000007E-02   1.60586142E-10
  -4.74999994E-02  -9.41236200E-10
  -4.50000018E-02  -9.21435150E-11
  -4.25000004E-02   3.28773098E-09
  -3.99999991E-02   1.76572312E-09
  -3.75000015E-02  -5.04778663E-09
  -3.50000001E-02  -4.82096052E-09
  -3.24999988E-02   5.61732927E-09
  -2.99999993E-02   8.92681928E-09
  -2.74999999E-02  -4.27561631E-09
  -2.50000004E-02  -1.29958906E-08
  -2.25000009E-02   1.32481937E-09
  -1.99999996E-02   1.61245630E-08
  -1.75000001E-02   1.43979584E-09
  -1.49999997E-02  -2.04659152E-08
  -1.25000002E-02  -5.46136647E-09
  -9.99999978E-03   2.74939467E-08
  -7.49999983E-03   1.65242948E-08
  -4.99999989E-03  -3.07446193E-08
  -2.49999994E-03  -3.56412606E-08
   0.00000000       1.78608008E-08
   2.49999994E-03   4.71030717E-08
   4.99999989E-03   7.18035054E-09
   7.49999983E-03  -3.36621433E-08
   9.99999978E-03  -8.34274161E-09
   1.25000002E-02   4.20029167E-08
   1.49999997E-02   4.07752729E-08
   1.75000001E-02  -3.50262042E-10
   1.99999996E-02  -5.28128297E-09
   2.25000009E-02   4.06768841E-08
   2.50000004E-02   7.19386719E-08
   2.74999999E-02   6.26834193E-08
   2.99999993E-02   7.19380111E-08
   3.24999988E-02   1.27116053E-07
   3.50000001E-02   1.72423157E-07
   3.75000015E-02   1.91144139E-07
   3.99999991E-02   2.48935947E-07
   4.25000004E-02   3.59882847E-07
   4.50000018E-02   4.63420378E-07
   4.74999994E-02   5.68956523E-07
   5.00000007E-02   7.49451601E-07
   5.24999984E-02   9.93931849E-07
   5.49999997E-02   1.24884536E-06
   5.75000010E-02   1.55707119E-06
   5.99999987E-02   1.98548651E-06
   6.25000000E-02   2.51025494E-06
   6.49999976E-02   3.10792234E-06
   6.75000027E-02   3.83049519E-06
   7.00000003E-02   4.72202964E-06
   7.24999979E-02   5.80705819E-06
   7.50000030E-02   7.14202633E-06
   7.75000006E-02   8.73474164E-06
   7.99999982E-02   1.05243553E-05
   8.25000033E-02   1.25605557E-05
   8.50000009E-02   1.50181859E-05
   8.74999985E-02   1.79633789E-05
   9.00000036E-02   2.13269795E-05
   9.25000012E-02   2.51090096E-05
   9.49999988E-02   2.93884659E-05
   9.74999964E-02   3.42097774E-05
  0.100000001       3.96381911E-05
  0.102499999       4.57747192E-05
  0.104999997       5.26057120E-05
  0.107500002       6.00371823E-05
  0.109999999       6.81035963E-05
  0.112499997       7.69269900E-05
  0.115000002       8.65143593E-05
  0.117500000       9.67753513E-05
  0.119999997       1.07640786E-04
  0.122500002       1.19055956E-04
  0.125000000       1.30980858E-04
  0.127499998       1.43406374E-04
  0.129999995       1.56247654E-04
  0.132499993       1.69303108E-04
  0.135000005       1.82414340E-04
  0.137500003       1.95523884E-04
  0.140000001       2.08524885E-04
  0.142499998       2.21218128E-04
  0.144999996       2.33419691E-04
  0.147499993       2.44974712E-04
  0.150000006       2.55717867E-04
  0.152500004       2.65510316E-04
  0.155000001       2.74239370E-04
  0.157499999       2.81760265E-04
  0.159999996       2.87918810E-04
  0.162499994       2.92610057E-04
  0.165000007       2.95767706E-04
  0.167500004       2.97354796E-04
  0.170000002       2.97382619E-04
  0.172499999       2.95892038E-04
  0.174999997       2.92926445E-04
  0.177499995       2.88529525E-04
  0.180000007       2.82758032E-04
  0.182500005       2.75764731E-04
  0.185000002       2.67860829E-04
  0.187500000       2.59360706E-04
  0.189999998       2.50430690E-04
  0.192499995       2.41258895E-04
  0.194999993       2.32229198E-04
  0.197500005       2.23771975E-04
  0.200000003       2.16258137E-04
  0.202500001       2.10128070E-04
  0.204999998       2.05862831E-04
  0.207499996       2.03842603E-04
  0.209999993       2.04489799E-04
  0.212500006       2.08407917E-04
  0.215000004       2.16163200E-04
  0.217500001       2.28179531E-04
  0.219999999       2.44943629E-04
  0.222499996       2.67011608E-04
  0.224999994       2.94843747E-04
  0.227500007       3.28894734E-04
  0.230000004       3.69663670E-04
  0.232500002       4.17478033E-04
  0.234999999       4.72548156E-04
  0.237499997       5.35243133E-04
  0.239999995       6.05901354E-04
  0.242500007       6.84500381E-04
  0.245000005       7.70885206E-04
  0.247500002       8.65042850E-04
  0.250000000       9.66863940E-04
  0.252499998       1.07597874E-03
  0.254999995       1.19193201E-03
  0.257499993       1.31416589E-03
  0.259999990       1.44190015E-03
  0.262499988       1.57432177E-03
  0.264999986       1.71066169E-03
  0.267500013       1.84994168E-03
  0.270000011       1.99097022E-03
  0.272500008       2.13260623E-03
  0.275000006       2.27373745E-03
  0.277500004       2.41316576E-03
  0.280000001       2.54971976E-03
  0.282499999       2.68227048E-03
  0.284999996       2.80962605E-03
  0.287499994       2.93067098E-03
  0.289999992       3.04449885E-03
  0.292499989       3.15026566E-03
  0.294999987       3.24716279E-03
  0.297500014       3.33459047E-03
  0.300000012       3.41208372E-03
  0.302500010       3.47917806E-03
  0.305000007       3.53558152E-03
  0.307500005       3.58126173E-03
  0.310000002       3.61624151E-03
  0.312500000       3.64061142E-03
  0.314999998       3.65468883E-03
  0.317499995       3.65884742E-03
  0.319999993       3.65336379E-03
  0.322499990       3.63862747E-03
  0.324999988       3.61523614E-03
  0.327499986       3.58382054E-03
  0.330000013       3.54501279E-03
  0.332500011       3.49944597E-03
  0.335000008       3.44766025E-03
  0.337500006       3.39019438E-03
  0.340000004       3.32771661E-03
  0.342500001       3.26086115E-03
  0.344999999       3.19016003E-03
  0.347499996       3.11627006E-03
  0.349999994       3.03986669E-03
  0.352499992       2.96134502E-03
  0.354999989       2.88107269E-03
  0.357499987       2.79968744E-03
  0.360000014       2.71778065E-03
  0.362500012       2.63572834E-03
  0.365000010       2.55401991E-03
  0.367500007       2.47318647E-03
  0.370000005       2.39348807E-03
  0.372500002       2.31521972E-03
  0.375000000       2.23895186E-03
  0.377499998       2.16507097E-03
  0.379999995       2.09369371E-03
  0.382499993       2.02514231E-03
  0.384999990       1.95979327E-03
  0.387499988       1.89767743E-03
  0.389999986       1.83886499E-03
  0.392500013       1.78371218E-03
  0.395000011       1.73230772E-03
  0.397500008       1.68444111E-03
  0.400000006       1.64017302E-03
  0.402500004       1.59962627E-03
  0.405000001       1.56255404E-03
  0.407499999       1.52879721E-03
  0.409999996       1.49848626E-03
  0.412499994       1.47140189E-03
  0.414999992       1.44705048E-03
  0.417499989       1.42537663E-03
  0.419999987       1.40644948E-03
  0.422500014       1.38986134E-03
  0.425000012       1.37524481E-03
  0.427500010       1.36264972E-03
  0.430000007       1.35190843E-03
  0.432500005       1.34255202E-03
  0.435000002       1.33446336E-03
  0.437500000       1.32770510E-03
  0.439999998       1.32198399E-03
  0.442499995       1.31702470E-03
  0.444999993       1.31288730E-03
  0.447499990       1.30947866E-03
  0.449999988       1.30648748E-03
  0.452499986       1.30388699E-03
  0.455000013       1.30177627E-03
  0.457500011       1.29998045E-03
  0.460000008       1.29836018E-03
  0.462500006       1.29701092E-03
  0.465000004       1.29586493E-03
  0.467500001       1.29472406E-03
  0.469999999       1.29367609E-03
  0.472499996       1.29285525E-03
  0.474999994       1.29207422E-03
  0.477499992       1.29119004E-03
  0.479999989       1.29036605E-03
  0.482499987       1.28964917E-03
  0.485000014       1.28883880E-03
  0.487500012       1.28791016E-03
  0.490000010       1.28701702E-03
  0.492500007       1.28612120E-03
  0.495000005       1.28509256E-03
  0.497500002       1.28399057E-03
  0.500000000       1.28287973E-03
  0.502499998       1.28164480E-03
  0.504999995       1.28023594E-03
  0.507499993       1.27878611E-03
  0.509999990       1.27734337E-03
  0.512499988       1.27579831E-03
  0.514999986       1.27413194E-03
  0.517499983       1.27243181E-03
  0.519999981       1.27070153E-03
  0.522499979       1.26890582E-03
  0.524999976       1.26709417E-03
  0.527499974       1.26528717E-03
  0.529999971       1.26343442E-03
  0.532500029       1.26157841E-03
  0.535000026       1.25980517E-03
  0.537500024       1.25805545E-03
  0.540000021       1.25627127E-03
  0.542500019       1.25456322E-03
  0.545000017       1.25297473E-03
  0.547500014       1.25138101E-03
  0.550000012       1.24978146E-03
  0.552500010       1.24829810E-03
  0.555000007       1.24688924E-03
  0.557500005       1.24548178E-03
  0.560000002       1.24418305E-03
  0.562500000       1.24301098E-03
  0.564999998       1.24180177E-03
  0.567499995       1.24057906E-03
  0.569999993       1.23950699E-03
  0.572499990       1.23851164E-03
  0.574999988       1.23748346E-03
  0.577499986       1.23655342E-03
  0.579999983       1.23574072E-03
  0.582499981       1.23486249E-03
  0.584999979       1.23398541E-03
  0.587499976       1.23328657E-03
  0.589999974       1.23260892E-03
  0.592499971       1.23182440E-03
  0.595000029       1.23115571E-03
  0.597500026       1.23063033E-03
  0.600000024       1.22997921E-03
  0.602500021       1.22926757E-03
  0.605000019       1.22873927E-03
  0.607500017       1.22824346E-03
  0.610000014       1.22763752E-03
  0.612500012       1.22714241E-03
  0.615000010       1.22674473E-03
  0.617500007       1.22616009E-03
  0.620000005       1.22554007E-03
  0.622500002       1.22518069E-03
  0.625000000       1.22485927E-03
  0.627499998       1.22437661E-03
  0.629999995       1.22399302E-03
  0.632499993       1.22374971E-03
  0.634999990       1.22339581E-03
  0.637499988       1.22307811E-03
  0.639999986       1.22301653E-03
  0.642499983       1.22293714E-03
  0.644999981       1.22271827E-03
  0.647499979       1.22270209E-03
  0.649999976       1.22289197E-03
  0.652499974       1.22299173E-03
  0.654999971       1.22316135E-03
  0.657500029       1.22358755E-03
  0.660000026       1.22394669E-03
  0.662500024       1.22417056E-03
  0.665000021       1.22466194E-03
  0.667500019       1.22536439E-03
  0.670000017       1.22591434E-03
  0.672500014       1.22650433E-03
  0.675000012       1.22736208E-03
  0.677500010       1.22812774E-03
  0.680000007       1.22867676E-03
  0.682500005       1.22941344E-03
  0.685000002       1.23033067E-03
  0.687500000       1.23106292E-03
  0.689999998       1.23172533E-03
  0.692499995       1.23253360E-03
  0.694999993       1.23323675E-03
  0.697499990       1.23374979E-03
  0.699999988       1.23437063E-03
  0.702499986       1.23503862E-03
  0.704999983       1.23545853E-03
  0.707499981       1.23578764E-03
  0.709999979       1.23625295E-03
  0.712499976       1.23665936E-03
  0.714999974       1.23690953E-03
  0.717499971       1.23719673E-03
  0.720000029       1.23747066E-03
  0.722500026       1.23756682E-03
  0.725000024       1.23766321E-03
  0.727500021       1.23790186E-03
  0.730000019       1.23807974E-03
  0.732500017       1.23814458E-03
  0.735000014       1.23830256E-03
  0.737500012       1.23851269E-03
  0.740000010       1.23858172E-03
  0.742500007       1.23861223E-03
  0.745000005       1.23877276E-03
  0.747500002       1.23896450E-03
  0.750000000       1.23908720E-03
  0.752499998       1.23922201E-03
  0.754999995       1.23938802E-03
  0.757499993       1.23950606E-03
  0.759999990       1.23959372E-03
  0.762499988       1.23971852E-03
  0.764999986       1.23986567E-03
  0.767499983       1.23999419E-03
  0.769999981       1.24008849E-03
  0.772499979       1.24014087E-03
  0.774999976       1.24018942E-03
  0.777499974       1.24029117E-03
  0.779999971       1.24041154E-03
  0.782500029       1.24046369E-03
  0.785000026       1.24044728E-03
  0.787500024       1.24043296E-03
  0.790000021       1.24045264E-03
  0.792500019       1.24048605E-03
  0.795000017       1.24050619E-03
  0.797500014       1.24049326E-03
  0.800000012       1.24043215E-03
  0.802500010       1.24032586E-03
  0.805000007       1.24021934E-03
  0.807500005       1.24015601E-03
  0.810000002       1.24009687E-03
  0.812500000       1.23996846E-03
  0.814999998       1.23978930E-03
  0.817499995       1.23962143E-03
  0.819999993       1.23944983E-03
  0.822499990       1.23924343E-03
  0.824999988       1.23903214E-03
  0.827499986       1.23881618E-03
  0.829999983       1.23855181E-03
  0.832499981       1.23825681E-03
  0.834999979       1.23796926E-03
  0.837499976       1.23766938E-03
  0.839999974       1.23736612E-03
  0.842499971       1.23709964E-03
  0.845000029       1.23681710E-03
  0.847500026       1.23645167E-03
  0.850000024       1.23604992E-03
  0.852500021       1.23565842E-03
  0.855000019       1.23527332E-03
  0.857500017       1.23493862E-03
  0.860000014       1.23463350E-03
  0.862500012       1.23421138E-03
  0.865000010       1.23369310E-03
  0.867500007       1.23327447E-03
  0.870000005       1.23293104E-03
  0.872500002       1.23250147E-03
  0.875000000       1.23206282E-03
  0.877499998       1.23169704E-03
  0.879999995       1.23124511E-03
  0.882499993       1.23071077E-03
  0.884999990       1.23032404E-03
  0.887499988       1.23001880E-03
  0.889999986       1.22957118E-03
  0.892499983       1.22910517E-03
  0.894999981       1.22875348E-03
  0.897499979       1.22831867E-03
  0.899999976       1.22779189E-03
  0.902499974       1.22743740E-03
  0.904999971       1.22717163E-03
  0.907500029       1.22674054E-03
  0.910000026       1.22629071E-03
  0.912500024       1.22596428E-03
  0.915000021       1.22555951E-03
  0.917500019       1.22509745E-03
  0.920000017       1.22481841E-03
  0.922500014       1.22454425E-03
  0.925000012       1.22404017E-03
  0.927500010       1.22360059E-03
  0.930000007       1.22339872E-03
  0.932500005       1.22309849E-03
  0.935000002       1.22264680E-03
  0.937500000       1.22234528E-03
  0.939999998       1.22208614E-03
  0.942499995       1.22165028E-03
  0.944999993       1.22129801E-03
  0.947499990       1.22114480E-03
  0.949999988       1.22084212E-03
  0.952499986       1.22038985E-03
  0.954999983       1.22013211E-03
  0.957499981       1.21994794E-03
  0.959999979       1.21958123E-03
  0.962499976       1.21925655E-03
  0.964999974       1.21908402E-03
  0.967499971       1.21877179E-03
  0.970000029       1.21837470E-03
  0.972500026       1.21820532E-03
  0.975000024       1.21807773E-03
  0.977500021       1.21772115E-03
  0.980000019       1.21738110E-03
  0.982500017       1.21721486E-03
  0.985000014       1.21698773E-03
  0.987500012       1.21671334E-03
  0.990000010       1.21657609E-03
  0.992500007       1.21639320E-03
  0.995000005       1.21604849E-03
  0.997500002       1.21582719E-03
   1.00000000       1.21575489E-03
   1.00250006       1.21553277E-03
   1.00500000       1.21524942E-03
   1.00750005       1.21514522E-03
   1.00999999       1.21502113E-03
   1.01250005       1.21473172E-03
   1.01499999       1.21453637E-03
   1.01750004       1.21446932E-03
   1.01999998       1.21427840E-03
   1.02250004       1.21403474E-03
   1.02499998       1.21392054E-03
   1.02750003       1.21378328E-03
   1.02999997       1.21354312E-03
   1.03250003       1.21338619E-03
   1.03499997       1.21328502E-03
   1.03750002       1.21307909E-03
   1.03999996       1.21287222E-03
   1.04250002       1.21273880E-03
   1.04499996       1.21253368E-03
   1.04750001       1.21229561E-03
   1.04999995       1.21216674E-03
   1.05250001       1.21200969E-03
   1.05499995       1.21173903E-03
   1.05750000       1.21155079E-03
   1.05999994       1.21142797E-03
   1.06250000       1.21116149E-03
   1.06500006       1.21088594E-03
   1.06750000       1.21078501E-03
   1.07000005       1.21064892E-03
   1.07249999       1.21037720E-03
   1.07500005       1.21021143E-03
   1.07749999       1.21013238E-03
   1.08000004       1.20990828E-03
   1.08249998       1.20967487E-03
   1.08500004       1.20962574E-03
   1.08749998       1.20956660E-03
   1.09000003       1.20938127E-03
   1.09249997       1.20925717E-03
   1.09500003       1.20920094E-03
   1.09749997       1.20907580E-03
   1.10000002       1.20897440E-03
   1.10249996       1.20895077E-03
   1.10500002       1.20884564E-03
   1.10749996       1.20869186E-03
   1.11000001       1.20864715E-03
   1.11249995       1.20859034E-03
   1.11500001       1.20841688E-03
   1.11749995       1.20831653E-03
   1.12000000       1.20829674E-03
   1.12249994       1.20811514E-03
   1.12500000       1.20785087E-03
   1.12750006       1.20774738E-03
   1.13000000       1.20766496E-03
   1.13250005       1.20742025E-03
   1.13499999       1.20719674E-03
   1.13750005       1.20708568E-03
   1.13999999       1.20687520E-03
   1.14250004       1.20654923E-03
   1.14499998       1.20631361E-03
   1.14750004       1.20614760E-03
   1.14999998       1.20590453E-03
   1.15250003       1.20562711E-03
   1.15499997       1.20539078E-03
   1.15750003       1.20515074E-03
   1.15999997       1.20488938E-03
   1.16250002       1.20463339E-03
   1.16499996       1.20437494E-03
   1.16750002       1.20413234E-03
   1.16999996       1.20392523E-03
   1.17250001       1.20370137E-03
   1.17499995       1.20346015E-03
   1.17750001       1.20327796E-03
   1.17999995       1.20312651E-03
   1.18250000       1.20293174E-03
   1.18499994       1.20274560E-03
   1.18750000       1.20261940E-03
   1.19000006       1.20249717E-03
   1.19250000       1.20237027E-03
   1.19500005       1.20227784E-03
   1.19749999       1.20217772E-03
   1.20000005       1.20205735E-03
   1.20249999       1.20198925E-03
   1.20500004       1.20195677E-03
   1.20749998       1.20189507E-03
   1.21000004       1.20184501E-03
   1.21249998       1.20181404E-03
   1.21500003       1.20172906E-03
   1.21749997       1.20164768E-03
   1.22000003       1.20164966E-03
   1.22249997       1.20162487E-03
   1.22500002       1.20153034E-03
   1.22749996       1.20150542E-03
   1.23000002       1.20151427E-03
   1.23249996       1.20141509E-03
   1.23500001       1.20133965E-03
   1.23749995       1.20139879E-03
   1.24000001       1.20137446E-03
   1.24249995       1.20122009E-03
   1.24500000       1.20119425E-03
   1.24749994       1.20124768E-03
   1.25000000       1.20113743E-03
   1.25250006       1.20103196E-03
   1.25500000       1.20111613E-03
   1.25750005       1.20111415E-03
   1.25999999       1.20092125E-03
   1.26250005       1.20087108E-03
   1.26499999       1.20097853E-03
   1.26750004       1.20092765E-03
   1.26999998       1.20080437E-03
   1.27250004       1.20084814E-03
   1.27499998       1.20088435E-03
   1.27750003       1.20077527E-03
   1.27999997       1.20074290E-03
   1.28250003       1.20082137E-03
   1.28499997       1.20080682E-03
   1.28750002       1.20076269E-03
   1.28999996       1.20082335E-03
   1.29250002       1.20085594E-03
   1.29499996       1.20082707E-03
   1.29750001       1.20090088E-03
   1.29999995       1.20100845E-03
   1.30250001       1.20099925E-03
   1.30499995       1.20100984E-03
   1.30750000       1.20111846E-03
   1.30999994       1.20115757E-03
   1.31250000       1.20116444E-03
   1.31500006       1.20131287E-03
   1.31750000       1.20143581E-03
   1.32000005       1.20137527E-03
   1.32249999       1.20139250E-03
   1.32500005       1.20160321E-03
   1.32749999       1.20170473E-03
   1.33000004       1.20165583E-03
   1.33249998       1.20175455E-03
   1.33500004       1.20194559E-03
   1.33749998       1.20196131E-03
   1.34000003       1.20193872E-03
   1.34249997       1.20209868E-03
   1.34500003       1.20226492E-03
   1.34749997       1.20229658E-03
   1.35000002       1.20237796E-03
   1.35249996       1.20254408E-03
   1.35500002       1.20260403E-03
   1.35749996       1.20260392E-03
   1.36000001       1.20273163E-03
   1.36249995       1.20290800E-03
   1.36500001       1.20297482E-03
   1.36749995       1.20300206E-03
   1.37000000       1.20308972E-03
   1.37249994       1.20320695E-03
   1.37500000       1.20333477E-03
   1.37750006       1.20345631E-03
   1.38000000       1.20350032E-03
   1.38250005       1.20350113E-03
   1.38499999       1.20357401E-03
   1.38750005       1.20368192E-03
   1.38999999       1.20375212E-03
   1.39250004       1.20387657E-03
   1.39499998       1.20406330E-03
   1.39750004       1.20411965E-03
   1.39999998       1.20406132E-03
   1.40250003       1.20414339E-03
   1.40499997       1.20434235E-03
   1.40750003       1.20442046E-03
   1.40999997       1.20445841E-03
   1.41250002       1.20464887E-03
   1.41499996       1.20481919E-03
   1.41750002       1.20481418E-03
   1.41999996       1.20487122E-03
   1.42250001       1.20509590E-03
   1.42499995       1.20522804E-03
   1.42750001       1.20524003E-03
   1.42999995       1.20538264E-03
   1.43250000       1.20560010E-03
   1.43499994       1.20567973E-03
   1.43750000       1.20573770E-03
   1.44000006       1.20590418E-03
   1.44250000       1.20602502E-03
   1.44500005       1.20607868E-03
   1.44749999       1.20623293E-03
   1.45000005       1.20641198E-03
   1.45249999       1.20647869E-03
   1.45500004       1.20656937E-03
   1.45749998       1.20673340E-03
   1.46000004       1.20680872E-03
   1.46249998       1.20686705E-03
   1.46500003       1.20705634E-03
   1.46749997       1.20718253E-03
   1.47000003       1.20716554E-03
   1.47249997       1.20729499E-03
   1.47500002       1.20754226E-03
   1.47749996       1.20756263E-03
   1.48000002       1.20750372E-03
   1.48249996       1.20770233E-03
   1.48500001       1.20791222E-03
   1.48749995       1.20788952E-03
   1.49000001       1.20795483E-03
   1.49249995       1.20819535E-03
   1.49500000       1.20824401E-03
   1.49749994       1.20818417E-03
   1.50000000       1.20838685E-03
   1.50250006       1.20862946E-03
   1.50500000       1.20859337E-03
   1.50750005       1.20858173E-03
   1.50999999       1.20880245E-03
   1.51250005       1.20894052E-03
   1.51499999       1.20893749E-03
   1.51750004       1.20906346E-03
   1.51999998       1.20922271E-03
   1.52250004       1.20922807E-03
   1.52499998       1.20930211E-03
   1.52750003       1.20954076E-03
   1.52999997       1.20966439E-03
   1.53250003       1.20966427E-03
   1.53499997       1.20978756E-03
   1.53750002       1.20995415E-03
   1.53999996       1.21002039E-03
   1.54250002       1.21016207E-03
   1.54499996       1.21041038E-03
   1.54750001       1.21051876E-03
   1.54999995       1.21053949E-03
   1.55250001       1.21072365E-03
   1.55499995       1.21095462E-03
   1.55750000       1.21103344E-03
   1.55999994       1.21112901E-03
   1.56250000       1.21135986E-03
   1.56500006       1.21152028E-03
   1.56750000       1.21156767E-03
   1.57000005       1.21171167E-03
   1.57249999       1.21192599E-03
   1.57500005       1.21201552E-03
   1.57749999       1.21205801E-03
   1.58000004       1.21221959E-03
   1.58249998       1.21238874E-03
   1.58500004       1.21244101E-03
   1.58749998       1.21252239E-03
   1.59000003       1.21271820E-03
   1.59249997       1.21284090E-03
   1.59500003       1.21282518E-03
   1.59749997       1.21288700E-03
   1.60000002       1.21308106E-03
   1.60249996       1.21319643E-03
   1.60500002       1.21322169E-03
   1.60749996       1.21336500E-03
   1.61000001       1.21356954E-03
   1.61249995       1.21361925E-03
   1.61500001       1.21362403E-03
   1.61749995       1.21378875E-03
   1.62000000       1.21397816E-03
   1.62249994       1.21405406E-03
   1.62500000       1.21416885E-03
   1.62750006       1.21434929E-03
   1.63000000       1.21442194E-03
   1.63250005       1.21446454E-03
   1.63499999       1.21464918E-03
   1.63750005       1.21482986E-03
   1.63999999       1.21489365E-03
   1.64250004       1.21501670E-03
   1.64499998       1.21518760E-03
   1.64750004       1.21520832E-03
   1.64999998       1.21523009E-03
   1.65250003       1.21545885E-03
   1.65499997       1.21565757E-03
   1.65750003       1.21566351E-03
   1.65999997       1.21573347E-03
   1.66250002       1.21591322E-03
   1.66499996       1.21596572E-03
   1.66750002       1.21599704E-03
   1.66999996       1.21621171E-03
   1.67250001       1.21638679E-03
   1.67499995       1.21637178E-03
   1.67750001       1.21643476E-03
   1.67999995       1.21664198E-03
   1.68250000       1.21675094E-03
   1.68499994       1.21678959E-03
   1.68750000       1.21691788E-03
   1.69000006       1.21703546E-03
   1.69250000       1.21710345E-03
   1.69500005       1.21725642E-03
   1.69749999       1.21739996E-03
   1.70000005       1.21741218E-03
   1.70249999       1.21749914E-03
   1.70500004       1.21773512E-03
   1.70749998       1.21784792E-03
   1.71000004       1.21782382E-03
   1.71249998       1.21792569E-03
   1.71500003       1.21810229E-03
   1.71749997       1.21816853E-03
   1.72000003       1.21822942E-03
   1.72249997       1.21835084E-03
   1.72500002       1.21840357E-03
   1.72749996       1.21844967E-03
   1.73000002       1.21861382E-03
   1.73249996       1.21873931E-03
   1.73500001       1.21873978E-03
   1.73749995       1.21879380E-03
   1.74000001       1.21890579E-03
   1.74249995       1.21894164E-03
   1.74500000       1.21902069E-03
   1.74749994       1.21921569E-03
   1.75000000       1.21930102E-03
   1.75250006       1.21925923E-03
   1.75500000       1.21934386E-03
   1.75750005       1.21950975E-03
   1.75999999       1.21956016E-03
   1.76250005       1.21961662E-03
   1.76499999       1.21977739E-03
   1.76750004       1.21985504E-03
   1.76999998       1.21985085E-03
   1.77250004       1.21996633E-03
   1.77499998       1.22010836E-03
   1.77750003       1.22011930E-03
   1.77999997       1.22016598E-03
   1.78250003       1.22032466E-03
   1.78499997       1.22038089E-03
   1.78750002       1.22033758E-03
   1.78999996       1.22040662E-03
   1.79250002       1.22053490E-03
   1.79499996       1.22057891E-03
   1.79750001       1.22062454E-03
   1.79999995       1.22070499E-03
   1.80250001       1.22071372E-03
   1.80499995       1.22072536E-03
   1.80750000       1.22084806E-03
   1.80999994       1.22094143E-03
   1.81250000       1.22092816E-03
   1.81500006       1.22097309E-03
   1.81750000       1.22109661E-03
   1.82000005       1.22114143E-03
   1.82249999       1.22114469E-03
   1.82500005       1.22122711E-03
   1.82749999       1.22130930E-03
   1.83000004       1.22132420E-03
   1.83249998       1.22138090E-03
   1.83500004       1.22149207E-03
   1.83749998       1.22153177E-03
   1.84000003       1.22151745E-03
   1.84249997       1.22157601E-03
   1.84500003       1.22168392E-03
   1.84749997       1.22173328E-03
   1.85000002       1.22173724E-03
   1.85249996       1.22175948E-03
   1.85500002       1.22178590E-03
   1.85749996       1.22180721E-03
   1.86000001       1.22187356E-03
   1.86249995       1.22195878E-03
   1.86500001       1.22195948E-03
   1.86749995       1.22191536E-03
   1.87000000       1.22197147E-03
   1.87249994       1.22207135E-03
   1.87500000       1.22205773E-03
   1.87750006       1.22202712E-03
   1.88000000       1.22212782E-03
   1.88250005       1.22221012E-03
   1.88499999       1.22216577E-03
   1.88750005       1.22219161E-03
   1.88999999       1.22231850E-03
   1.89250004       1.22231350E-03
   1.89499998       1.22224714E-03
   1.89750004       1.22235401E-03
   1.89999998       1.22245739E-03
   1.90250003       1.22237043E-03
   1.90499997       1.22236542E-03
   1.90750003       1.22253678E-03
   1.90999997       1.22254819E-03
   1.91250002       1.22241687E-03
   1.91499996       1.22247811E-03
   1.91750002       1.22260267E-03
   1.91999996       1.22254004E-03
   1.92250001       1.22252607E-03
   1.92499995       1.22266193E-03
   1.92750001       1.22263131E-03
   1.92999995       1.22250163E-03
   1.93250000       1.22261641E-03
   1.93499994       1.22276333E-03
   1.93750000       1.22264982E-03
   1.94000006       1.22257404E-03
   1.94250000       1.22269150E-03
   1.94500005       1.22268999E-03
   1.94749999       1.22262514E-03
   1.95000005       1.22277346E-03
   1.95249999       1.22285564E-03
   1.95500004       1.22265995E-03
   1.95749998       1.22262107E-03
   1.96000004       1.22284528E-03
   1.96249998       1.22285425E-03
   1.96500003       1.22269418E-03
   1.96749997       1.22279115E-03
   1.97000003       1.22293353E-03
   1.97249997       1.22281525E-03
   1.97500002       1.22276589E-03
   1.97749996       1.22292037E-03
   1.98000002       1.22290209E-03