 -0.159999996       0.00000000    
 -0.157499999       0.00000000    
 -0.155000001       0.00000000    
 -0.152500004       0.00000000    
 -0.150000006       0.00000000    
 -0.147499993       2.58201501E-13
 -0.144999996      -2.12379116E-12
 -0.142499998      -1.11262139E-12
 -0.140000001       1.88504871E-11
 -0.137500003       6.41628417E-12
 -0.135000005      -8.93322014E-11
 -0.132499993      -4.07721010E-11
 -0.129999995       2.92852687E-10
 -0.127499998       1.94101790E-10
 -0.125000000      -7.17921167E-10
 -0.122500002      -6.75596024E-10
 -0.119999997       1.34418310E-09
 -0.117500000       1.82931825E-09
 -0.115000002      -1.79116910E-09
 -0.112499997      -3.97605815E-09
 -0.109999999       9.55571844E-10
 -0.107500002       6.75789824E-09
 -0.104999997       2.99686853E-09
 -0.102499999      -7.81205678E-09
 -0.100000001      -1.09101421E-08
  -9.74999964E-02   2.56921862E-09
  -9.49999988E-02   1.93642471E-08
  -9.25000012E-02   1.19443300E-08
  -9.00000036E-02  -2.04215809E-08
  -8.74999985E-02  -3.14329114E-08
  -8.50000009E-02   8.23267499E-09
  -8.25000033E-02   4.54733851E-08
  -7.99999982E-02   1.51109347E-08
  -7.75000006E-02  -4.49243274E-08
  -7.50000030E-02  -4.19155768E-08
  -7.24999979E-02   2.48465604E-08
  -7.00000003E-02   6.14800726E-08
  -6.75000027E-02   1.53949387E-08
  -6.49999976E-02  -5.78016781E-08
  -6.25000000E-02  -6.31130774E-08
  -5.99999987E-02   1.91523917E-08
  -5.75000010E-02   8.99895696E-08
  -5.49999997E-02   4.54048710E-08
  -5.24999984E-02  -6.59918840E-08
  -5.00000007E-02  -9.61808979E-08
  -4.74999994E-02  -1.00413651E-08
  -4.50000018E-02   7.85677514E-08
  -4.25000004E-02   7.30176168E-08
  -3.99999991E-02  -1.28849109E-08
  -3.75000015E-02  -8.63537934E-08
  -3.50000001E-02  -4.39835262E-08
  -3.24999988E-02   9.85002799E-08
  -2.99999993E-02   1.66070620E-07
  -2.74999999E-02   6.69253097E-08
  -2.50000004E-02  -2.54722785E-08
  -2.25000009E-02   6.67985915E-08
  -1.99999996E-02   2.44169030E-07
  -1.75000001E-02   3.20735182E-07
  -1.49999997E-02   3.09092940E-07
  -1.25000002E-02   3.41661632E-07
  -9.99999978E-03   4.92866661E-07
  -7.49999983E-03   7.67980112E-07
  -4.99999989E-03   1.11005693E-06
  -2.49999994E-03   1.43411057E-06
   0.00000000       1.77306231E-06
   2.49999994E-03   2.28681506E-06
   4.99999989E-03   3.06478910E-06
   7.49999983E-03   4.07211519E-06
   9.99999978E-03   5.29223053E-06
   1.25000002E-02   6.77785829E-06
   1.49999997E-02   8.62479192E-06
   1.75000001E-02   1.09874472E-05
   1.99999996E-02   1.40081765E-05
   2.25000009E-02   1.77302063E-05
   2.50000004E-02   2.22299659E-05
   2.74999999E-02   2.77519830E-05
   2.99999993E-02   3.45604567E-05
   3.24999988E-02   4.28050589E-05
   3.50000001E-02   5.26637996E-05
   3.75000015E-02   6.44585962E-05
   3.99999991E-02   7.85597440E-05
   4.25000004E-02   9.53196941E-05
   4.50000018E-02   1.15105729E-04
   4.74999994E-02   1.38293719E-04
   5.00000007E-02   1.65271907E-04
   5.24999984E-02   1.96506851E-04
   5.49999997E-02   2.32550054E-04
   5.75000010E-02   2.73958838E-04
   5.99999987E-02   3.21237574E-04
   6.25000000E-02   3.74851137E-04
   6.49999976E-02   4.35299386E-04
   6.75000027E-02   5.03147428E-04
   7.00000003E-02   5.78914769E-04
   7.24999979E-02   6.62996259E-04
   7.50000030E-02   7.55773101E-04
   7.75000006E-02   8.57677485E-04
   7.99999982E-02   9.69059067E-04
   8.25000033E-02   1.09012041E-03
   8.50000009E-02   1.22096797E-03
   8.74999985E-02   1.36156718E-03
   9.00000036E-02   1.51176262E-03
   9.25000012E-02   1.67147350E-03
   9.49999988E-02   1.84062752E-03
   9.74999964E-02   2.01884098E-03
  0.100000001       2.20545637E-03
  0.102499999       2.39984761E-03
  0.104999997       2.60140724E-03
  0.107500002       2.80941208E-03
  0.109999999       3.02312803E-03
  0.112499997       3.24176368E-03
  0.115000002       3.46428831E-03
  0.117500000       3.68965208E-03
  0.119999997       3.91709013E-03
  0.122500002       4.14588582E-03
  0.125000000       4.37513227E-03
  0.127499998       4.60393075E-03
  0.129999995       4.83151432E-03
  0.132499993       5.05716773E-03
  0.135000005       5.28036663E-03
  0.137500003       5.50079113E-03
  0.140000001       5.71799604E-03
  0.142499998       5.93145378E-03
  0.144999996       6.14093710E-03
  0.147499993       6.34639058E-03
  0.150000006       6.54760143E-03
  0.152500004       6.74444810E-03
  0.155000001       6.93702465E-03
  0.157499999       7.12523423E-03
  0.159999996       7.30882166E-03
  0.162499994       7.48781348E-03
  0.165000007       7.66227441E-03
  0.167500004       7.83190504E-03
  0.170000002       7.99636543E-03
  0.172499999       8.15545768E-03
  0.174999997       8.30873754E-03
  0.177499995       8.45561083E-03
  0.180000007       8.59570503E-03
  0.182500005       8.72851163E-03
  0.185000002       8.85307603E-03
  0.187500000       8.96851253E-03
  0.189999998       9.07421112E-03
  0.192499995       9.16936342E-03
  0.194999993       9.25304275E-03
  0.197500005       9.32457298E-03
  0.200000003       9.38320253E-03
  0.202500001       9.42796189E-03
  0.204999998       9.45825782E-03
  0.207499996       9.47387610E-03
  0.209999993       9.47437435E-03
  0.212500006       9.45931207E-03
  0.215000004       9.42872837E-03
  0.217500001       9.38275736E-03
  0.219999999       9.32146423E-03
  0.222499996       9.24538635E-03
  0.224999994       9.15539265E-03
  0.227500007       9.05205496E-03
  0.230000004       8.93601682E-03
  0.232500002       8.80853273E-03
  0.234999999       8.67095869E-03
  0.237499997       8.52438994E-03
  0.239999995       8.37016478E-03
  0.242500007       8.20984133E-03
  0.245000005       8.04472249E-03
  0.247500002       7.87611119E-03
  0.250000000       7.70562747E-03
  0.252499998       7.53473025E-03
  0.254999995       7.36453524E-03
  0.257499993       7.19628250E-03
  0.259999990       7.03127356E-03
  0.262499988       6.87043834E-03
  0.264999986       6.71456335E-03
  0.267500013       6.56461623E-03
  0.270000011       6.42137090E-03
  0.272500008       6.28521666E-03
  0.275000006       6.15648972E-03
  0.277500004       6.03556586E-03
  0.280000001       5.92262764E-03
  0.282499999       5.81772951E-03
  0.284999996       5.72095811E-03
  0.287499994       5.63226314E-03
  0.289999992       5.55134472E-03
  0.292499989       5.47786662E-03
  0.294999987       5.41160256E-03
  0.297500014       5.35232713E-03
  0.300000012       5.29970601E-03
  0.302500010       5.25334338E-03
  0.305000007       5.21284621E-03
  0.307500005       5.17777400E-03
  0.310000002       5.14766946E-03
  0.312500000       5.12221316E-03
  0.314999998       5.10116899E-03
  0.317499995       5.08412952E-03
  0.319999993       5.07060066E-03
  0.322499990       5.06030349E-03
  0.324999988       5.05301356E-03
  0.327499986       5.04830899E-03
  0.330000013       5.04589360E-03
  0.332500011       5.04573667E-03
  0.335000008       5.04756439E-03
  0.337500006       5.05085103E-03
  0.340000004       5.05540334E-03
  0.342500001       5.06120780E-03
  0.344999999       5.06794825E-03
  0.347499996       5.07538905E-03
  0.349999994       5.08359214E-03
  0.352499992       5.09228278E-03
  0.354999989       5.10094175E-03
  0.357499987       5.10957232E-03
  0.360000014       5.11833467E-03
  0.362500012       5.12686046E-03
  0.365000010       5.13486611E-03
  0.367500007       5.14252065E-03
  0.370000005       5.14965924E-03
  0.372500002       5.15584368E-03
  0.375000000       5.16120810E-03
  0.377499998       5.16596809E-03
  0.379999995       5.16973436E-03
  0.382499993       5.17232949E-03
  0.384999990       5.17408736E-03
  0.387499988       5.17487573E-03
  0.389999986       5.17429877E-03
  0.392500013       5.17263589E-03
  0.395000011       5.17019071E-03
  0.397500008       5.16663026E-03
  0.400000006       5.16193127E-03
  0.402500004       5.15650585E-03
  0.405000001       5.15017565E-03
  0.407499999       5.14266361E-03
  0.409999996       5.13448287E-03
  0.412499994       5.12593146E-03
  0.414999992       5.11658844E-03
  0.417499989       5.10656787E-03
  0.419999987       5.09645138E-03
  0.422500014       5.08604525E-03
  0.425000012       5.07509476E-03
  0.427500010       5.06423367E-03
  0.430000007       5.05374372E-03
  0.432500005       5.04311034E-03
  0.435000002       5.03249280E-03
  0.437500000       5.02255606E-03
  0.439999998       5.01311477E-03
  0.442499995       5.00389747E-03
  0.444999993       4.99546994E-03
  0.447499990       4.98798862E-03
  0.449999988       4.98092268E-03
  0.452499986       4.97447420E-03
  0.455000013       4.96918755E-03
  0.457500011       4.96470649E-03
  0.460000008       4.96073207E-03
  0.462500006       4.95777605E-03
  0.465000004       4.95583517E-03
  0.467500001       4.95430641E-03
  0.469999999       4.95338673E-03
  0.472499996       4.95348312E-03
  0.474999994       4.95405449E-03
  0.477499992       4.95472550E-03
  0.479999989       4.95596183E-03
  0.482499987       4.95772948E-03
  0.485000014       4.95943613E-03
  0.487500012       4.96118795E-03
  0.490000010       4.96324059E-03
  0.492500007       4.96511301E-03
  0.495000005       4.96657100E-03
  0.497500002       4.96798754E-03
  0.500000000       4.96924436E-03
  0.502499998       4.96994890E-03
  0.504999995       4.97031631E-03
  0.507499993       4.97044995E-03
  0.509999990       4.96992702E-03
  0.512499988       4.96885274E-03
  0.514999986       4.96770954E-03
  0.517499983       4.96623106E-03
  0.519999981       4.96403873E-03
  0.522499979       4.96155210E-03
  0.524999976       4.95902635E-03
  0.527499974       4.95611504E-03
  0.529999971       4.95293457E-03
  0.532500029       4.94992174E-03
  0.535000026       4.94685909E-03
  0.537500024       4.94351145E-03
  0.540000021       4.94030491E-03
  0.542500019       4.93743736E-03
  0.545000017       4.93461872E-03
  0.547500014       4.93193930E-03
  0.550000012       4.92967293E-03
  0.552500010       4.92762774E-03
  0.555000007       4.92571155E-03
  0.557500005       4.92423307E-03
  0.560000002       4.92315879E-03
  0.562500000       4.92222747E-03
  0.564999998       4.92164306E-03
  0.567499995       4.92155319E-03
  0.569999993       4.92160022E-03
  0.572499990       4.92170686E-03
  0.574999988       4.92221676E-03
  0.577499986       4.92305914E-03
  0.579999983       4.92391642E-03
  0.582499981       4.92489757E-03
  0.584999979       4.92611714E-03
  0.587499976       4.92731901E-03
  0.589999974       4.92848083E-03
  0.592499971       4.92985034E-03
  0.595000029       4.93130274E-03
  0.597500026       4.93254978E-03
  0.600000024       4.93369112E-03
  0.602500021       4.93487203E-03
  0.605000019       4.93598403E-03
  0.607500017       4.93700942E-03
  0.610000014       4.93800920E-03
  0.612500012       4.93884180E-03
  0.615000010       4.93943598E-03
  0.617500007       4.93998034E-03
  0.620000005       4.94052051E-03
  0.622500002       4.94088931E-03
  0.625000000       4.94110771E-03
  0.627499998       4.94130189E-03
  0.629999995       4.94138151E-03
  0.632499993       4.94125392E-03
  0.634999990       4.94106393E-03
  0.637499988       4.94092051E-03
  0.639999986       4.94072260E-03
  0.642499983       4.94040968E-03
  0.644999981       4.94005159E-03
  0.647499979       4.93965065E-03
  0.649999976       4.93915845E-03
  0.652499974       4.93864389E-03
  0.654999971       4.93821129E-03
  0.657500029       4.93780850E-03
  0.660000026       4.93733026E-03
  0.662500024       4.93680639E-03
  0.665000021       4.93630441E-03
  0.667500019       4.93580895E-03
  0.670000017       4.93534608E-03
  0.672500014       4.93498752E-03
  0.675000012       4.93464386E-03
  0.677500010       4.93418425E-03
  0.680000007       4.93373675E-03
  0.682500005       4.93346713E-03
  0.685000002       4.93324688E-03
  0.687500000       4.93295677E-03
  0.689999998       4.93273092E-03
  0.692499995       4.93258098E-03
  0.694999993       4.93236352E-03
  0.697499990       4.93217772E-03
  0.699999988       4.93216002E-03
  0.702499986       4.93212510E-03
  0.704999983       4.93199099E-03
  0.707499981       4.93199658E-03
  0.709999979       4.93211392E-03
  0.712499976       4.93207946E-03
  0.714999974       4.93203290E-03
  0.717499971       4.93220240E-03
  0.720000029       4.93235514E-03
  0.722500026       4.93237376E-03
  0.725000024       4.93253954E-03
  0.727500021       4.93280031E-03
  0.730000019       4.93286271E-03
  0.732500017       4.93294746E-03
  0.735000014       4.93331533E-03
  0.737500012       4.93362127E-03
  0.740000010       4.93368972E-03
  0.742500007       4.93388763E-03
  0.745000005       4.93423408E-03
  0.747500002       4.93443478E-03
  0.750000000       4.93467180E-03
  0.752499998       4.93513048E-03
  0.754999995       4.93543549E-03
  0.757499993       4.93550254E-03
  0.759999990       4.93577309E-03
  0.762499988       4.93622059E-03
  0.764999986       4.93647158E-03
  0.767499983       4.93667042E-03
  0.769999981       4.93700290E-03
  0.772499979       4.93720407E-03
  0.774999976       4.93731489E-03
  0.777499974       4.93767718E-03
  0.779999971       4.93805530E-03
  0.782500029       4.93812840E-03
  0.785000026       4.93826112E-03
  0.787500024       4.93863970E-03
  0.790000021       4.93883109E-03
  0.792500019       4.93885763E-03
  0.795000017       4.93918033E-03
  0.797500014       4.93960362E-03
  0.800000012       4.93973633E-03
  0.802500010       4.93987743E-03
  0.805000007       4.94026626E-03
  0.807500005       4.94057778E-03
  0.810000002       4.94078780E-03
  0.812500000       4.94119199E-03
  0.814999998       4.94162738E-03
  0.817499995       4.94187186E-03
  0.819999993       4.94219363E-03
  0.822499990       4.94268769E-03
  0.824999988       4.94308583E-03
  0.827499986       4.94343648E-03
  0.829999983       4.94390633E-03
  0.832499981       4.94428677E-03
  0.834999979       4.94452287E-03
  0.837499976       4.94491728E-03
  0.839999974       4.94540762E-03
  0.842499971       4.94569028E-03
  0.845000029       4.94591147E-03
  0.847500026       4.94626909E-03
  0.850000024       4.94653685E-03
  0.852500021       4.94665746E-03
  0.855000019       4.94689541E-03
  0.857500017       4.94719436E-03
  0.860000014       4.94731916E-03
  0.862500012       4.94737737E-03
  0.865000010       4.94750636E-03
  0.867500007       4.94760927E-03
  0.870000005       4.94771404E-03
  0.872500002       4.94789518E-03
  0.875000000       4.94800182E-03
  0.877499998       4.94801207E-03
  0.879999995       4.94812941E-03
  0.882499993       4.94830590E-03
  0.884999990       4.94835572E-03
  0.887499988       4.94842045E-03
  0.889999986       4.94861975E-03
  0.892499983       4.94876131E-03
  0.894999981       4.94881859E-03
  0.897499979       4.94900066E-03
  0.899999976       4.94925631E-03
  0.902499974       4.94940253E-03
  0.904999971       4.94950963E-03
  0.907500029       4.94965818E-03
  0.910000026       4.94979508E-03
  0.912500024       4.94997529E-03
  0.915000021       4.95024258E-03
  0.917500019       4.95045772E-03
  0.920000017       4.95061232E-03
  0.922500014       4.95083770E-03
  0.925000012       4.95104864E-03
  0.927500010       4.95116459E-03
  0.930000007       4.95137554E-03
  0.932500005       4.95171826E-03
  0.935000002       4.95195203E-03
  0.937500000       4.95210709E-03
  0.939999998       4.95240791E-03
  0.942499995       4.95275250E-03
  0.944999993       4.95295925E-03
  0.947499990       4.95315576E-03
  0.949999988       4.95344540E-03
  0.952499986       4.95372573E-03
  0.954999983       4.95398464E-03
  0.957499981       4.95425658E-03
  0.959999979       4.95449221E-03
  0.962499976       4.95473342E-03
  0.964999974       4.95502586E-03
  0.967499971       4.95523633E-03
  0.970000029       4.95537277E-03
  0.972500026       4.95562283E-03
  0.975000024       4.95587708E-03
  0.977500021       4.95594367E-03
  0.980000019       4.95604658E-03
  0.982500017       4.95633669E-03
  0.985000014       4.95650293E-03
  0.987500012       4.95647592E-03
  0.990000010       4.95658023E-03
  0.992500007       4.95677209E-03
  0.995000005       4.95679909E-03
  0.997500002       4.95681120E-03
   1.00000000       4.95691970E-03
   1.00250006       4.95691271E-03
   1.00500000       4.95686196E-03
   1.00750005       4.95697511E-03
   1.00999999       4.95703146E-03
   1.01250005       4.95691597E-03
   1.01499999       4.95692622E-03
   1.01750004       4.95698629E-03
   1.01999998       4.95679863E-03
   1.02250004       4.95669199E-03
   1.02499998       4.95692156E-03
   1.02750003       4.95696627E-03
   1.02999997       4.95666964E-03
   1.03250003       4.95660352E-03
   1.03499997       4.95674880E-03
   1.03750002       4.95663378E-03
   1.03999996       4.95652622E-03
   1.04250002       4.95670037E-03
   1.04499996       4.95664775E-03
   1.04750001       4.95631620E-03
   1.04999995       4.95635439E-03
   1.05250001       4.95662633E-03
   1.05499995       4.95652994E-03
   1.05750000       4.95634554E-03
   1.05999994       4.95644007E-03
   1.06250000       4.95641306E-03
   1.06500006       4.95623425E-03
   1.06750000       4.95635858E-03
   1.07000005       4.95650526E-03
   1.07249999       4.95629385E-03
   1.07500005       4.95621841E-03
   1.07749999       4.95644985E-03
   1.08000004       4.95639443E-03
   1.08249998       4.95617790E-03
   1.08500004       4.95636836E-03
   1.08749998       4.95656161E-03
   1.09000003       4.95634228E-03
   1.09249997       4.95629013E-03
   1.09500003       4.95654857E-03
   1.09749997       4.95649688E-03
   1.10000002       4.95633902E-03
   1.10249996       4.95661981E-03
   1.10500002       4.95681260E-03
   1.10749996       4.95653460E-03
   1.11000001       4.95648291E-03
   1.11249995       4.95680375E-03
   1.11500001       4.95683029E-03
   1.11749995       4.95673297E-03
   1.12000000       4.95698908E-03
   1.12249994       4.95709712E-03
   1.12500000       4.95681586E-03
   1.12750006       4.95686522E-03
   1.13000000       4.95726755E-03
   1.13250005       4.95730387E-03
   1.13499999       4.95715486E-03
   1.13750005       4.95732762E-03
   1.13999999       4.95744543E-03
   1.14250004       4.95732902E-03
   1.14499998       4.95751342E-03
   1.14750004       4.95787943E-03
   1.14999998       4.95783798E-03
   1.15250003       4.95769735E-03
   1.15499997       4.95792925E-03
   1.15750003       4.95814858E-03
   1.15999997       4.95814532E-03
   1.16250002       4.95830504E-03
   1.16499996       4.95853880E-03
   1.16750002       4.95851552E-03
   1.16999996       4.95854905E-03
   1.17250001       4.95885545E-03
   1.17499995       4.95902076E-03
   1.17750001       4.95899143E-03
   1.17999995       4.95916419E-03
   1.18250000       4.95941797E-03
   1.18499994       4.95946035E-03
   1.18750000       4.95952740E-03
   1.19000006       4.95975558E-03
   1.19250000       4.95988270E-03
   1.19500005       4.95995255E-03
   1.19749999       4.96018352E-03
   1.20000005       4.96037956E-03
   1.20249999       4.96039586E-03
   1.20500004       4.96049412E-03
   1.20749998       4.96073253E-03
   1.21000004       4.96089365E-03
   1.21249998       4.96100262E-03
   1.21500003       4.96115535E-03
   1.21749997       4.96125408E-03
   1.22000003       4.96134721E-03
   1.22249997       4.96157212E-03
   1.22500002       4.96179098E-03
   1.22749996       4.96189157E-03
   1.23000002       4.96201357E-03
   1.23249996       4.96215420E-03
   1.23500001       4.96221473E-03
   1.23749995       4.96236095E-03
   1.24000001       4.96266410E-03
   1.24249995       4.96285781E-03
   1.24500000       4.96289460E-03
   1.24749994       4.96301474E-03
   1.25000000       4.96318704E-03
   1.25250006       4.96328762E-03
   1.25500000       4.96346131E-03
   1.25750005       4.96371044E-03
   1.25999999       4.96381987E-03
   1.26250005       4.96387156E-03
   1.26499999       4.96404991E-03
   1.26750004       4.96420125E-03
   1.26999998       4.96426132E-03
   1.27250004       4.96443175E-03
   1.27499998       4.96463850E-03
   1.27750003       4.96467948E-03
   1.27999997       4.96473629E-03
   1.28250003       4.96491510E-03
   1.28499997       4.96496866E-03
   1.28750002       4.96496214E-03
   1.28999996       4.96517727E-03
   1.29250002       4.96536121E-03
   1.29499996       4.96524805E-03
   1.29750001       4.96522896E-03
   1.29999995       4.96549066E-03
   1.30250001       4.96558659E-03
   1.30499995       4.96547064E-03
   1.30750000       4.96554933E-03
   1.30999994       4.96570626E-03
   1.31250000       4.96564480E-03
   1.31500006       4.96565690E-03
   1.31750000       4.96590603E-03
   1.32000005       4.96600661E-03
   1.32249999       4.96590603E-03
   1.32500005       4.96595632E-03
   1.32749999       4.96608950E-03
   1.33000004       4.96611884E-03
   1.33249998       4.96624783E-03
   1.33500004       4.96648671E-03
   1.33749998       4.96653235E-03
   1.34000003       4.96652443E-03
   1.34249997       4.96676425E-03
   1.34500003       4.96699009E-03
   1.34749997       4.96699708E-03
   1.35000002       4.96711209E-03
   1.35249996       4.96738404E-03
   1.35500002       4.96747438E-03
   1.35749996       4.96751443E-03
   1.36000001       4.96780034E-03
   1.36249995       4.96805459E-03
   1.36500001       4.96806111E-03
   1.36749995       4.96815424E-03
   1.37000000       4.96841036E-03
   1.37249994       4.96849557E-03
   1.37500000       4.96849045E-03
   1.37750006       4.96869488E-03
   1.38000000       4.96892352E-03
   1.38250005       4.96895658E-03
   1.38499999       4.96901013E-03
   1.38750005       4.96917171E-03
   1.38999999       4.96924575E-03
   1.39250004       4.96928999E-03
   1.39499998       4.96943062E-03
   1.39750004       4.96949581E-03
   1.39999998       4.96947579E-03
   1.40250003       4.96961735E-03
   1.40499997       4.96982038E-03
   1.40750003       4.96982411E-03
   1.40999997       4.96981479E-03
   1.41250002       4.96999454E-03
   1.41499996       4.97010956E-03
   1.41750002       4.97006485E-03
   1.41999996       4.97015612E-03
   1.42250001       4.97036660E-03
   1.42499995       4.97042527E-03
   1.42750001       4.97045135E-03
   1.42999995       4.97064134E-03
   1.43250000       4.97077359E-03
   1.43499994       4.97074611E-03
   1.43750000       4.97083552E-03
   1.44000006       4.97106183E-03
   1.44250000       4.97118104E-03
   1.44500005       4.97126300E-03
   1.44749999       4.97143809E-03
   1.45000005       4.97152889E-03
   1.45249999       4.97154053E-03
   1.45500004       4.97173378E-03
   1.45749998       4.97200247E-03
   1.46000004       4.97206859E-03
   1.46249998       4.97210771E-03
   1.46500003       4.97230934E-03
   1.46749997       4.97244624E-03
   1.47000003       4.97249095E-03
   1.47249997       4.97271679E-03
   1.47500002       4.97297896E-03
   1.47749996       4.97298501E-03
   1.48000002       4.97299992E-03
   1.48249996       4.97326348E-03
   1.48500001       4.97346371E-03
   1.48749995       4.97349026E-03
   1.49000001       4.97365184E-03
   1.49249995       4.97388886E-03
   1.49500000       4.97394847E-03
   1.49749994       4.97405091E-03
   1.50000000       4.97433962E-03
   1.50250006       4.97447280E-03
   1.50500000       4.97444486E-03
   1.50750005       4.97464323E-03
   1.50999999       4.97493520E-03
   1.51250005       4.97499341E-03
   1.51499999       4.97508049E-03
   1.51750004       4.97536315E-03
   1.51999998       4.97546699E-03
   1.52250004       4.97541949E-03
   1.52499998       4.97564953E-03
   1.52750003       4.97596292E-03
   1.52999997       4.97597922E-03
   1.53250003       4.97602718E-03
   1.53499997       4.97634802E-03
   1.53750002       4.97651659E-03
   1.53999996       4.97645792E-03
   1.54250002       4.97661624E-03
   1.54499996       4.97690821E-03
   1.54750001       4.97699017E-03
   1.54999995       4.97708796E-03
   1.55250001       4.97736642E-03
   1.55499995       4.97749541E-03
   1.55750000       4.97749494E-03
   1.55999994       4.97770775E-03
   1.56250000       4.97794570E-03
   1.56500006       4.97794803E-03
   1.56750000       4.97802207E-03
   1.57000005       4.97828005E-03
   1.57249999       4.97836946E-03
   1.57500005       4.97836201E-03
   1.57749999       4.97858459E-03
   1.58000004       4.97878296E-03
   1.58249998       4.97871730E-03
   1.58500004       4.97875316E-03
   1.58749998       4.97899530E-03
   1.59000003       4.97905537E-03
   1.59249997       4.97900927E-03
   1.59500003       4.97921463E-03
   1.59749997       4.97943209E-03
   1.60000002       4.97936551E-03
   1.60249996       4.97932592E-03
   1.60500002       4.97952290E-03
   1.60749996       4.97966912E-03
   1.61000001       4.97969240E-03
   1.61249995       4.97980462E-03
   1.61500001       4.97993361E-03
   1.61749995       4.97993873E-03
   1.62000000       4.97998577E-03
   1.62249994       4.98016877E-03
   1.62500000       4.98031359E-03
   1.62750006       4.98035317E-03
   1.63000000       4.98041045E-03
   1.63250005       4.98052733E-03
   1.63499999       4.98064235E-03
   1.63750005       4.98071359E-03
   1.63999999       4.98075830E-03
   1.64250004       4.98084864E-03
   1.64499998       4.98099346E-03
   1.64750004       4.98109451E-03
   1.64999998       4.98114200E-03
   1.65250003       4.98122210E-03
   1.65499997       4.98130778E-03
   1.65750003       4.98136552E-03
   1.65999997       4.98148100E-03
   1.66250002       4.98160766E-03
   1.66499996       4.98162303E-03
   1.66750002       4.98166168E-03
   1.66999996       4.98184189E-03
   1.67250001       4.98197274E-03
   1.67499995       4.98200115E-03
   1.67750001       4.98211896E-03
   1.67999995       4.98223305E-03
   1.68250000       4.98219533E-03
   1.68499994       4.98228753E-03
   1.68750000       4.98258555E-03
   1.69000006       4.98268288E-03
   1.69250000       4.98261815E-03
   1.69500005       4.98278858E-03
   1.69749999       4.98295715E-03
   1.70000005       4.98282537E-03
   1.70249999       4.98287892E-03
   1.70500004       4.98327101E-03
   1.70749998       4.98334551E-03
   1.71000004       4.98311548E-03
   1.71249998       4.98325378E-03
   1.71500003       4.98353690E-03
   1.71749997       4.98343538E-03
   1.72000003       4.98338975E-03
   1.72249997       4.98367753E-03
   1.72500002       4.98370081E-03
   1.72749996       4.98348521E-03
   1.73000002       4.98366449E-03
   1.73249996       4.98393131E-03
   1.73500001       4.98377392E-03
   1.73749995       4.98372084E-03
   1.74000001       4.98402305E-03
   1.74249995       4.98403376E-03
   1.74500000       4.98383539E-03
   1.74749994       4.98405471E-03
   1.75000000       4.98429732E-03
   1.75250006       4.98410920E-03
   1.75500000       4.98411106E-03
   1.75750005       4.98446077E-03
   1.75999999       4.98443795E-03
   1.76250005       4.98422934E-03
   1.76499999       4.98451199E-03
   1.76750004       4.98480396E-03
   1.76999998       4.98460745E-03
   1.77250004       4.98456415E-03
   1.77499998       4.98487428E-03
   1.77750003       4.98489337E-03
   1.77999997       4.98478580E-03
   1.78250003       4.98505309E-03
   1.78499997       4.98519093E-03
   1.78750002       4.98493295E-03
   1.78999996       4.98499302E-03
   1.79250002       4.98537207E-03
   1.79499996       4.98532830E-03
   1.79750001       4.98512434E-03
   1.79999995       4.98534692E-03
   1.80250001       4.98551363E-03
   1.80499995       4.98531386E-03
   1.80750000       4.98536183E-03
   1.80999994       4.98568220E-03
   1.81250000       4.98567568E-03
   1.81500006       4.98555182E-03
   1.81750000       4.98574320E-03
   1.82000005       4.98585915E-03
   1.82249999       4.98571480E-03
   1.82500005       4.98578744E-03
   1.82749999       4.98604262E-03
   1.83000004       4.98606125E-03
   1.83249998       4.98603238E-03
   1.83500004       4.98617487E-03
   1.83749998       4.98620002E-03
   1.84000003       4.98614041E-03
   1.84249997       4.98631503E-03
   1.84500003       4.98646917E-03
   1.84749997       4.98634484E-03
   1.85000002       4.98633133E-03
   1.85249996       4.98656975E-03
   1.85500002       4.98663168E-03
   1.85749996       4.98651667E-03
   1.86000001       4.98658698E-03
   1.86249995       4.98671690E-03
   1.86500001       4.98667080E-03
   1.86749995       4.98666381E-03
   1.87000000       4.98679839E-03
   1.87249994       4.98685939E-03
   1.87500000       4.98684216E-03
   1.87750006       4.98689059E-03
   1.88000000       4.98693995E-03
   1.88250005       4.98695159E-03
   1.88499999       4.98700421E-03
   1.88750005       4.98705683E-03
   1.88999999       4.98707267E-03
   1.89250004       4.98714019E-03
   1.89499998       4.98721609E-03
   1.89750004       4.98720491E-03
   1.89999998       4.98722168E-03
   1.90250003       4.98733064E-03
   1.90499997       4.98739025E-03
   1.90750003       4.98739118E-03
   1.90999997       4.98743262E-03
   1.91250002       4.98747127E-03
   1.91499996       4.98748990E-03
   1.91750002       4.98755416E-03
   1.91999996       4.98759793E-03
   1.92250001       4.98758815E-03
   1.92499995       4.98764683E-03
   1.92750001       4.98771574E-03
   1.92999995       4.98765241E-03
   1.93250000       4.98765102E-03
   1.93499994       4.98780888E-03
   1.93750000       4.98781446E-03
   1.94000006       4.98767290E-03
   1.94250000       4.98777907E-03
   1.94500005       4.98799095E-03
   1.94749999       4.98790015E-03
   1.95000005       4.98775626E-03
   1.95249999       4.98788385E-03
   1.95500004       4.98798257E-03
   1.95749998       4.98792017E-03
   1.96000004       4.98799561E-03
   1.96249998       4.98810783E-03
   1.96500003       4.98800492E-03
   1.96749997       4.98796627E-03
   1.97000003       4.98813437E-03
   1.97249997       4.98816138E-03
   1.97500002       4.98809153E-03
   1.97749996       4.98822378E-03
   1.98000002       4.98828199E-03