 -0.159999996       0.00000000    
 -0.157499999       0.00000000    
 -0.155000001       0.00000000    
 -0.152500004       0.00000000    
 -0.150000006       0.00000000    
 -0.147499993       2.53213032E-13
 -0.144999996      -1.85668256E-12
 -0.142499998      -1.42290281E-12
 -0.140000001       1.53599182E-11
 -0.137500003       8.92890189E-12
 -0.135000005      -6.85357465E-11
 -0.132499993      -5.01175455E-11
 -0.129999995       2.12347487E-10
 -0.127499998       2.13359108E-10
 -0.125000000      -4.88353691E-10
 -0.122500002      -6.90868696E-10
 -0.119999997       8.32462599E-10
 -0.117500000       1.79016524E-09
 -0.115000002      -8.73916495E-10
 -0.112499997      -3.79730114E-09
 -0.109999999      -3.60414587E-10
 -0.107500002       6.39394893E-09
 -0.104999997       4.41389503E-09
 -0.102499999      -7.49497353E-09
 -0.100000001      -1.18402648E-08
  -9.74999964E-02   3.13830562E-09
  -9.49999988E-02   1.93978629E-08
  -9.25000012E-02   9.17891985E-09
  -9.00000036E-02  -1.99506758E-08
  -8.74999985E-02  -2.56794976E-08
  -8.50000009E-02   8.14932122E-09
  -8.25000033E-02   3.72020210E-08
  -7.99999982E-02   1.45083128E-08
  -7.75000006E-02  -3.51064813E-08
  -7.50000030E-02  -4.07595877E-08
  -7.24999979E-02   1.43899399E-08
  -7.00000003E-02   5.92483964E-08
  -6.75000027E-02   2.44538718E-08
  -6.49999976E-02  -5.44508190E-08
  -6.25000000E-02  -6.80973855E-08
  -5.99999987E-02   1.64788538E-08
  -5.75000010E-02   9.06672142E-08
  -5.49999997E-02   4.64722483E-08
  -5.24999984E-02  -6.38204227E-08
  -5.00000007E-02  -9.65227969E-08
  -4.74999994E-02  -1.40609302E-08
  -4.50000018E-02   7.72104798E-08
  -4.25000004E-02   7.20535098E-08
  -3.99999991E-02  -1.74261920E-08
  -3.75000015E-02  -8.09887837E-08
  -3.50000001E-02  -2.52378172E-08
  -3.24999988E-02   1.07859634E-07
  -2.99999993E-02   1.68625462E-07
  -2.74999999E-02   9.77664811E-08
  -2.50000004E-02   2.88018533E-08
  -2.25000009E-02   1.08156826E-07
  -1.99999996E-02   2.89697681E-07
  -1.75000001E-02   4.13576117E-07
  -1.49999997E-02   4.36528779E-07
  -1.25000002E-02   4.86130887E-07
  -9.99999978E-03   6.99269435E-07
  -7.49999983E-03   1.07261349E-06
  -4.99999989E-03   1.49994071E-06
  -2.49999994E-03   1.93317283E-06
   0.00000000       2.45582510E-06
   2.49999994E-03   3.19676201E-06
   4.99999989E-03   4.23541951E-06
   7.49999983E-03   5.59761384E-06
   9.99999978E-03   7.28637269E-06
   1.25000002E-02   9.33896354E-06
   1.49999997E-02   1.19028518E-05
   1.75000001E-02   1.51945324E-05
   1.99999996E-02   1.93564829E-05
   2.25000009E-02   2.44668136E-05
   2.50000004E-02   3.07065930E-05
   2.74999999E-02   3.83840306E-05
   2.99999993E-02   4.77960530E-05
   3.24999988E-02   5.91974931E-05
   3.50000001E-02   7.28956875E-05
   3.75000015E-02   8.92912140E-05
   3.99999991E-02   1.08860440E-04
   4.25000004E-02   1.32130983E-04
   4.50000018E-02   1.59630523E-04
   4.74999994E-02   1.91874307E-04
   5.00000007E-02   2.29436002E-04
   5.24999984E-02   2.72987003E-04
   5.49999997E-02   3.23265354E-04
   5.75000010E-02   3.81043414E-04
   5.99999987E-02   4.47069935E-04
   6.25000000E-02   5.22028189E-04
   6.49999976E-02   6.06633432E-04
   6.75000027E-02   7.01698940E-04
   7.00000003E-02   8.07970820E-04
   7.24999979E-02   9.26026318E-04
   7.50000030E-02   1.05645170E-03
   7.75000006E-02   1.19989854E-03
   7.99999982E-02   1.35687075E-03
   8.25000033E-02   1.52766961E-03
   8.50000009E-02   1.71251246E-03
   8.74999985E-02   1.91146089E-03
   9.00000036E-02   2.12437403E-03
   9.25000012E-02   2.35112198E-03
   9.49999988E-02   2.59157573E-03
   9.74999964E-02   2.84527801E-03
  0.100000001       3.11142066E-03
  0.102499999       3.38915177E-03
  0.104999997       3.67761822E-03
  0.107500002       3.97583470E-03
  0.109999999       4.28273622E-03
  0.112499997       4.59713954E-03
  0.115000002       4.91762161E-03
  0.117500000       5.24273794E-03
  0.119999997       5.57126664E-03
  0.122500002       5.90200303E-03
  0.125000000       6.23355620E-03
  0.127499998       6.56454545E-03
  0.129999995       6.89369440E-03
  0.132499993       7.21978489E-03
  0.135000005       7.54180085E-03
  0.137500003       7.85890780E-03
  0.140000001       8.17014743E-03
  0.142499998       8.47450458E-03
  0.144999996       8.77128169E-03
  0.147499993       9.05995443E-03
  0.150000006       9.33985040E-03
  0.152500004       9.61036142E-03
  0.155000001       9.87109914E-03
  0.157499999       1.01215551E-02
  0.159999996       1.03611015E-02
  0.162499994       1.05893482E-02
  0.165000007       1.08059663E-02
  0.167500004       1.10103302E-02
  0.170000002       1.12017710E-02
  0.172499999       1.13797998E-02
  0.174999997       1.15437862E-02
  0.177499995       1.16929924E-02
  0.180000007       1.18269036E-02
  0.182500005       1.19449692E-02
  0.185000002       1.20463213E-02
  0.187500000       1.21302055E-02
  0.189999998       1.21961953E-02
  0.192499995       1.22438213E-02
  0.194999993       1.22725880E-02
  0.197500005       1.22822495E-02
  0.200000003       1.22726103E-02
  0.202500001       1.22434283E-02
  0.204999998       1.21948523E-02
  0.207499996       1.21273817E-02
  0.209999993       1.20414384E-02
  0.212500006       1.19375056E-02
  0.215000004       1.18164793E-02
  0.217500001       1.16793932E-02
  0.219999999       1.15272515E-02
  0.222499996       1.13614127E-02
  0.224999994       1.11835003E-02
  0.227500007       1.09949168E-02
  0.230000004       1.07970769E-02
  0.232500002       1.05917854E-02
  0.234999999       1.03808520E-02
  0.237499997       1.01658422E-02
  0.239999995       9.94842686E-03
  0.242500007       9.73036233E-03
  0.245000005       9.51312482E-03
  0.247500002       9.29806754E-03
  0.250000000       9.08665266E-03
  0.252499998       8.88015144E-03
  0.254999995       8.67954269E-03
  0.257499993       8.48580524E-03
  0.259999990       8.29983782E-03
  0.262499988       8.12220201E-03
  0.264999986       7.95332808E-03
  0.267500013       7.79367378E-03
  0.270000011       7.64350081E-03
  0.272500008       7.50284782E-03
  0.275000006       7.37174088E-03
  0.277500004       7.25009711E-03
  0.280000001       7.13761058E-03
  0.282499999       7.03401398E-03
  0.284999996       6.93914015E-03
  0.287499994       6.85262121E-03
  0.289999992       6.77391747E-03
  0.292499989       6.70259772E-03
  0.294999987       6.63828850E-03
  0.297500014       6.58051437E-03
  0.300000012       6.52881293E-03
  0.302500010       6.48281770E-03
  0.305000007       6.44213473E-03
  0.307500005       6.40632771E-03
  0.310000002       6.37500314E-03
  0.312500000       6.34781783E-03
  0.314999998       6.32445933E-03
  0.317499995       6.30464964E-03
  0.319999993       6.28810236E-03
  0.322499990       6.27453765E-03
  0.324999988       6.26374129E-03
  0.327499986       6.25550793E-03
  0.330000013       6.24961220E-03
  0.332500011       6.24588691E-03
  0.335000008       6.24420401E-03
  0.337500006       6.24437118E-03
  0.340000004       6.24616724E-03
  0.342500001       6.24942919E-03
  0.344999999       6.25406671E-03
  0.347499996       6.26002578E-03
  0.349999994       6.26719557E-03
  0.352499992       6.27533207E-03
  0.354999989       6.28422992E-03
  0.357499987       6.29387004E-03
  0.360000014       6.30421145E-03
  0.362500012       6.31504133E-03
  0.365000010       6.32622512E-03
  0.367500007       6.33776095E-03
  0.370000005       6.34949422E-03
  0.372500002       6.36120094E-03
  0.375000000       6.37289742E-03
  0.377499998       6.38462184E-03
  0.379999995       6.39615906E-03
  0.382499993       6.40733913E-03
  0.384999990       6.41821930E-03
  0.387499988       6.42875768E-03
  0.389999986       6.43875590E-03
  0.392500013       6.44817716E-03
  0.395000011       6.45708526E-03
  0.397500008       6.46541873E-03
  0.400000006       6.47311611E-03
  0.402500004       6.48017507E-03
  0.405000001       6.48649922E-03
  0.407499999       6.49201823E-03
  0.409999996       6.49681361E-03
  0.412499994       6.50089933E-03
  0.414999992       6.50420226E-03
  0.417499989       6.50678808E-03
  0.419999987       6.50871452E-03
  0.422500014       6.50984095E-03
  0.425000012       6.51013805E-03
  0.427500010       6.50981721E-03
  0.430000007       6.50890870E-03
  0.432500005       6.50725886E-03
  0.435000002       6.50493288E-03
  0.437500000       6.50207838E-03
  0.439999998       6.49862038E-03
  0.442499995       6.49452116E-03
  0.444999993       6.48995722E-03
  0.447499990       6.48498721E-03
  0.449999988       6.47949707E-03
  0.452499986       6.47349097E-03
  0.455000013       6.46703038E-03
  0.457500011       6.46010134E-03
  0.460000008       6.45277370E-03
  0.462500006       6.44514058E-03
  0.465000004       6.43712608E-03
  0.467500001       6.42868970E-03
  0.469999999       6.41993713E-03
  0.472499996       6.41084043E-03
  0.474999994       6.40129251E-03
  0.477499992       6.39140746E-03
  0.479999989       6.38132356E-03
  0.482499987       6.37094164E-03
  0.485000014       6.36020675E-03
  0.487500012       6.34923391E-03
  0.490000010       6.33803010E-03
  0.492500007       6.32655155E-03
  0.495000005       6.31491188E-03
  0.497500002       6.30316045E-03
  0.500000000       6.29121857E-03
  0.502499998       6.27918635E-03
  0.504999995       6.26721745E-03
  0.507499993       6.25522062E-03
  0.509999990       6.24317350E-03
  0.512499988       6.23133453E-03
  0.514999986       6.21979544E-03
  0.517499983       6.20842492E-03
  0.519999981       6.19731331E-03
  0.522499979       6.18665898E-03
  0.524999976       6.17643679E-03
  0.527499974       6.16669795E-03
  0.529999971       6.15769019E-03
  0.532500029       6.14942657E-03
  0.535000026       6.14176551E-03
  0.537500024       6.13485463E-03
  0.540000021       6.12892071E-03
  0.542500019       6.12393487E-03
  0.545000017       6.11988455E-03
  0.547500014       6.11687265E-03
  0.550000012       6.11483678E-03
  0.552500010       6.11371035E-03
  0.555000007       6.11366145E-03
  0.557500005       6.11473713E-03
  0.560000002       6.11672644E-03
  0.562500000       6.11959491E-03
  0.564999998       6.12345058E-03
  0.567499995       6.12813095E-03
  0.569999993       6.13342086E-03
  0.572499990       6.13939064E-03
  0.574999988       6.14607334E-03
  0.577499986       6.15324406E-03
  0.579999983       6.16075331E-03
  0.582499981       6.16859412E-03
  0.584999979       6.17662771E-03
  0.587499976       6.18468830E-03
  0.589999974       6.19280152E-03
  0.592499971       6.20098179E-03
  0.595000029       6.20903866E-03
  0.597500026       6.21677609E-03
  0.600000024       6.22418756E-03
  0.602500021       6.23135874E-03
  0.605000019       6.23829290E-03
  0.607500017       6.24487177E-03
  0.610000014       6.25099568E-03
  0.612500012       6.25668932E-03
  0.615000010       6.26200391E-03
  0.617500007       6.26695156E-03
  0.620000005       6.27157139E-03
  0.622500002       6.27589086E-03
  0.625000000       6.27984665E-03
  0.627499998       6.28345413E-03
  0.629999995       6.28684042E-03
  0.632499993       6.29000319E-03
  0.634999990       6.29289960E-03
  0.637499988       6.29567029E-03
  0.639999986       6.29838789E-03
  0.642499983       6.30088337E-03
  0.644999981       6.30313950E-03
  0.647499979       6.30535185E-03
  0.649999976       6.30751299E-03
  0.652499974       6.30951952E-03
  0.654999971       6.31149625E-03
  0.657500029       6.31346600E-03
  0.660000026       6.31519360E-03
  0.662500024       6.31671678E-03
  0.665000021       6.31828094E-03
  0.667500019       6.31978083E-03
  0.670000017       6.32104510E-03
  0.672500014       6.32225769E-03
  0.675000012       6.32342836E-03
  0.677500010       6.32425258E-03
  0.680000007       6.32485002E-03
  0.682500005       6.32557599E-03
  0.685000002       6.32621441E-03
  0.687500000       6.32646633E-03
  0.689999998       6.32660650E-03
  0.692499995       6.32677600E-03
  0.694999993       6.32668240E-03
  0.697499990       6.32639229E-03
  0.699999988       6.32621115E-03
  0.702499986       6.32592617E-03
  0.704999983       6.32530777E-03
  0.707499981       6.32468285E-03
  0.709999979       6.32416876E-03
  0.712499976       6.32344838E-03
  0.714999974       6.32259948E-03
  0.717499971       6.32191077E-03
  0.720000029       6.32116292E-03
  0.722500026       6.32019807E-03
  0.725000024       6.31935429E-03
  0.727500021       6.31864741E-03
  0.730000019       6.31773937E-03
  0.732500017       6.31681783E-03
  0.735000014       6.31619804E-03
  0.737500012       6.31554751E-03
  0.740000010       6.31463528E-03
  0.742500007       6.31386973E-03
  0.745000005       6.31337427E-03
  0.747500002       6.31278194E-03
  0.750000000       6.31214865E-03
  0.752499998       6.31176447E-03
  0.754999995       6.31139753E-03
  0.757499993       6.31083874E-03
  0.759999990       6.31042197E-03
  0.762499988       6.31029392E-03
  0.764999986       6.31013559E-03
  0.767499983       6.30987110E-03
  0.769999981       6.30970625E-03
  0.772499979       6.30960800E-03
  0.774999976       6.30950695E-03
  0.777499974       6.30953722E-03
  0.779999971       6.30966295E-03
  0.782500029       6.30970066E-03
  0.785000026       6.30973466E-03
  0.787500024       6.30991254E-03
  0.790000021       6.31008018E-03
  0.792500019       6.31015468E-03
  0.795000017       6.31034654E-03
  0.797500014       6.31069113E-03
  0.800000012       6.31094165E-03
  0.802500010       6.31106365E-03
  0.805000007       6.31127460E-03
  0.807500005       6.31159125E-03
  0.810000002       6.31184131E-03
  0.812500000       6.31204713E-03
  0.814999998       6.31233491E-03
  0.817499995       6.31260313E-03
  0.819999993       6.31272374E-03
  0.822499990       6.31287694E-03
  0.824999988       6.31321315E-03
  0.827499986       6.31351443E-03
  0.829999983       6.31361501E-03
  0.832499981       6.31372118E-03
  0.834999979       6.31394098E-03
  0.837499976       6.31408347E-03
  0.839999974       6.31416542E-03
  0.842499971       6.31438382E-03
  0.845000029       6.31458825E-03
  0.847500026       6.31458126E-03
  0.850000024       6.31460315E-03
  0.852500021       6.31478895E-03
  0.855000019       6.31487183E-03
  0.857500017       6.31485227E-03
  0.860000014       6.31498359E-03
  0.862500012       6.31506974E-03
  0.865000010       6.31489605E-03
  0.867500007       6.31483039E-03
  0.870000005       6.31502690E-03
  0.872500002       6.31504087E-03
  0.875000000       6.31485274E-03
  0.877499998       6.31488953E-03
  0.879999995       6.31498080E-03
  0.882499993       6.31477498E-03
  0.884999990       6.31463109E-03
  0.887499988       6.31479174E-03
  0.889999986       6.31479779E-03
  0.892499983       6.31460082E-03
  0.894999981       6.31466182E-03
  0.897499979       6.31482759E-03
  0.899999976       6.31473726E-03
  0.902499974       6.31472841E-03
  0.904999971       6.31498871E-03
  0.907500029       6.31505111E-03
  0.910000026       6.31494820E-03
  0.912500024       6.31518755E-03
  0.915000021       6.31553680E-03
  0.917500019       6.31558243E-03
  0.920000017       6.31571840E-03
  0.922500014       6.31613703E-03
  0.925000012       6.31631492E-03
  0.927500010       6.31628698E-03
  0.930000007       6.31659711E-03
  0.932500005       6.31701155E-03
  0.935000002       6.31708419E-03
  0.937500000       6.31719641E-03
  0.939999998       6.31759083E-03
  0.942499995       6.31779153E-03
  0.944999993       6.31775754E-03
  0.947499990       6.31793868E-03
  0.949999988       6.31819991E-03
  0.952499986       6.31824415E-03
  0.954999983       6.31832937E-03
  0.957499981       6.31852821E-03
  0.959999979       6.31853659E-03
  0.962499976       6.31853193E-03
  0.964999974       6.31878804E-03
  0.967499971       6.31894451E-03
  0.970000029       6.31884299E-03
  0.972500026       6.31893147E-03
  0.975000024       6.31918479E-03
  0.977500021       6.31919550E-03
  0.980000019       6.31922251E-03
  0.982500017       6.31959038E-03
  0.985000014       6.31986372E-03
  0.987500012       6.31984044E-03
  0.990000010       6.32000621E-03
  0.992500007       6.32039458E-03
  0.995000005       6.32059574E-03
  0.997500002       6.32075407E-03
   1.00000000       6.32113637E-03
   1.00250006       6.32146280E-03
   1.00500000       6.32164953E-03
   1.00750005       6.32200483E-03
   1.00999999       6.32243371E-03
   1.01250005       6.32270006E-03
   1.01499999       6.32302789E-03
   1.01750004       6.32346794E-03
   1.01999998       6.32372638E-03
   1.02250004       6.32398436E-03
   1.02499998       6.32456085E-03
   1.02750003       6.32507680E-03
   1.02999997       6.32524909E-03
   1.03250003       6.32553035E-03
   1.03499997       6.32606028E-03
   1.03750002       6.32642629E-03
   1.03999996       6.32671267E-03
   1.04250002       6.32722862E-03
   1.04499996       6.32765237E-03
   1.04750001       6.32779626E-03
   1.04999995       6.32812874E-03
   1.05250001       6.32870710E-03
   1.05499995       6.32905401E-03
   1.05750000       6.32925099E-03
   1.05999994       6.32964540E-03
   1.06250000       6.33002119E-03
   1.06500006       6.33023772E-03
   1.06750000       6.33059535E-03
   1.07000005       6.33100187E-03
   1.07249999       6.33115601E-03
   1.07500005       6.33135857E-03
   1.07749999       6.33181911E-03
   1.08000004       6.33210037E-03
   1.08249998       6.33214647E-03
   1.08500004       6.33243937E-03
   1.08749998       6.33285427E-03
   1.09000003       6.33295998E-03
   1.09249997       6.33303961E-03
   1.09500003       6.33337488E-03
   1.09749997       6.33358583E-03
   1.10000002       6.33362588E-03
   1.10249996       6.33390667E-03
   1.10500002       6.33422937E-03
   1.10749996       6.33420842E-03
   1.11000001       6.33421261E-03
   1.11249995       6.33451948E-03
   1.11500001       6.33471040E-03
   1.11749995       6.33472903E-03
   1.12000000       6.33497396E-03
   1.12249994       6.33521983E-03
   1.12500000       6.33511366E-03
   1.12750006       6.33510435E-03
   1.13000000       6.33547967E-03
   1.13250005       6.33570738E-03
   1.13499999       6.33563800E-03
   1.13750005       6.33574743E-03
   1.13999999       6.33598119E-03
   1.14250004       6.33599004E-03
   1.14499998       6.33604825E-03
   1.14750004       6.33636350E-03
   1.14999998       6.33650506E-03
   1.15250003       6.33639516E-03
   1.15499997       6.33649947E-03
   1.15750003       6.33677514E-03
   1.15999997       6.33684406E-03
   1.16250002       6.33687014E-03
   1.16499996       6.33705268E-03
   1.16750002       6.33712998E-03
   1.16999996       6.33710576E-03
   1.17250001       6.33729482E-03
   1.17499995       6.33751787E-03
   1.17750001       6.33747736E-03
   1.17999995       6.33747736E-03
   1.18250000       6.33773440E-03
   1.18499994       6.33787783E-03
   1.18750000       6.33780984E-03
   1.19000006       6.33790297E-03
   1.19250000       6.33812835E-03
   1.19500005       6.33818610E-03
   1.19749999       6.33822707E-03
   1.20000005       6.33843103E-03
   1.20249999       6.33854466E-03
   1.20500004       6.33849949E-03
   1.20749998       6.33860519E-03
   1.21000004       6.33884454E-03
   1.21249998       6.33892417E-03
   1.21500003       6.33891160E-03
   1.21749997       6.33902475E-03
   1.22000003       6.33917330E-03
   1.22249997       6.33926550E-03
   1.22500002       6.33940147E-03
   1.22749996       6.33954396E-03
   1.23000002       6.33957935E-03
   1.23249996       6.33961288E-03
   1.23500001       6.33976003E-03
   1.23749995       6.33991929E-03
   1.24000001       6.34003384E-03
   1.24249995       6.34018006E-03
   1.24500000       6.34032814E-03
   1.24749994       6.34041009E-03
   1.25000000       6.34050230E-03
   1.25250006       6.34067878E-03
   1.25500000       6.34085247E-03
   1.25750005       6.34096609E-03
   1.25999999       6.34109695E-03
   1.26250005       6.34128088E-03
   1.26499999       6.34145830E-03
   1.26750004       6.34159613E-03
   1.26999998       6.34171721E-03
   1.27250004       6.34185085E-03
   1.27499998       6.34201802E-03
   1.27750003       6.34220429E-03
   1.27999997       6.34237565E-03
   1.28250003       6.34252327E-03
   1.28499997       6.34266622E-03
   1.28750002       6.34283107E-03
   1.28999996       6.34301174E-03
   1.29250002       6.34317286E-03
   1.29499996       6.34331349E-03
   1.29750001       6.34349044E-03
   1.29999995       6.34370372E-03
   1.30250001       6.34388346E-03
   1.30499995       6.34402689E-03
   1.30750000       6.34419499E-03
   1.30999994       6.34437520E-03
   1.31250000       6.34453585E-03
   1.31500006       6.34474540E-03
   1.31750000       6.34500990E-03
   1.32000005       6.34520361E-03
   1.32249999       6.34531025E-03
   1.32500005       6.34545041E-03
   1.32749999       6.34564506E-03
   1.33000004       6.34584995E-03
   1.33249998       6.34608557E-03
   1.33500004       6.34631375E-03
   1.33749998       6.34645484E-03
   1.34000003       6.34658849E-03
   1.34249997       6.34682085E-03
   1.34500003       6.34705042E-03
   1.34749997       6.34718779E-03
   1.35000002       6.34732982E-03
   1.35249996       6.34751469E-03
   1.35500002       6.34769024E-03
   1.35749996       6.34789234E-03
   1.36000001       6.34811679E-03
   1.36249995       6.34824205E-03
   1.36500001       6.34832587E-03
   1.36749995       6.34853216E-03
   1.37000000       6.34874217E-03
   1.37249994       6.34879759E-03
   1.37500000       6.34888047E-03
   1.37750006       6.34910213E-03
   1.38000000       6.34925254E-03
   1.38250005       6.34930236E-03
   1.38499999       6.34944392E-03
   1.38750005       6.34960039E-03
   1.38999999       6.34963298E-03
   1.39250004       6.34970237E-03
   1.39499998       6.34986395E-03
   1.39750004       6.34989841E-03
   1.39999998       6.34987419E-03
   1.40250003       6.35004230E-03
   1.40499997       6.35023182E-03
   1.40750003       6.35022018E-03
   1.40999997       6.35023555E-03
   1.41250002       6.35039620E-03
   1.41499996       6.35045581E-03
   1.41750002       6.35044463E-03
   1.41999996       6.35060063E-03
   1.42250001       6.35077059E-03
   1.42499995       6.35077851E-03
   1.42750001       6.35086652E-03
   1.42999995       6.35109982E-03
   1.43250000       6.35119155E-03
   1.43499994       6.35119481E-03
   1.43750000       6.35137269E-03
   1.44000006       6.35158410E-03
   1.44250000       6.35167165E-03
   1.44500005       6.35184627E-03
   1.44749999       6.35209586E-03
   1.45000005       6.35216199E-03
   1.45249999       6.35221228E-03
   1.45500004       6.35250146E-03
   1.45749998       6.35276176E-03
   1.46000004       6.35280600E-03
   1.46249998       6.35292148E-03
   1.46500003       6.35314826E-03
   1.46749997       6.35322463E-03
   1.47000003       6.35328609E-03
   1.47249997       6.35354640E-03
   1.47500002       6.35372009E-03
   1.47749996       6.35366840E-03
   1.48000002       6.35373779E-03
   1.48249996       6.35396270E-03
   1.48500001       6.35402091E-03
   1.48749995       6.35398785E-03
   1.49000001       6.35410659E-03
   1.49249995       6.35421649E-03
   1.49500000       6.35421509E-03
   1.49749994       6.35431521E-03
   1.50000000       6.35446142E-03
   1.50250006       6.35441951E-03
   1.50500000       6.35435618E-03
   1.50750005       6.35448750E-03
   1.50999999       6.35460299E-03
   1.51250005       6.35459460E-03
   1.51499999       6.35468494E-03
   1.51750004       6.35483535E-03
   1.51999998       6.35480881E-03
   1.52250004       6.35475991E-03
   1.52499998       6.35491870E-03
   1.52750003       6.35509053E-03
   1.52999997       6.35510171E-03
   1.53250003       6.35513896E-03
   1.53499997       6.35529403E-03
   1.53750002       6.35539787E-03
   1.53999996       6.35542721E-03
   1.54250002       6.35552313E-03
   1.54499996       6.35568332E-03
   1.54750001       6.35580905E-03
   1.54999995       6.35589892E-03
   1.55250001       6.35599811E-03
   1.55499995       6.35612337E-03
   1.55750000       6.35626633E-03
   1.55999994       6.35639438E-03
   1.56250000       6.35648798E-03
   1.56500006       6.35658996E-03
   1.56750000       6.35672314E-03
   1.57000005       6.35684747E-03
   1.57249999       6.35694899E-03
   1.57500005       6.35707052E-03
   1.57749999       6.35723583E-03
   1.58000004       6.35740068E-03
   1.58249998       6.35749102E-03
   1.58500004       6.35753339E-03
   1.58749998       6.35765400E-03
   1.59000003       6.35785330E-03
   1.59249997       6.35798136E-03
   1.59500003       6.35806471E-03
   1.59749997       6.35825051E-03
   1.60000002       6.35841116E-03
   1.60249996       6.35838090E-03
   1.60500002       6.35841489E-03
   1.60749996       6.35870686E-03
   1.61000001       6.35890942E-03
   1.61249995       6.35884749E-03
   1.61500001       6.35890104E-03
   1.61749995       6.35915995E-03
   1.62000000       6.35925401E-03
   1.62249994       6.35923212E-03
   1.62500000       6.35940116E-03
   1.62750006       6.35956833E-03
   1.63000000       6.35953853E-03
   1.63250005       6.35961723E-03
   1.63499999       6.35985890E-03
   1.63750005       6.35989662E-03
   1.63999999       6.35983748E-03
   1.64250004       6.36002701E-03
   1.64499998       6.36021793E-03
   1.64750004       6.36018626E-03
   1.64999998       6.36028266E-03
   1.65250003       6.36053178E-03
   1.65499997       6.36052852E-03
   1.65750003       6.36047032E-03
   1.65999997       6.36073435E-03
   1.66250002       6.36093179E-03
   1.66499996       6.36080699E-03
   1.66750002       6.36089453E-03
   1.66999996       6.36125449E-03
   1.67250001       6.36129128E-03
   1.67499995       6.36116089E-03
   1.67750001       6.36139931E-03
   1.67999995       6.36163214E-03
   1.68250000       6.36148686E-03
   1.68499994       6.36151293E-03
   1.68750000       6.36187382E-03
   1.69000006       6.36195857E-03
   1.69250000       6.36182772E-03
   1.69500005       6.36200281E-03
   1.69749999       6.36218535E-03
   1.70000005       6.36204332E-03
   1.70249999       6.36208476E-03
   1.70500004       6.36241538E-03
   1.70749998       6.36242377E-03
   1.71000004       6.36223471E-03
   1.71249998       6.36242842E-03
   1.71500003       6.36266265E-03
   1.71749997       6.36252435E-03
   1.72000003       6.36251597E-03
   1.72249997       6.36280095E-03
   1.72500002       6.36278791E-03
   1.72749996       6.36259466E-03
   1.73000002       6.36279862E-03
   1.73249996       6.36305567E-03
   1.73500001       6.36291550E-03
   1.73749995       6.36286754E-03
   1.74000001       6.36314740E-03
   1.74249995       6.36320794E-03
   1.74500000       6.36306079E-03
   1.74749994       6.36320701E-03
   1.75000000       6.36341469E-03
   1.75250006       6.36332761E-03
   1.75500000       6.36333786E-03
   1.75750005       6.36359304E-03
   1.75999999       6.36363076E-03
   1.76250005       6.36352226E-03
   1.76499999       6.36370340E-03
   1.76750004       6.36391621E-03
   1.76999998       6.36384124E-03
   1.77250004       6.36384683E-03
   1.77499998       6.36407081E-03
   1.77750003       6.36413647E-03
   1.77999997       6.36410946E-03
   1.78250003       6.36429060E-03
   1.78499997       6.36440562E-03
   1.78750002       6.36427850E-03
   1.78999996       6.36433670E-03
   1.79250002       6.36462402E-03
   1.79499996       6.36467105E-03
   1.79750001       6.36455277E-03
   1.79999995       6.36465708E-03
   1.80250001       6.36479538E-03
   1.80499995       6.36473531E-03
   1.80750000       6.36476139E-03
   1.80999994       6.36495603E-03
   1.81250000       6.36501191E-03
   1.81500006       6.36496535E-03
   1.81750000       6.36503519E-03
   1.82000005       6.36507943E-03
   1.82249999       6.36501471E-03
   1.82500005       6.36507291E-03
   1.82749999       6.36524009E-03
   1.83000004       6.36528432E-03
   1.83249998       6.36527035E-03
   1.83500004       6.36531645E-03
   1.83749998       6.36531506E-03
   1.84000003       6.36531087E-03
   1.84249997       6.36545289E-03
   1.84500003       6.36555813E-03
   1.84749997       6.36546779E-03
   1.85000002       6.36544917E-03
   1.85249996       6.36563124E-03
   1.85500002       6.36572856E-03
   1.85749996       6.36567641E-03
   1.86000001       6.36571739E-03
   1.86249995       6.36582822E-03
   1.86500001       6.36582961E-03
   1.86749995       6.36582356E-03
   1.87000000       6.36593392E-03
   1.87249994       6.36603450E-03
   1.87500000       6.36605592E-03
   1.87750006       6.36608945E-03
   1.88000000       6.36614393E-03
   1.88250005       6.36617979E-03
   1.88499999       6.36622962E-03
   1.88750005       6.36628037E-03
   1.88999999       6.36630226E-03
   1.89250004       6.36636047E-03
   1.89499998       6.36644755E-03
   1.89750004       6.36645826E-03
   1.89999998       6.36644894E-03
   1.90250003       6.36655372E-03
   1.90499997       6.36666408E-03
   1.90750003       6.36663521E-03
   1.90999997       6.36660028E-03
   1.91250002       6.36670226E-03
   1.91499996       6.36681728E-03
   1.91750002       6.36683404E-03
   1.91999996       6.36685081E-03
   1.92250001       6.36692066E-03
   1.92499995       6.36695512E-03
   1.92750001       6.36694347E-03
   1.92999995       6.36699144E-03
   1.93250000       6.36711065E-03
   1.93499994       6.36717863E-03
   1.93750000       6.36714697E-03
   1.94000006       6.36713114E-03
   1.94250000       6.36722939E-03
   1.94500005       6.36735372E-03
   1.94749999       6.36736816E-03
   1.95000005       6.36731787E-03
   1.95249999       6.36733370E-03
   1.95500004       6.36741659E-03
   1.95749998       6.36749063E-03
   1.96000004       6.36753533E-03
   1.96249998       6.36755489E-03
   1.96500003       6.36756094E-03
   1.96749997       6.36757631E-03
   1.97000003       6.36761030E-03
   1.97249997       6.36766246E-03
   1.97500002       6.36774534E-03
   1.97749996       6.36780262E-03
   1.98000002       6.36777608E-03