   0.00000000       0.00000000    
   2.49999994E-03   0.00000000    
   4.99999989E-03   0.00000000    
   7.49999983E-03   0.00000000    
   9.99999978E-03   0.00000000    
   1.25000002E-02  -1.40172157E-17
   1.49999997E-02   3.50639585E-16
   1.75000001E-02  -5.46208900E-15
   1.99999996E-02   2.44654337E-14
   2.25000009E-02  -1.55979271E-14
   2.50000004E-02  -1.65632604E-13
   2.74999999E-02   3.18118931E-13
   2.99999993E-02   5.20478463E-13
   3.24999988E-02  -1.76724520E-12
   3.50000001E-02  -7.72975976E-13
   3.75000015E-02   6.45102331E-12
   3.99999991E-02  -1.04614635E-12
   4.25000004E-02  -1.89739439E-11
   4.50000018E-02   1.07985530E-11
   4.74999994E-02   5.01803911E-11
   5.00000007E-02  -3.91370339E-11
   5.24999984E-02  -1.25155830E-10
   5.49999997E-02   9.31526800E-11
   5.75000010E-02   2.89790192E-10
   5.99999987E-02  -1.50855925E-10
   6.25000000E-02  -5.94970462E-10
   6.49999976E-02   1.33132963E-10
   6.75000027E-02   1.04132414E-09
   7.00000003E-02   7.74112996E-11
   7.24999979E-02  -1.52360402E-09
   7.50000030E-02  -5.46422074E-10
   7.75000006E-02   1.86507854E-09
   7.99999982E-02   1.21733734E-09
   8.25000033E-02  -1.93672745E-09
   8.50000009E-02  -1.97616945E-09
   8.74999985E-02   1.67912217E-09
   9.00000036E-02   2.72207590E-09
   9.25000012E-02  -9.90262095E-10
   9.49999988E-02  -3.19616467E-09
   9.74999964E-02  -1.34093445E-10
  0.100000001       2.86884894E-09
  0.102499999       1.10633469E-09
  0.104999997      -1.55002144E-09
  0.107500002      -8.57886984E-10
  0.109999999       1.60593899E-10
  0.112499997      -9.41290046E-10
  0.115000002      -9.21807769E-11
  0.117500000       3.28784178E-09
  0.119999997       1.76582504E-09
  0.122500002      -5.04795405E-09
  0.125000000      -4.82116524E-09
  0.127499998       5.61752778E-09
  0.129999995       8.92713992E-09
  0.132499993      -4.27580726E-09
  0.135000005      -1.29963036E-08
  0.137500003       1.32499045E-09
  0.140000001       1.61250444E-08
  0.142499998       1.43956258E-09
  0.144999996      -2.04665369E-08
  0.147499993      -5.46098633E-09
  0.150000006       2.74949699E-08
  0.152500004       1.65238436E-08
  0.155000001      -3.07464560E-08
  0.157499999      -3.56411931E-08
  0.159999996       1.78638206E-08
  0.162499994       4.71042796E-08
  0.165000007       7.17585680E-09
  0.167500004      -3.36662076E-08
  0.170000002      -8.33679081E-09
  0.172499999       4.20124024E-08
  0.174999997       4.07691694E-08
  0.177499995      -3.67903680E-10
  0.180000007      -5.27830135E-09
  0.182500005       4.07034406E-08
  0.185000002       7.19427860E-08
  0.187500000       6.26507486E-08
  0.189999998       7.19245961E-08
  0.192499995       1.27148326E-07
  0.194999993       1.72443166E-07
  0.197500005       1.91120193E-07
  0.200000003       2.48918667E-07
  0.202500001       3.59891800E-07
  0.204999998       4.63415603E-07
  0.207499996       5.68957091E-07
  0.209999993       7.49503215E-07
  0.212500006       9.93955950E-07
  0.215000004       1.24874896E-06
  0.217500001       1.55697990E-06
  0.219999999       1.98558928E-06
  0.222499996       2.51044230E-06
  0.224999994       3.10788027E-06
  0.227500007       3.83022871E-06
  0.230000004       4.72193824E-06
  0.232500002       5.80732558E-06
  0.234999999       7.14224916E-06
  0.237499997       8.73454519E-06
  0.239999995       1.05240688E-05
  0.242500007       1.25606566E-05
  0.245000005       1.50184505E-05
  0.247500002       1.79633116E-05
  0.250000000       2.13267431E-05
  0.252499998       2.51090878E-05
  0.254999995       2.93887533E-05
  0.257499993       3.42097264E-05
  0.259999990       3.96378055E-05
  0.262499988       4.57745700E-05
  0.264999986       5.26059557E-05
  0.267500013       6.00373678E-05
  0.270000011       6.81036690E-05
  0.272500008       7.69275284E-05
  0.275000006       8.65151524E-05
  0.277500004       9.67750821E-05
  0.280000001       1.07639455E-04
  0.282499999       1.19055752E-04
  0.284999996       1.30982327E-04
  0.287499994       1.43406840E-04
  0.289999992       1.56246228E-04
  0.292499989       1.69302817E-04
  0.294999987       1.82416625E-04
  0.297500014       1.95525441E-04
  0.300000012       2.08523226E-04
  0.302500010       2.21216236E-04
  0.305000007       2.33421481E-04
  0.307500005       2.44978699E-04
  0.310000002       2.55718565E-04
  0.312500000       2.65506096E-04
  0.314999998       2.74235877E-04
  0.317499995       2.81762303E-04
  0.319999993       2.87922361E-04
  0.322499990       2.92609475E-04
  0.324999988       2.95765989E-04
  0.327499986       2.97356368E-04
  0.330000013       2.97383551E-04
  0.332500011       2.95889069E-04
  0.335000008       2.92924145E-04
  0.337500006       2.88527983E-04
  0.340000004       2.82752531E-04
  0.342500001       2.75761297E-04
  0.344999999       2.67867057E-04
  0.347499996       2.59366410E-04
  0.349999994       2.50424229E-04
  0.352499992       2.41251139E-04
  0.354999989       2.32235456E-04
  0.357499987       2.23785013E-04
  0.360000014       2.16260014E-04
  0.362500012       2.10115133E-04
  0.365000010       2.05847973E-04
  0.367500007       2.03841686E-04
  0.370000005       2.04502765E-04
  0.372500002       2.08413228E-04
  0.375000000       2.16150496E-04
  0.377499998       2.28170058E-04
  0.379999995       2.44952942E-04
  0.382499993       2.67020107E-04
  0.384999990       2.94837664E-04
  0.387499988       3.28892347E-04
  0.389999986       3.69669957E-04
  0.392500013       4.17472183E-04
  0.395000011       4.72533808E-04
  0.397500008       5.35248138E-04
  0.400000006       6.05920271E-04
  0.402500004       6.84499566E-04
  0.405000001       7.70865881E-04
  0.407499999       8.65035166E-04
  0.409999996       9.66871565E-04
  0.412499994       1.07598165E-03
  0.414999992       1.19192596E-03
  0.417499989       1.31416251E-03
  0.419999987       1.44190621E-03
  0.422500014       1.57433120E-03
  0.425000012       1.71066204E-03
  0.427500010       1.84992806E-03
  0.430000007       1.99095532E-03
  0.432500005       2.13260367E-03
  0.435000002       2.27374467E-03
  0.437500000       2.41317507E-03
  0.439999998       2.54972815E-03
  0.442499995       2.68226978E-03
  0.444999993       2.80961092E-03
  0.447499990       2.93065631E-03
  0.449999988       3.04450723E-03
  0.452499986       3.15028429E-03
  0.455000013       3.24715418E-03
  0.457500011       3.33455647E-03
  0.460000008       3.41206486E-03
  0.462500006       3.47919064E-03
  0.465000004       3.53560713E-03
  0.467500001       3.58127942E-03
  0.469999999       3.61624057E-03
  0.472499996       3.64059419E-03
  0.474999994       3.65467859E-03
  0.477499992       3.65885836E-03
  0.479999989       3.65336821E-03
  0.482499987       3.63860559E-03
  0.485000014       3.61522450E-03
  0.487500012       3.58384522E-03
  0.490000010       3.54502699E-03
  0.492500007       3.49941943E-03
  0.495000005       3.44763603E-03
  0.497500002       3.39019438E-03
  0.500000000       3.32771055E-03
  0.502499998       3.26085417E-03
  0.504999995       3.19018075E-03
  0.507499993       3.11628636E-03
  0.509999990       3.03984620E-03
  0.512499988       2.96133198E-03
  0.514999986       2.88109388E-03
  0.517499983       2.79969536E-03
  0.519999981       2.71775853E-03
  0.522499979       2.63571925E-03
  0.524999976       2.55402620E-03
  0.527499974       2.47318321E-03
  0.529999971       2.39349599E-03
  0.532500029       2.31524277E-03
  0.535000026       2.23894441E-03
  0.537500024       2.16504419E-03
  0.540000021       2.09370279E-03
  0.542500019       2.02515768E-03
  0.545000017       1.95976370E-03
  0.547500014       1.89765147E-03
  0.550000012       1.83888781E-03
  0.552500010       1.78372872E-03
  0.555000007       1.73228933E-03
  0.557500005       1.68443250E-03
  0.560000002       1.64017233E-03
  0.562500000       1.59961043E-03
  0.564999998       1.56257011E-03
  0.567499995       1.52885390E-03
  0.569999993       1.49849441E-03
  0.572499990       1.47135160E-03
  0.574999988       1.44704664E-03
  0.577499986       1.42543344E-03
  0.579999983       1.40647625E-03
  0.582499981       1.38984295E-03
  0.584999979       1.37523410E-03
  0.587499976       1.36264774E-03
  0.589999974       1.35189982E-03
  0.592499971       1.34255365E-03
  0.595000029       1.33447349E-03
  0.597500026       1.32770860E-03
  0.600000024       1.32199388E-03
  0.602500021       1.31703331E-03
  0.605000019       1.31286390E-03
  0.607500017       1.30944641E-03
  0.610000014       1.30648981E-03
  0.612500012       1.30390516E-03
  0.615000010       1.30179001E-03
  0.617500007       1.30001386E-03
  0.620000005       1.29838905E-03
  0.622500002       1.29697076E-03
  0.625000000       1.29579252E-03
  0.627499998       1.29472371E-03
  0.629999995       1.29374338E-03
  0.632499993       1.29289785E-03
  0.634999990       1.29206863E-03
  0.637499988       1.29117875E-03
  0.639999986       1.29035639E-03
  0.642499983       1.28963089E-03
  0.644999981       1.28884509E-03
  0.647499979       1.28795963E-03
  0.649999976       1.28705031E-03
  0.652499974       1.28609047E-03
  0.654999971       1.28505100E-03
  0.657500029       1.28399930E-03
  0.660000026       1.28290150E-03
  0.662500024       1.28162908E-03
  0.665000021       1.28021836E-03
  0.667500019       1.27880659E-03
  0.670000017       1.27736991E-03
  0.672500014       1.27580320E-03
  0.675000012       1.27413066E-03
  0.677500010       1.27243239E-03
  0.680000007       1.27070548E-03
  0.682500005       1.26891932E-03
  0.685000002       1.26709195E-03
  0.687500000       1.26526225E-03
  0.689999998       1.26344652E-03
  0.692499995       1.26163138E-03
  0.694999993       1.25981041E-03
  0.697499990       1.25801866E-03
  0.699999988       1.25628582E-03
  0.702499986       1.25459291E-03
  0.704999983       1.25293981E-03
  0.707499981       1.25136320E-03
  0.709999979       1.24984176E-03
  0.712499976       1.24832324E-03
  0.714999974       1.24684989E-03
  0.717499971       1.24548620E-03
  0.720000029       1.24419271E-03
  0.722500026       1.24293787E-03
  0.725000024       1.24177767E-03
  0.727500021       1.24068686E-03
  0.730000019       1.23955531E-03
  0.732500017       1.23842875E-03
  0.735000014       1.23745331E-03
  0.737500012       1.23659219E-03
  0.740000010       1.23571942E-03
  0.742500007       1.23486808E-03
  0.745000005       1.23408379E-03
  0.747500002       1.23327877E-03
  0.750000000       1.23246911E-03
  0.752499998       1.23180763E-03
  0.754999995       1.23125315E-03
  0.757499993       1.23061694E-03
  0.759999990       1.22992659E-03
  0.762499988       1.22932682E-03
  0.764999986       1.22877012E-03
  0.767499983       1.22818071E-03
  0.769999981       1.22764823E-03
  0.772499979       1.22718886E-03
  0.774999976       1.22667407E-03
  0.777499974       1.22611423E-03
  0.779999971       1.22563238E-03
  0.782500029       1.22520793E-03
  0.785000026       1.22477883E-03
  0.787500024       1.22439128E-03
  0.790000021       1.22403959E-03
  0.792500019       1.22366473E-03
  0.795000017       1.22335483E-03
  0.797500014       1.22318568E-03
  0.800000012       1.22302782E-03
  0.802500010       1.22283038E-03
  0.805000007       1.22274866E-03
  0.807500005       1.22279173E-03
  0.810000002       1.22282421E-03
  0.812500000       1.22293283E-03
  0.814999998       1.22324936E-03
  0.817499995       1.22359768E-03
  0.819999993       1.22383609E-03
  0.822499990       1.22416776E-03
  0.824999988       1.22471864E-03
  0.827499986       1.22532144E-03
  0.829999983       1.22591830E-03
  0.832499981       1.22661318E-03
  0.834999979       1.22733822E-03
  0.837499976       1.22798851E-03
  0.839999974       1.22867897E-03
  0.842499971       1.22949120E-03
  0.845000029       1.23030518E-03
  0.847500026       1.23106246E-03
  0.850000024       1.23180670E-03
  0.852500021       1.23250077E-03
  0.855000019       1.23313454E-03
  0.857500017       1.23379217E-03
  0.860000014       1.23443396E-03
  0.862500012       1.23495073E-03
  0.865000010       1.23541278E-03
  0.867500007       1.23589567E-03
  0.870000005       1.23628625E-03
  0.872500002       1.23656902E-03
  0.875000000       1.23689696E-03
  0.877499998       1.23723235E-03
  0.879999995       1.23741478E-03
  0.882499993       1.23753597E-03
  0.884999990       1.23774307E-03
  0.887499988       1.23793015E-03
  0.889999986       1.23802468E-03
  0.892499983       1.23816344E-03
  0.894999981       1.23835390E-03
  0.897499979       1.23845646E-03
  0.899999976       1.23851490E-03
  0.902499974       1.23864657E-03
  0.904999971       1.23879523E-03
  0.907500029       1.23892247E-03
  0.910000026       1.23910024E-03
  0.912500024       1.23927498E-03
  0.915000021       1.23935030E-03
  0.917500019       1.23942853E-03
  0.920000017       1.23960187E-03
  0.922500014       1.23976648E-03
  0.925000012       1.23987265E-03
  0.927500010       1.23998511E-03
  0.930000007       1.24006707E-03
  0.932500005       1.24009734E-03
  0.935000002       1.24020362E-03
  0.937500000       1.24037091E-03
  0.939999998       1.24041166E-03
  0.942499995       1.24036812E-03
  0.944999993       1.24042586E-03
  0.947499990       1.24050153E-03
  0.949999988       1.24046172E-03
  0.952499986       1.24044844E-03
  0.954999983       1.24052714E-03
  0.957499981       1.24050525E-03
  0.959999979       1.24037627E-03
  0.962499976       1.24033086E-03
  0.964999974       1.24029885E-03
  0.967499971       1.24012632E-03
  0.970000029       1.23997661E-03
  0.972500026       1.23997184E-03
  0.975000024       1.23988907E-03
  0.977500021       1.23962609E-03
  0.980000019       1.23938383E-03
  0.982500017       1.23921328E-03
  0.985000014       1.23899593E-03
  0.987500012       1.23877916E-03
  0.990000010       1.23859593E-03
  0.992500007       1.23830221E-03
  0.995000005       1.23793026E-03
  0.997500002       1.23767206E-03
   1.00000000       1.23744272E-03
   1.00250006       1.23707473E-03
   1.00500000       1.23671349E-03
   1.00750005       1.23645423E-03
   1.00999999       1.23609719E-03
   1.01250005       1.23563514E-03
   1.01499999       1.23529229E-03
   1.01750004       1.23499485E-03
   1.01999998       1.23455329E-03
   1.02250004       1.23411661E-03
   1.02499998       1.23379065E-03
   1.02750003       1.23336131E-03
   1.02999997       1.23282883E-03
   1.03250003       1.23244710E-03
   1.03499997       1.23213266E-03
   1.03750002       1.23165862E-03
   1.03999996       1.23117422E-03
   1.04250002       1.23081368E-03
   1.04499996       1.23037607E-03
   1.04750001       1.22986315E-03
   1.04999995       1.22952275E-03
   1.05250001       1.22923660E-03
   1.05499995       1.22874463E-03
   1.05750000       1.22822286E-03
   1.05999994       1.22787373E-03
   1.06250000       1.22751598E-03
   1.06500006       1.22707931E-03
   1.06750000       1.22673204E-03
   1.07000005       1.22639199E-03
   1.07249999       1.22591062E-03
   1.07500005       1.22548162E-03
   1.07749999       1.22520537E-03
   1.08000004       1.22484297E-03
   1.08249998       1.22438557E-03
   1.08500004       1.22407067E-03
   1.08749998       1.22380187E-03
   1.09000003       1.22337404E-03
   1.09249997       1.22295669E-03
   1.09500003       1.22267951E-03
   1.09749997       1.22235180E-03
   1.10000002       1.22197089E-03
   1.10249996       1.22172735E-03
   1.10500002       1.22148753E-03
   1.10749996       1.22106262E-03
   1.11000001       1.22066785E-03
   1.11249995       1.22046540E-03
   1.11500001       1.22023269E-03
   1.11749995       1.21988379E-03
   1.12000000       1.21960009E-03
   1.12249994       1.21935422E-03
   1.12500000       1.21901138E-03
   1.12750006       1.21869694E-03
   1.13000000       1.21850101E-03
   1.13250005       1.21825619E-03
   1.13499999       1.21793442E-03
   1.13750005       1.21769949E-03
   1.13999999       1.21750147E-03
   1.14250004       1.21720170E-03
   1.14499998       1.21692196E-03
   1.14750004       1.21677143E-03
   1.14999998       1.21658843E-03
   1.15250003       1.21629646E-03
   1.15499997       1.21605815E-03
   1.15750003       1.21590646E-03
   1.15999997       1.21570262E-03
   1.16250002       1.21546665E-03
   1.16499996       1.21531449E-03
   1.16750002       1.21517852E-03
   1.16999996       1.21495407E-03
   1.17250001       1.21472857E-03
   1.17499995       1.21459377E-03
   1.17750001       1.21446012E-03
   1.17999995       1.21425721E-03
   1.18250000       1.21406408E-03
   1.18499994       1.21391448E-03
   1.18750000       1.21373893E-03
   1.19000006       1.21355162E-03
   1.19250000       1.21342018E-03
   1.19500005       1.21328363E-03
   1.19749999       1.21307652E-03
   1.20000005       1.21288269E-03
   1.20249999       1.21272600E-03
   1.20500004       1.21250201E-03
   1.20749998       1.21226523E-03
   1.21000004       1.21216045E-03
   1.21249998       1.21206406E-03
   1.21500003       1.21179945E-03
   1.21749997       1.21151865E-03
   1.22000003       1.21136720E-03
   1.22249997       1.21118198E-03
   1.22500002       1.21091632E-03
   1.22749996       1.21076265E-03
   1.23000002       1.21066743E-03
   1.23249996       1.21043110E-03
   1.23500001       1.21018314E-03
   1.23749995       1.21007953E-03
   1.24000001       1.20994379E-03
   1.24249995       1.20971748E-03
   1.24500000       1.20960339E-03
   1.24749994       1.20955030E-03
   1.25000000       1.20937533E-03
   1.25250006       1.20923156E-03
   1.25500000       1.20923307E-03
   1.25750005       1.20914751E-03
   1.25999999       1.20895356E-03
   1.26250005       1.20890187E-03
   1.26499999       1.20889628E-03
   1.26750004       1.20871747E-03
   1.26999998       1.20856403E-03
   1.27250004       1.20858010E-03
   1.27499998       1.20850757E-03
   1.27750003       1.20830582E-03
   1.27999997       1.20821327E-03
   1.28250003       1.20813283E-03
   1.28499997       1.20789057E-03
   1.28750002       1.20770955E-03
   1.28999996       1.20767287E-03
   1.29250002       1.20748882E-03
   1.29499996       1.20717299E-03
   1.29750001       1.20700104E-03
   1.29999995       1.20686425E-03
   1.30250001       1.20658404E-03
   1.30499995       1.20634853E-03
   1.30750000       1.20619475E-03
   1.30999994       1.20588986E-03
   1.31250000       1.20554166E-03
   1.31500006       1.20537507E-03
   1.31750000       1.20518776E-03
   1.32000005       1.20484491E-03
   1.32249999       1.20459683E-03
   1.32500005       1.20444293E-03
   1.32749999       1.20414351E-03
   1.33000004       1.20384863E-03
   1.33249998       1.20373210E-03
   1.33500004       1.20353012E-03
   1.33749998       1.20319193E-03
   1.34000003       1.20305282E-03
   1.34249997       1.20303198E-03
   1.34500003       1.20279856E-03
   1.34749997       1.20254257E-03
   1.35000002       1.20250124E-03
   1.35249996       1.20240753E-03
   1.35500002       1.20218261E-03
   1.35749996       1.20213605E-03
   1.36000001       1.20217702E-03
   1.36249995       1.20200473E-03
   1.36500001       1.20184221E-03
   1.36749995       1.20191369E-03
   1.37000000       1.20191299E-03
   1.37249994       1.20173639E-03
   1.37500000       1.20170566E-03
   1.37750006       1.20177597E-03
   1.38000000       1.20165653E-03
   1.38250005       1.20151206E-03
   1.38499999       1.20156037E-03
   1.38750005       1.20157725E-03
   1.38999999       1.20145048E-03
   1.39250004       1.20139751E-03
   1.39499998       1.20141520E-03
   1.39750004       1.20134582E-03
   1.39999998       1.20128586E-03
   1.40250003       1.20129809E-03
   1.40499997       1.20123359E-03
   1.40750003       1.20113068E-03
   1.40999997       1.20114035E-03
   1.41250002       1.20114873E-03
   1.41499996       1.20105967E-03
   1.41750002       1.20102183E-03
   1.41999996       1.20103045E-03
   1.42250001       1.20093010E-03
   1.42499995       1.20083860E-03
   1.42750001       1.20090658E-03
   1.42999995       1.20094768E-03
   1.43250000       1.20083906E-03
   1.43499994       1.20076910E-03
   1.43750000       1.20079715E-03
   1.44000006       1.20078376E-03
   1.44250000       1.20075804E-03
   1.44500005       1.20080239E-03
   1.44749999       1.20082439E-03
   1.45000005       1.20079692E-03
   1.45249999       1.20082812E-03
   1.45500004       1.20088749E-03
   1.45749998       1.20089285E-03
   1.46000004       1.20092370E-03
   1.46249998       1.20101403E-03
   1.46500003       1.20105885E-03
   1.46749997       1.20107504E-03
   1.47000003       1.20115909E-03
   1.47249997       1.20124710E-03
   1.47500002       1.20127946E-03
   1.47749996       1.20134628E-03
   1.48000002       1.20144989E-03
   1.48249996       1.20148808E-03
   1.48500001       1.20151497E-03
   1.48749995       1.20162661E-03
   1.49000001       1.20173628E-03
   1.49249995       1.20177702E-03
   1.49500000       1.20184943E-03
   1.49749994       1.20197213E-03
   1.50000000       1.20204221E-03
   1.50250006       1.20208017E-03
   1.50500000       1.20217795E-03
   1.50750005       1.20229961E-03
   1.50999999       1.20238832E-03
   1.51250005       1.20248704E-03
   1.51499999       1.20260555E-03
   1.51750004       1.20268809E-03
   1.51999998       1.20275060E-03
   1.52250004       1.20284723E-03
   1.52499998       1.20295782E-03
   1.52750003       1.20305154E-03
   1.52999997       1.20314478E-03
   1.53250003       1.20323128E-03
   1.53499997       1.20328914E-03
   1.53750002       1.20335224E-03
   1.53999996       1.20346004E-03
   1.54250002       1.20357319E-03
   1.54499996       1.20363489E-03
   1.54750001       1.20367389E-03
   1.54999995       1.20375946E-03
   1.55250001       1.20388740E-03
   1.55499995       1.20398658E-03
   1.55750000       1.20404083E-03
   1.55999994       1.20411022E-03
   1.56250000       1.20421581E-03
   1.56500006       1.20431953E-03
   1.56750000       1.20442081E-03
   1.57000005       1.20453956E-03
   1.57249999       1.20464026E-03
   1.57500005       1.20470580E-03
   1.57749999       1.20480207E-03
   1.58000004       1.20495330E-03
   1.58249998       1.20508589E-03
   1.58500004       1.20517565E-03
   1.58749998       1.20527891E-03
   1.59000003       1.20540953E-03
   1.59249997       1.20554224E-03
   1.59500003       1.20567705E-03
   1.59749997       1.20579789E-03
   1.60000002       1.20588543E-03
   1.60249996       1.20598741E-03
   1.60500002       1.20613002E-03
   1.60749996       1.20625307E-03
   1.61000001       1.20635016E-03
   1.61249995       1.20648753E-03
   1.61500001       1.20662863E-03
   1.61749995       1.20669580E-03
   1.62000000       1.20676181E-03
   1.62249994       1.20690756E-03
   1.62500000       1.20703899E-03
   1.62750006       1.20709988E-03
   1.63000000       1.20721012E-03
   1.63250005       1.20739476E-03
   1.63499999       1.20749325E-03
   1.63750005       1.20747788E-03
   1.63999999       1.20753050E-03
   1.64250004       1.20771700E-03
   1.64499998       1.20788696E-03
   1.64750004       1.20795052E-03
   1.64999998       1.20799604E-03
   1.65250003       1.20809360E-03
   1.65499997       1.20819698E-03
   1.65750003       1.20828231E-03
   1.65999997       1.20840699E-03
   1.66250002       1.20855530E-03
   1.66499996       1.20861724E-03
   1.66750002       1.20861141E-03
   1.66999996       1.20870245E-03
   1.67250001       1.20890734E-03
   1.67499995       1.20904890E-03
   1.67750001       1.20907079E-03
   1.67999995       1.20911060E-03
   1.68250000       1.20923633E-03
   1.68499994       1.20937708E-03
   1.68750000       1.20949233E-03
   1.69000006       1.20959897E-03
   1.69250000       1.20970479E-03
   1.69500005       1.20981899E-03
   1.69749999       1.20993669E-03
   1.70000005       1.21003366E-03
   1.70249999       1.21014961E-03
   1.70500004       1.21033727E-03
   1.70749998       1.21051737E-03
   1.71000004       1.21061015E-03
   1.71249998       1.21071609E-03
   1.71500003       1.21090771E-03
   1.71749997       1.21106068E-03
   1.72000003       1.21113169E-03
   1.72249997       1.21127395E-03
   1.72500002       1.21150259E-03
   1.72749996       1.21165300E-03
   1.73000002       1.21172785E-03
   1.73249996       1.21186301E-03
   1.73500001       1.21202180E-03
   1.73749995       1.21211237E-03
   1.74000001       1.21221517E-03
   1.74249995       1.21237547E-03
   1.74500000       1.21247151E-03
   1.74749994       1.21249375E-03
   1.75000000       1.21260190E-03
   1.75250006       1.21280132E-03
   1.75500000       1.21293124E-03
   1.75750005       1.21297315E-03
   1.75999999       1.21304090E-03
   1.76250005       1.21314009E-03
   1.76499999       1.21321669E-03
   1.76750004       1.21332100E-03
   1.76999998       1.21350389E-03
   1.77250004       1.21367839E-03
   1.77499998       1.21375022E-03
   1.77750003       1.21377374E-03
   1.77999997       1.21386268E-03
   1.78250003       1.21402682E-03
   1.78499997       1.21419330E-03
   1.78750002       1.21432869E-03
   1.78999996       1.21444918E-03
   1.79250002       1.21454871E-03
   1.79499996       1.21462112E-03
   1.79750001       1.21471740E-03
   1.79999995       1.21487817E-03
   1.80250001       1.21504709E-03
   1.80499995       1.21514872E-03
   1.80750000       1.21521065E-03
   1.80999994       1.21531123E-03
   1.81250000       1.21545629E-03
   1.81500006       1.21558283E-03
   1.81750000       1.21566467E-03
   1.82000005       1.21575256E-03
   1.82249999       1.21587887E-03
   1.82500005       1.21599005E-03
   1.82749999       1.21605257E-03
   1.83000004       1.21614465E-03
   1.83249998       1.21631240E-03
   1.83500004       1.21644873E-03
   1.83749998       1.21648575E-03
   1.84000003       1.21654186E-03
   1.84249997       1.21669122E-03
   1.84500003       1.21682475E-03
   1.84749997       1.21689436E-03
   1.85000002       1.21700834E-03
   1.85249996       1.21717423E-03
   1.85500002       1.21727132E-03
   1.85749996       1.21732114E-03
   1.86000001       1.21744699E-03
   1.86249995       1.21760392E-03
   1.86500001       1.21767214E-03
   1.86749995       1.21770974E-03
   1.87000000       1.21783558E-03
   1.87249994       1.21800043E-03
   1.87500000       1.21809635E-03
   1.87750006       1.21814560E-03
   1.88000000       1.21822348E-03
   1.88250005       1.21832802E-03
   1.88499999       1.21842278E-03
   1.88750005       1.21850299E-03
   1.88999999       1.21857785E-03
   1.89250004       1.21865340E-03
   1.89499998       1.21874013E-03
   1.89750004       1.21883338E-03
   1.89999998       1.21891184E-03
   1.90250003       1.21897471E-03
   1.90499997       1.21904642E-03
   1.90750003       1.21913815E-03
   1.90999997       1.21923815E-03
   1.91250002       1.21933187E-03
   1.91499996       1.21940672E-03
   1.91750002       1.21947099E-03
   1.91999996       1.21956319E-03
   1.92250001       1.21968053E-03
   1.92499995       1.21975178E-03
   1.92750001       1.21977227E-03
   1.92999995       1.21984864E-03
   1.93250000       1.22000196E-03
   1.93499994       1.22011104E-03
   1.93750000       1.22014480E-03
   1.94000006       1.22019975E-03
   1.94250000       1.22027262E-03
   1.94500005       1.22029451E-03
   1.94749999       1.22033863E-03
   1.95000005       1.22047262E-03
   1.95249999       1.22057030E-03
   1.95500004       1.22056261E-03
   1.95749998       1.22059335E-03
   1.96000004       1.22070301E-03
   1.96249998       1.22074282E-03
   1.96500003       1.22072548E-03
   1.96749997       1.22080732E-03
   1.97000003       1.22093444E-03
   1.97249997       1.22095947E-03
   1.97500002       1.22096541E-03
   1.97749996       1.22106553E-03
   1.98000002       1.22115330E-03
   1.98249996       1.22116192E-03
   1.98500001       1.22121105E-03
   1.98749995       1.22131896E-03
   1.99000001       1.22136273E-03
   1.99249995       1.22136471E-03
   1.99500000       1.22143864E-03
   1.99749994       1.22153887E-03
   2.00000000       1.22157065E-03
   2.00250006       1.22158043E-03
   2.00500011       1.22163049E-03
   2.00749993       1.22168800E-03
   2.00999999       1.22173293E-03
   2.01250005       1.22178439E-03
   2.01500010       1.22182432E-03
   2.01749992       1.22184306E-03
   2.01999998       1.22187042E-03
   2.02250004       1.22189813E-03
   2.02500010       1.22190348E-03
   2.02749991       1.22193445E-03
   2.02999997       1.22201804E-03
   2.03250003       1.22207426E-03
   2.03500009       1.22205960E-03
   2.03749990       1.22205471E-03
   2.03999996       1.22210872E-03
   2.04250002       1.22215995E-03
   2.04500008       1.22218358E-03
   2.04749990       1.22223375E-03
   2.04999995       1.22229813E-03
   2.05250001       1.22230418E-03
   2.05500007       1.22228207E-03
   2.05749989       1.22232363E-03
   2.05999994       1.22239848E-03
   2.06250000       1.22241676E-03
   2.06500006       1.22242037E-03
   2.06750011       1.22248160E-03
   2.06999993       1.22251839E-03
   2.07249999       1.22246123E-03
   2.07500005       1.22243923E-03
   2.07750010       1.22254551E-03
   2.07999992       1.22263760E-03
   2.08249998       1.22260547E-03
   2.08500004       1.22255925E-03
   2.08750010       1.22258032E-03
   2.08999991       1.22259941E-03
   2.09249997       1.22260291E-03
   2.09500003       1.22264493E-03
   2.09750009       1.22267741E-03
   2.09999990       1.22264738E-03
   2.10249996       1.22262794E-03
   2.10500002       1.22266670E-03
   2.10750008       1.22270593E-03
   2.10999990       1.22272142E-03
   2.11249995       1.22273341E-03
   2.11500001       1.22272584E-03
   2.11750007       1.22272060E-03
   2.11999989       1.22277124E-03
   2.12249994       1.22282212E-03
   2.12500000       1.22280174E-03
   2.12750006       1.22278417E-03
   2.13000011       1.22282514E-03
   2.13249993       1.22283795E-03
   2.13499999       1.22280861E-03
   2.13750005       1.22283574E-03
   2.14000010       1.22288731E-03