  -10.00000        1.0000000E-24
  -9.900000        1.0000000E-24
  -9.800000        1.0037902E-18
  -9.700000        2.8406056E-18
  -9.600000        2.9998718E-18
  -9.500000       -1.8803743E-18
  -9.400000       -1.2409359E-17
  -9.300000       -2.3285116E-17
  -9.200000       -2.3265695E-17
  -9.100000        7.4857121E-19
  -9.000000        5.6570287E-17
  -8.900000        1.3885019E-16
  -8.800000        2.2345396E-16
  -8.700000        2.6731833E-16
  -8.600000        2.1615255E-16
  -8.500000        1.9518233E-17
  -8.400000       -3.5118028E-16
  -8.300000       -8.8870697E-16
  -8.200000       -1.5453729E-15
  -8.100000       -2.2382117E-15
  -8.000000       -2.8596429E-15
  -7.900000       -3.2883113E-15
  -7.800000       -3.3977795E-15
  -7.700000       -3.0646641E-15
  -7.600000       -2.1793330E-15
  -7.500000       -6.6084214E-16
  -7.400000        1.5245912E-15
  -7.300000        4.3436553E-15
  -7.200000        7.6770831E-15
  -7.100000        1.1305301E-14
  -7.000000        1.4903670E-14
  -6.900000        1.8053008E-14
  -6.800000        2.0268939E-14
  -6.700000        2.1049023E-14
  -6.600000        1.9932495E-14
  -6.500000        1.6565993E-14
  -6.400000        1.0769382E-14
  -6.300000        2.5957437E-15
  -6.200000       -7.6228078E-15
  -6.100000       -1.9255070E-14
  -6.000000       -3.1387558E-14
  -5.900000       -4.2882812E-14
  -5.800000       -5.2473041E-14
  -5.700000       -5.8873493E-14
  -5.600000       -6.0896519E-14
  -5.500000       -5.7551410E-14
  -5.400000       -4.8124024E-14
  -5.300000       -3.2240398E-14
  -5.200000       -9.9259454E-15
  -5.100000        1.8326479E-14
  -5.000000        5.1472837E-14
  -4.900000        8.7827213E-14
  -4.800000        1.2499279E-13
  -4.700000        1.5985917E-13
  -4.600000        1.8871189E-13
  -4.500000        2.0748296E-13
  -4.400000        2.1213832E-13
  -4.300000        1.9916116E-13
  -4.200000        1.6606151E-13
  -4.100000        1.1183074E-13
  -4.000000        3.7265465E-14
  -3.900000       -5.4893366E-14
  -3.800000       -1.6002993E-13
  -3.700000       -2.7192392E-13
  -3.600000       -3.8318711E-13
  -3.500000       -4.8581625E-13
  -3.400000       -5.7180828E-13
  -3.300000       -6.3378800E-13
  -3.200000       -6.6560353E-13
  -3.100000       -6.6284760E-13
  -3.000000       -6.2326430E-13
  -2.900000       -5.4700434E-13
  -2.800000       -4.3670376E-13
  -2.700000       -2.9737625E-13
  -2.600000       -1.3613261E-13
  -2.500000        3.8246583E-14
  -2.400000        2.1584538E-13
  -2.300000        3.8621325E-13
  -2.200000        5.3899273E-13
  -2.100000        6.6454112E-13
  -2.000000        7.5452069E-13
  -1.900000        8.0243348E-13
  -1.800000        8.0407735E-13
  -1.700000        7.5789245E-13
  -1.600000        6.6516107E-13
  -1.500000        5.3002887E-13
  -1.400000        3.5932553E-13
  -1.300000        1.6218815E-13
  -1.200000       -5.0487646E-14
  -1.100000       -2.6672273E-13
  -1.000000       -4.7420238E-13
 -0.9000000       -6.6104191E-13
 -0.8000000       -8.1652306E-13
 -0.7000000       -9.3176356E-13
 -0.6000000       -1.0002883E-12
 -0.5000000       -1.0184766E-12
 -0.4000000       -9.8585419E-13
 -0.3000000       -9.0519448E-13
 -0.2000000       -7.8239769E-13
 -0.1000000       -6.2612480E-13
  0.0000000E+00   -4.4719212E-13
  0.1000000       -2.5776798E-13
  0.2000000       -7.0445779E-14
  0.3000000        1.0270961E-13
  0.4000000        2.5104051E-13
  0.5000000        3.6601343E-13
  0.6000000        4.4171581E-13
  0.7000000        4.7510964E-13
  0.8000000        4.6605271E-13
  0.9000000        4.1712318E-13
   1.000000        3.3329559E-13
   1.100000        2.2151368E-13
   1.200000        9.0199190E-14
   1.300000       -5.1275234E-14
   1.400000       -1.9312563E-13
   1.500000       -3.2568910E-13
   1.600000       -4.3993205E-13
   1.700000       -5.2792043E-13
   1.800000       -5.8324206E-13
   1.900000       -6.0137225E-13
   2.000000       -5.7996956E-13
   2.100000       -5.1908239E-13
   2.200000       -4.2124133E-13
   2.300000       -2.9140769E-13
   2.400000       -1.3675523E-13
   2.500000        3.3724339E-14
   2.600000        2.0977839E-13
   2.700000        3.8057166E-13
   2.800000        5.3542067E-13
   2.900000        6.6450930E-13
   3.000000        7.5951604E-13
   3.100000        8.1410871E-13
   3.200000        8.2428980E-13
   3.300000        7.8860041E-13
   3.400000        7.0820070E-13
   3.500000        5.8683982E-13
   3.600000        4.3071910E-13
   3.700000        2.4823505E-13
   3.800000        4.9588680E-14
   3.900000       -1.5375070E-13
   4.000000       -3.4971635E-13
   4.100000       -5.2641469E-13
   4.200000       -6.7293236E-13
   4.300000       -7.8010276E-13
   4.400000       -8.4115717E-13
   4.500000       -8.5219922E-13
   4.600000       -8.1246972E-13
   4.700000       -7.2438968E-13
   4.800000       -5.9338862E-13
   4.900000       -4.2753792E-13
   5.000000       -2.3701877E-13
   5.100000       -3.3465164E-14
   5.200000        1.7077077E-13
   5.300000        3.6337865E-13
   5.400000        5.3282411E-13
   5.500000        6.6901346E-13
   5.600000        7.6385550E-13
   5.700000        8.1170227E-13
   5.800000        8.0966131E-13
   5.900000        7.5778159E-13
   6.000000        6.5910927E-13
   6.100000        5.1960216E-13
   6.200000        3.4787681E-13
   6.300000        1.5476319E-13
   6.400000       -4.7342786E-14
   6.500000       -2.4530597E-13
   6.600000       -4.2619329E-13
   6.700000       -5.7823402E-13
   6.800000       -6.9168868E-13
   6.900000       -7.5952623E-13
   7.000000       -7.7784188E-13
   7.100000       -7.4599289E-13
   7.200000       -6.6647875E-13
   7.300000       -5.4462424E-13
   7.400000       -3.8813999E-13
   7.500000       -2.0661970E-13
   7.600000       -1.1008030E-14
   7.700000        1.8695722E-13
   7.800000        3.7533944E-13
   7.900000        5.4264042E-13
   8.000000        6.7846721E-13
   8.100000        7.7419034E-13
   8.200000        8.2353449E-13
   8.300000        8.2303917E-13
   8.400000        7.7233315E-13
   8.500000        6.7418938E-13
   8.600000        5.3435896E-13
   8.700000        3.6120832E-13
   8.800000        1.6520200E-13
   8.900000       -4.1722692E-14
   9.000000       -2.4685264E-13
   9.100000       -4.3743958E-13
   9.200000       -6.0146072E-13
   9.300000       -7.2836734E-13
   9.400000       -8.0977803E-13
   9.500000       -8.4006483E-13
   9.600000       -8.1677671E-13
   9.700000       -7.4085779E-13
   9.800000       -6.1663413E-13
   9.900000       -4.5156614E-13
   10.00000       -2.5579021E-13
   10.10000       -4.1489690E-14
   10.20000        1.7785220E-13
   10.30000        3.8826735E-13
   10.40000        5.7614287E-13
   10.50000        7.2905088E-13
   10.60000        8.3653082E-13
   10.70000        8.9078425E-13
   10.80000        8.8723310E-13
   10.90000        8.2489348E-13
   11.00000        7.0652972E-13
   11.10000        5.3856821E-13
   11.20000        3.3077084E-13
   11.30000        9.5684887E-14
   11.40000       -1.5209989E-13
   11.50000       -3.9684477E-13
   11.60000       -6.2265471E-13
   11.70000       -8.1451268E-13
   11.80000       -9.5929373E-13
   11.90000       -1.0466925E-12
   12.00000       -1.0699912E-12
   12.10000       -1.0265982E-12
   12.20000       -9.1829333E-13
   12.30000       -7.5115153E-13
   12.40000       -5.3514794E-13
   12.50000       -2.8348908E-13
   12.60000       -1.1739670E-14
   12.70000        2.6317867E-13
   12.80000        5.2404408E-13
   12.90000        7.5438684E-13
   13.00000        9.3948829E-13
   13.10000        1.0672844E-12
   13.20000        1.1291332E-12
   13.30000        1.1204063E-12
   13.40000        1.0408559E-12
   13.50000        8.9471605E-13
   13.60000        6.9050386E-13
   13.70000        4.4051576E-13
   13.80000        1.6005116E-13
   13.90000       -1.3357209E-13
   14.00000       -4.2212645E-13
   14.10000       -6.8762059E-13
   14.20000       -9.1340965E-13
   14.30000       -1.0852093E-12
   14.40000       -1.1919686E-12
   14.50000       -1.2265604E-12
   14.60000       -1.1862565E-12
   14.70000       -1.0729583E-12
   14.80000       -8.9315838E-13
   14.90000       -6.5761768E-13
   15.00000       -3.8075877E-13
   15.10000       -7.9794983E-14
   15.20000        2.2635348E-13
   15.30000        5.1827959E-13
   15.40000        7.7735333E-13
   15.50000        9.8693547E-13
   15.60000        1.1334605E-12
   15.70000        1.2073203E-12
   15.80000        1.2034991E-12
   15.90000        1.1219183E-12
   16.00000        9.6747014E-13
   16.10000        7.4973475E-13
   16.20000        4.8239630E-13
   16.30000        1.8239190E-13
   16.40000       -1.3115632E-13
   16.50000       -4.3816231E-13
   16.60000       -7.1887131E-13
   16.70000       -9.5514167E-13
   16.80000       -1.1316241E-12
   16.90000       -1.2367575E-12
   17.00000       -1.2635203E-12
   17.10000       -1.2098956E-12
   17.20000       -1.0790246E-12
   17.30000       -8.7903616E-13
   17.40000       -6.2255415E-13
   17.50000       -3.2589957E-13
   17.60000       -8.0339720E-15
   17.70000        3.1069019E-13
   17.80000        6.0988194E-13
   17.90000        8.7046559E-13
   18.00000        1.0759318E-12
   18.10000        1.2133897E-12
   18.20000        1.2743476E-12
   18.30000        1.2551740E-12
   18.40000        1.1572372E-12
   18.50000        9.8673717E-13
   18.60000        7.5427625E-13
   18.70000        4.7420238E-13
   18.80000        1.6376582E-13
   18.90000       -1.5788256E-13
   19.00000       -4.7081691E-13
   19.10000       -7.5553778E-13
   19.20000       -9.9418629E-13
   19.30000       -1.1716901E-12
   19.40000       -1.2767580E-12
   19.50000       -1.3026394E-12
   19.60000       -1.2475861E-12
   19.70000       -1.1149752E-12
   19.80000       -9.1308569E-13
   19.90000       -6.5455383E-13
   20.00000       -3.5555627E-13
   20.10000       -3.4787159E-14
   20.20000        2.8770381E-13
   20.30000        5.9174383E-13
   20.40000        8.5827553E-13
   20.50000        1.0705360E-12
   20.60000        1.2151102E-12
   20.70000        1.2827927E-12
   20.80000        1.2692018E-12
   20.90000        1.1750983E-12
   21.00000        1.0063804E-12
   21.10000        7.7374256E-13
   21.20000        4.9201100E-13
   21.30000        1.7918815E-13
   21.40000       -1.4472962E-13
   21.50000       -4.5907597E-13
   21.60000       -7.4387892E-13
   21.70000       -9.8116090E-13
   21.80000       -1.1560813E-12
   21.90000       -1.2578451E-12
   22.00000       -1.2803259E-12
   22.10000       -1.2223807E-12
   22.20000       -1.0878515E-12
   22.30000       -8.8528018E-13
   22.40000       -6.2736730E-13
   22.50000       -3.3021584E-13
   22.60000       -1.2395674E-14
   22.70000        3.0613804E-13
   22.80000        6.0523315E-13
   22.90000        8.6578249E-13
   23.00000        1.0709499E-12
   23.10000        1.2072953E-12
   23.20000        1.2657104E-12
   23.30000        1.2420822E-12
   23.40000        1.1376216E-12
   23.50000        9.5881896E-13
   23.60000        7.1702507E-13
   23.70000        4.2768946E-13
   23.80000        1.0932686E-13
   23.90000       -2.1769992E-13
   24.00000       -5.3248394E-13
   24.10000       -8.1488001E-13
   24.20000       -1.0467439E-12
   24.30000       -1.2130467E-12
   24.40000       -1.3028161E-12
   24.50000       -1.3098545E-12
   24.60000       -1.2331851E-12
   24.70000       -1.0771890E-12
   24.80000       -8.5139827E-13
   24.90000       -5.6994085E-13
   25.00000       -2.5064979E-13
   25.10000        8.6109058E-14
   25.20000        4.1880309E-13
   25.30000        7.2617802E-13
   25.40000        9.8865729E-13
   25.50000        1.1895876E-12
   25.60000        1.3162528E-12
   25.70000        1.3606120E-12
   25.80000        1.3197437E-12
   25.90000        1.1959938E-12
   26.00000        9.9683250E-13
   26.10000        7.3442820E-13
   26.20000        4.2495643E-13
   26.30000        8.7661445E-14
   26.40000       -2.5629333E-13
   26.50000       -5.8513752E-13
   26.60000       -8.7789308E-13
   26.70000       -1.1157620E-12
   26.80000       -1.2833922E-12
   26.90000       -1.3699149E-12
   27.00000       -1.3696731E-12
   27.10000       -1.2825888E-12
   27.20000       -1.1141550E-12
   27.30000       -8.7505844E-13
   27.40000       -5.8046937E-13
   27.50000       -2.4904793E-13
   27.60000        9.8258986E-14
   27.70000        4.3954990E-13
   27.80000        7.5334471E-13
   27.90000        1.0199237E-12
   28.00000        1.2225547E-12
   28.10000        1.3485360E-12
   28.20000        1.3899912E-12
   28.30000        1.3443615E-12
   28.40000        1.2145611E-12
   28.50000        1.0087881E-12
   28.60000        7.4000116E-13
   28.70000        4.2509613E-13
   28.80000        8.3831705E-14
   28.90000       -2.6242875E-13
   29.00000       -5.9207392E-13
   29.10000       -8.8460370E-13
   29.20000       -1.1218968E-12
   29.30000       -1.2893062E-12
   29.40000       -1.3765227E-12
   29.50000       -1.3781698E-12
   29.60000       -1.2941085E-12
   29.70000       -1.1294420E-12
   29.80000       -8.9422496E-13
   29.90000       -6.0289187E-13
   30.00000       -2.7342904E-13
   30.10000        7.3678111E-14
   30.20000        4.1668077E-13
   30.30000        7.3392616E-13
   30.40000        1.0052607E-12
   30.50000        1.2133742E-12
   30.60000        1.3449724E-12
   30.70000        1.3916777E-12
   30.80000        1.3505807E-12
   30.90000        1.2244075E-12
   31.00000        1.0212999E-12
   31.10000        7.5424020E-13
   31.20000        4.4017868E-13
   31.30000        9.8934925E-14
   31.40000       -2.4804694E-13
   31.50000       -5.7901551E-13
   31.60000       -8.7323670E-13
   31.70000       -1.1122665E-12
   31.80000       -1.2811092E-12
   31.90000       -1.3691902E-12
   32.00000       -1.3710671E-12
   32.10000       -1.2868112E-12
   32.20000       -1.1220159E-12
   32.30000       -8.8742517E-13
   32.40000       -5.9820714E-13
   32.50000       -2.7293649E-13
   32.60000        6.7635594E-14
   32.70000        4.0192681E-13
   32.80000        7.0888694E-13
   32.90000        9.6928997E-13
   33.00000        1.1668859E-12
   33.10000        1.2893605E-12
   33.20000        1.3290653E-12
   33.30000        1.2834846E-12
   33.40000        1.1554089E-12
   33.50000        9.5279091E-13
   33.60000        6.8827816E-13
   33.70000        3.7844199E-13
   33.80000        4.2746236E-14
   33.90000       -2.9768069E-13
   34.00000       -6.2139242E-13
   34.10000       -9.0800165E-13
   34.20000       -1.1394932E-12
   34.30000       -1.3013802E-12
   34.40000       -1.3836221E-12
   34.50000       -1.3812455E-12
   34.60000       -1.2946336E-12
   34.70000       -1.1294711E-12
   34.80000       -8.9635699E-13
   34.90000       -6.1010821E-13
   35.00000       -2.8880617E-13
   35.10000        4.7350460E-14
   35.20000        3.7730802E-13
   35.30000        6.8045759E-13
   35.40000        9.3789971E-13
   35.50000        1.1336088E-12
   35.60000        1.2554328E-12
   35.70000        1.2958659E-12
   35.80000        1.2525370E-12
   35.90000        1.1283721E-12
   36.00000        9.3141087E-13
   36.10000        6.7428777E-13
   36.20000        3.7341064E-13
   36.30000        4.7895088E-14
   36.40000       -2.8166990E-13
   36.50000       -5.9453684E-13
   36.60000       -8.7110115E-13
   36.70000       -1.0941042E-12
   36.80000       -1.2496709E-12
   36.90000       -1.3281324E-12
   37.00000       -1.3245999E-12
   37.10000       -1.2392647E-12
   37.20000       -1.0773993E-12
   37.30000       -8.4905189E-13
   37.40000       -5.6843722E-13
   37.50000       -2.5305693E-13
   37.60000        7.7398367E-14
   37.70000        4.0229387E-13
   37.80000        7.0135873E-13
   37.90000        9.5596979E-13
   38.00000        1.1503224E-12
   38.10000        1.2724097E-12
   38.20000        1.3147515E-12
   38.30000        1.2748344E-12
   38.40000        1.1552494E-12
   38.50000        9.6352472E-13
   38.60000        7.1166765E-13
   38.70000        4.1543039E-13
   38.80000        9.3339223E-14
   38.90000       -2.3446151E-13
   39.00000       -5.4747445E-13
   39.10000       -8.2613896E-13
   39.20000       -1.0530589E-12
   39.30000       -1.2140894E-12
   39.40000       -1.2992156E-12
   39.50000       -1.3031709E-12
   39.60000       -1.2257588E-12
   39.70000       -1.0718627E-12
   39.80000       -8.5114701E-13
   39.90000       -5.7747020E-13
   40.00000       -2.6804020E-13
   40.10000        5.7643275E-14
   40.20000        3.7900764E-13
   40.30000        6.7571448E-13
   40.40000        9.2896654E-13
   40.50000        1.1227177E-12
   40.60000        1.2446954E-12
   40.70000        1.2871634E-12
   40.80000        1.2473823E-12
   40.90000        1.1277499E-12
   41.00000        9.3562528E-13
   41.10000        6.8285736E-13
   41.20000        3.8505156E-13
   41.30000        6.0619532E-14
   41.40000       -2.7033497E-13
   41.50000       -5.8723713E-13
   41.60000       -8.7030903E-13
   41.70000       -1.1018157E-12
   41.80000       -1.2672129E-12
   41.90000       -1.3561105E-12
   42.00000       -1.3629726E-12
   42.10000       -1.2874902E-12
   42.20000       -1.1346011E-12
   42.30000       -9.1415482E-13
   42.40000       -6.4025749E-13
   42.50000       -3.3034553E-13
   42.60000       -4.0547738E-15
   42.70000        3.1803770E-13
   42.80000        6.1571408E-13
   42.90000        8.7037506E-13
   43.00000        1.0661844E-12
   43.10000        1.1910369E-12
   43.20000        1.2373038E-12
   43.30000        1.2023122E-12
   43.40000        1.0885275E-12
   43.50000        9.0341764E-13
   43.60000        6.5900258E-13
   43.70000        3.7111083E-13
   43.80000        5.8391504E-14
   43.90000       -2.5886023E-13
   44.00000       -5.5999433E-13
   44.10000       -8.2533513E-13
   44.20000       -1.0374597E-12
   44.30000       -1.1823350E-12
   44.40000       -1.2502313E-12
   44.50000       -1.2363477E-12
   44.60000       -1.1411170E-12
   44.70000       -9.7017240E-13
   44.80000       -7.3398736E-13
   44.90000       -4.4720995E-13
   45.00000       -1.2773537E-13
   45.10000        2.0442048E-13
   45.20000        5.2837173E-13
   45.30000        8.2365733E-13
   45.40000        1.0715025E-12
   45.50000        1.2559786E-12
   45.60000        1.3649948E-12
   45.70000        1.3910614E-12
   45.80000        1.3317727E-12
   45.90000        1.1899723E-12
   46.00000        9.7359382E-13
   46.10000        6.9518436E-13
   46.20000        3.7114433E-13
   46.30000        2.0727499E-14
   46.40000       -3.3514375E-13
   46.50000       -6.7517725E-13
   46.60000       -9.7904302E-13
   46.70000       -1.2286512E-12
   46.80000       -1.4092925E-12
   46.90000       -1.5105664E-12
   47.00000       -1.5270345E-12
   47.10000       -1.4585566E-12
   47.20000       -1.3102789E-12
   47.30000       -1.0922733E-12
   47.40000       -8.1885486E-13
   47.50000       -5.0763143E-13
   47.60000       -1.7836275E-13
   47.70000        1.4829059E-13
   47.80000        4.5204625E-13
   47.90000        7.1423564E-13
   48.00000        9.1892986E-13
   48.10000        1.0538982E-12
   48.20000        1.1113477E-12
   48.30000        1.0884026E-12
   48.40000        9.8729119E-13
   48.50000        8.1522235E-13
   48.60000        5.8394950E-13
   48.70000        3.0903765E-13
   48.80000        8.8740093E-15
   48.90000       -2.9651571E-13
   49.00000       -5.8676143E-13
   49.10000       -8.4245978E-13
   49.20000       -1.0464123E-12
   49.30000       -1.1847104E-12
   49.40000       -1.2476078E-12
   49.50000       -1.2301343E-12
   49.60000       -1.1324203E-12
   49.70000       -9.5971397E-13
   49.80000       -7.2208488E-13
   49.90000       -4.3382634E-13
   50.00000       -1.1258592E-13
   50.10000        2.2172704E-13
   50.20000        5.4819484E-13
   50.30000        8.4622755E-13
   50.40000        1.0968942E-12
   50.50000        1.2841539E-12
   50.60000        1.3958978E-12
   50.70000        1.4247251E-12
   50.80000        1.3684069E-12
   50.90000        1.2300177E-12
   51.00000        1.0177382E-12
   51.10000        7.4434914E-13
   51.20000        4.2644591E-13
   51.30000        8.3419335E-14
   51.40000       -2.6373944E-13
   51.50000       -5.9373855E-13
   51.60000       -8.8631207E-13
   51.70000       -1.1234963E-12
   51.80000       -1.2907780E-12
   51.90000       -1.3780392E-12
   52.00000       -1.3802222E-12
   52.10000       -1.2976598E-12
   52.20000       -1.1360379E-12
   52.30000       -9.0599777E-13
   52.40000       -6.2241878E-13
   52.50000       -3.0343675E-13
   52.60000        3.0731450E-14
   52.70000        3.5908323E-13
   52.80000        6.6116183E-13
   52.90000        9.1833605E-13
   53.00000        1.1149454E-12
   53.10000        1.2392454E-12
   53.20000        1.2841073E-12
   53.30000        1.2474398E-12
   53.40000        1.1323069E-12
   53.50000        9.4672555E-13
   53.60000        7.0314284E-13
   53.70000        4.1762646E-13
   53.80000        1.0882319E-13
   53.90000       -2.0323912E-13
   54.00000       -4.9843289E-13
   54.10000       -7.5781899E-13
   54.20000       -9.6486241E-13
   54.30000       -1.1064898E-12
   54.40000       -1.1739098E-12
   54.50000       -1.1631389E-12
   54.60000       -1.0752098E-12
   54.70000       -9.1606746E-13
   54.80000       -6.9616768E-13
   54.90000       -4.2980365E-13
   55.00000       -1.3419235E-13
   55.10000        1.7162385E-13
   55.20000        4.6798589E-13
   55.30000        7.3585333E-13
   55.40000        9.5799345E-13
   55.50000        1.1200625E-12
   55.60000        1.2115225E-12
   55.70000        1.2263344E-12
   55.80000        1.1633677E-12
   55.90000        1.0264887E-12
   56.00000        8.2432065E-13
   56.10000        5.6970379E-13
   56.20000        2.7889502E-13
   56.30000       -2.9448307E-14
   56.40000       -3.3545221E-13
   56.50000       -6.1931151E-13
   56.60000       -8.6258778E-13
   56.70000       -1.0494186E-12
   56.80000       -1.1675510E-12
   56.90000       -1.2091366E-12
   57.00000       -1.1712469E-12
   57.10000       -1.0560775E-12
   57.20000       -8.7081893E-13
   57.30000       -6.2719003E-13
   57.40000       -3.4067172E-13
   57.50000       -2.9510042E-14
   57.60000        2.8642971E-13
   57.70000        5.8688704E-13
   57.80000        8.5245428E-13
   57.90000        1.0657933E-12
   58.00000        1.2127526E-12
   58.10000        1.2833029E-12
   58.20000        1.2722194E-12
   58.30000        1.1794622E-12
   58.40000        1.0102362E-12
   58.50000        7.7471959E-13
   58.60000        4.8746266E-13
   58.70000        1.6647073E-13
   58.80000       -1.6796987E-13
   58.90000       -4.9462431E-13
   59.00000       -7.9268124E-13
   59.10000       -1.0430587E-12
   59.20000       -1.2295696E-12
   59.30000       -1.3398966E-12
   59.40000       -1.3663277E-12
   59.50000       -1.3062047E-12
   59.60000       -1.1620455E-12
   59.70000       -9.4133501E-13
   59.80000       -6.5600661E-13
   59.90000       -3.2165603E-13
   60.00000        4.3479661E-14
   60.10000        4.1973754E-13
   60.20000        7.8738215E-13
   60.30000        1.1280008E-12
   60.40000        1.4258291E-12
   60.50000        1.6689051E-12
   60.60000        1.8499906E-12
   60.70000        1.9672308E-12
   60.80000        2.0245390E-12
   60.90000        2.0316884E-12
   61.00000        2.0041011E-12
   61.10000        1.9623398E-12
   61.20000        1.9313507E-12
   61.30000        1.9395121E-12
   61.40000        2.0175541E-12
   61.50000        2.1973957E-12
   61.60000        2.5109589E-12
   61.70000        2.9890459E-12
   61.80000        3.6603841E-12
   61.90000        4.5509443E-12
   62.00000        5.6835864E-12
   62.10000        7.0780539E-12
   62.20000        8.7512966E-12
   62.30000        1.0718102E-11
   62.40000        1.2991981E-11
   62.50000        1.5586296E-11
   62.60000        1.8515498E-11
   62.70000        2.1796412E-11
   62.80000        2.5449441E-11
   62.90000        2.9499649E-11
   63.00000        3.3977619E-11
   63.10000        3.8920082E-11
   63.20000        4.4370181E-11
   63.30000        5.0377355E-11
   63.40000        5.6996755E-11
   63.50000        6.4288241E-11
   63.60000        7.2314980E-11
   63.70000        8.1141684E-11
   63.80000        9.0832536E-11
   63.90000        1.0144883E-10
   64.00000        1.1304653E-10
   64.10000        1.2567394E-10
   64.20000        1.3936920E-10
   64.30000        1.5415814E-10
   64.40000        1.7005231E-10
   64.50000        1.8704746E-10
   64.60000        2.0512228E-10
   64.70000        2.2423761E-10
   64.80000        2.4433597E-10
   64.90000        2.6534139E-10
   65.00000        2.8715988E-10
   65.10000        3.0967989E-10
   65.20000        3.3277339E-10
   65.30000        3.5629702E-10
   65.40000        3.8009329E-10
   65.50000        4.0399228E-10
   65.60000        4.2781309E-10
   65.70000        4.5136522E-10
   65.80000        4.7445020E-10
   65.90000        4.9686305E-10
   66.00000        5.1839349E-10
   66.10000        5.3882743E-10
   66.20000        5.5794819E-10
   66.30000        5.7553817E-10
   66.40000        5.9138011E-10
   66.50000        6.0525918E-10
   66.60000        6.1696426E-10
   66.70000        6.2629102E-10
   66.80000        6.3304367E-10
   66.90000        6.3703787E-10
   67.00000        6.3810318E-10
   67.10000        6.3608641E-10
   67.20000        6.3085442E-10
   67.30000        6.2229744E-10
   67.40000        6.1033190E-10
   67.50000        5.9490424E-10
   67.60000        5.7599336E-10
   67.70000        5.5361316E-10
   67.80000        5.2781446E-10
   67.90000        4.9868637E-10
   68.00000        4.6635690E-10
   68.10000        4.3099260E-10
   68.20000        3.9279738E-10
   68.30000        3.5201042E-10
   68.40000        3.0890390E-10
   68.50000        2.6377944E-10
   68.60000        2.1696436E-10
   68.70000        1.6880673E-10
   68.80000        1.1967001E-10
   68.90000        6.9927536E-11
   69.00000        1.9956726E-11
   69.10000       -2.9866672E-11
   69.20000       -7.9174313E-11
   69.30000       -1.2761057E-10
   69.40000       -1.7483727E-10
   69.50000       -2.2053785E-10
   69.60000       -2.6442076E-10
   69.70000       -3.0622235E-10
   69.80000       -3.4570896E-10
   69.90000       -3.8267875E-10
   70.00000       -4.1696213E-10
   70.10000       -4.4842152E-10
   70.20000       -4.7695081E-10
   70.30000       -5.0247440E-10
   70.40000       -5.2494570E-10
   70.50000       -5.4434590E-10
   70.60000       -5.6068161E-10
   70.70000       -5.7398342E-10
   70.80000       -5.8430361E-10
   70.90000       -5.9171484E-10
   71.00000       -5.9630811E-10
   71.10000       -5.9819077E-10
   71.20000       -5.9748545E-10
   71.30000       -5.9432803E-10
   71.40000       -5.8886634E-10
   71.50000       -5.8125910E-10
   71.60000       -5.7167460E-10
   71.70000       -5.6028931E-10
   71.80000       -5.4728655E-10
   71.90000       -5.3285432E-10
   72.00000       -5.1718324E-10
   72.10000       -5.0046484E-10
   72.20000       -4.8288973E-10
   72.30000       -4.6464510E-10
   72.40000       -4.4591214E-10
   72.50000       -4.2686349E-10
   72.60000       -4.0766124E-10
   72.70000       -3.8845549E-10
   72.80000       -3.6938230E-10
   72.90000       -3.5056208E-10
   73.00000       -3.3209757E-10
   73.10000       -3.1407318E-10
   73.20000       -2.9655581E-10
   73.30000       -2.7959524E-10
   73.40000       -2.6322489E-10
   73.50000       -2.4746227E-10
   73.60000       -2.3231010E-10
   73.70000       -2.1775828E-10
   73.80000       -2.0378672E-10
   73.90000       -1.9036790E-10
   74.00000       -1.7746887E-10
   74.10000       -1.6505318E-10
   74.20000       -1.5308300E-10
   74.30000       -1.4152117E-10
   74.40000       -1.3033317E-10
   74.50000       -1.1948832E-10
   74.60000       -1.0896009E-10
   74.70000       -9.8726249E-11
   74.80000       -8.8768770E-11
   74.90000       -7.9074122E-11
   75.00000       -6.9633049E-11
   75.10000       -6.0439626E-11
   75.20000       -5.1489729E-11
   75.30000       -4.2779509E-11
   75.40000       -3.4304410E-11
   75.50000       -2.6058706E-11
   75.60000       -1.8035079E-11
   75.70000       -1.0224105E-11
   75.80000       -2.6137916E-12
   75.90000        4.8103791E-12
   76.00000        1.2064730E-11
   76.10000        1.9166320E-11
   76.20000        2.6131973E-11
   76.30000        3.2977537E-11
   76.40000        3.9717115E-11
   76.50000        4.6361949E-11
   76.60000        5.2919037E-11
   76.70000        5.9389910E-11
   76.80000        6.5769980E-11
   76.90000        7.2048562E-11
   77.00000        7.8209182E-11
   77.10000        8.4229929E-11
   77.20000        9.0083857E-11
   77.30000        9.5739798E-11
   77.40000        1.0116374E-10
   77.50000        1.0632040E-10
   77.60000        1.1117503E-10
   77.70000        1.1569475E-10
   77.80000        1.1984977E-10
   77.90000        1.2361467E-10
   78.00000        1.2696980E-10
   78.10000        1.2990209E-10
   78.20000        1.3240563E-10
   78.30000        1.3448141E-10
   78.40000        1.3613694E-10
   78.50000        1.3738559E-10
   78.60000        1.3824579E-10
   78.70000        1.3873998E-10
   78.80000        1.3889315E-10
   78.90000        1.3873108E-10
   79.00000        1.3827893E-10
   79.10000        1.3755981E-10
   79.20000        1.3659371E-10
   79.30000        1.3539671E-10
   79.40000        1.3398020E-10
   79.50000        1.3235078E-10
   79.60000        1.3051044E-10
   79.70000        1.2845712E-10
   79.80000        1.2618576E-10
   79.90000        1.2368932E-10
   80.00000        1.2096019E-10
   80.10000        1.1799149E-10
   80.20000        1.1477884E-10
   80.30000        1.1132178E-10
   80.40000        1.0762506E-10
   80.50000        1.0369955E-10
   80.60000        9.9563011E-11
   80.70000        9.5240482E-11
   80.80000        9.0764327E-11