  -10.00000        1.0000000E-24
  -9.900000        1.0000000E-24
  -9.800000       -4.7512113E-18
  -9.700000       -1.6296026E-17
  -9.600000       -2.8502748E-17
  -9.500000       -2.7506679E-17
  -9.400000        1.4499241E-18
  -9.300000        6.4022549E-17
  -9.200000        1.4918369E-16
  -9.100000        2.2903768E-16
  -9.000000        2.6738715E-16
  -8.900000        2.3359882E-16
  -8.800000        1.1523162E-16
  -8.700000       -7.6553501E-17
  -8.600000       -3.1107740E-16
  -8.500000       -5.4950114E-16
  -8.400000       -7.5831556E-16
  -8.300000       -9.1933790E-16
  -8.200000       -1.0321898E-15
  -8.100000       -1.1081769E-15
  -8.000000       -1.1581273E-15
  -7.900000       -1.1800132E-15
  -7.800000       -1.1532808E-15
  -7.700000       -1.0443448E-15
  -7.600000       -8.2215813E-16
  -7.500000       -4.7702032E-16
  -7.400000       -3.3416088E-17
  -7.300000        4.4974866E-16
  -7.200000        8.9219971E-16
  -7.100000        1.2134697E-15
  -7.000000        1.3541170E-15
  -6.900000        1.2896594E-15
  -6.800000        1.0332039E-15
  -6.700000        6.2719407E-16
  -6.600000        1.2898383E-16
  -6.500000       -4.0231484E-16
  -6.400000       -9.1065253E-16
  -6.300000       -1.3368465E-15
  -6.200000       -1.6056195E-15
  -6.100000       -1.6159587E-15
  -6.000000       -1.2457708E-15
  -5.900000       -3.7648468E-16
  -5.800000        1.0658790E-15
  -5.700000        3.0650821E-15
  -5.600000        5.4803976E-15
  -5.500000        8.0378895E-15
  -5.400000        1.0355049E-14
  -5.300000        1.1997568E-14
  -5.200000        1.2557738E-14
  -5.100000        1.1737082E-14
  -5.000000        9.4141241E-15
  -4.900000        5.6828813E-15
  -4.800000        8.5734462E-16
  -4.700000       -4.5527390E-15
  -4.600000       -9.8835294E-15
  -4.500000       -1.4365662E-14
  -4.400000       -1.7174779E-14
  -4.300000       -1.7485740E-14
  -4.200000       -1.4536210E-14
  -4.100000       -7.7049268E-15
  -4.000000        3.3946260E-15
  -3.900000        1.8811856E-14
  -3.800000        3.8163174E-14
  -3.700000        6.0563669E-14
  -3.600000        8.4608292E-14
  -3.500000        1.0841757E-13
  -3.400000        1.2975007E-13
  -3.300000        1.4616985E-13
  -3.200000        1.5524714E-13
  -3.100000        1.5476798E-13
  -3.000000        1.4293243E-13
  -2.900000        1.1852855E-13
  -2.800000        8.1076178E-14
  -2.700000        3.0938776E-14
  -2.600000       -3.0598601E-14
  -2.500000       -1.0129074E-13
  -2.400000       -1.7794543E-13
  -2.300000       -2.5650624E-13
  -2.200000       -3.3222370E-13
  -2.100000       -3.9992497E-13
  -2.000000       -4.5437674E-13
  -1.900000       -4.9071581E-13
  -1.800000       -5.0490439E-13
  -1.700000       -4.9415815E-13
  -1.600000       -4.5729322E-13
  -1.500000       -3.9494731E-13
  -1.400000       -3.0964437E-13
  -1.300000       -2.0569055E-13
  -1.200000       -8.8912046E-14
  -1.100000        3.3738613E-14
  -1.000000        1.5466720E-13
 -0.9000000        2.6616890E-13
 -0.8000000        3.6096245E-13
 -0.7000000        4.3268812E-13
 -0.6000000        4.7633761E-13
 -0.5000000        4.8858996E-13
 -0.4000000        4.6803826E-13
 -0.3000000        4.1529806E-13
 -0.2000000        3.3299806E-13
 -0.1000000        2.2565414E-13
  0.0000000E+00    9.9431612E-14
  0.1000000       -3.8198482E-14
  0.2000000       -1.7889667E-13
  0.3000000       -3.1396584E-13
  0.4000000       -4.3490604E-13
  0.5000000       -5.3397515E-13
  0.6000000       -6.0471457E-13
  0.7000000       -6.4239575E-13
  0.8000000       -6.4434975E-13
  0.9000000       -6.1015093E-13
   1.000000       -5.4164149E-13
   1.100000       -4.4280194E-13
   1.200000       -3.1948573E-13
   1.300000       -1.7904387E-13
   1.400000       -2.9867622E-14
   1.500000        1.1912490E-13
   1.600000        2.5903232E-13
   1.700000        3.8151801E-13
   1.800000        4.7933332E-13
   1.900000        5.4678565E-13
   2.000000        5.8012010E-13
   2.100000        5.7778164E-13
   2.200000        5.4053322E-13
   2.300000        4.7141116E-13
   2.400000        3.7551844E-13
   2.500000        2.5967312E-13
   2.600000        1.3194343E-13
   2.700000        1.1091312E-15
   2.800000       -1.2391237E-13
   2.900000       -2.3463897E-13
   3.000000       -3.2356477E-13
   3.100000       -3.8463953E-13
   3.200000       -4.1366053E-13
   3.300000       -4.0855297E-13
   3.400000       -3.6951876E-13
   3.500000       -2.9903806E-13
   3.600000       -2.0171553E-13
   3.700000       -8.3975544E-14
   3.800000        4.6372882E-14
   3.900000        1.8066478E-13
   4.000000        3.0995497E-13
   4.100000        4.2559524E-13
   4.200000        5.1977525E-13
   4.300000        5.8600195E-13
   4.400000        6.1949735E-13
   4.500000        6.1750209E-13
   4.600000        5.7947007E-13
   4.700000        5.0714012E-13
   4.800000        4.0447203E-13
   4.900000        2.7743609E-13
   5.000000        1.3365463E-13
   5.100000       -1.8090406E-14
   5.200000       -1.6844916E-13
   5.300000       -3.0814088E-13
   5.400000       -4.2857327E-13
   5.500000       -5.2238807E-13
   5.600000       -5.8389480E-13
   5.700000       -6.0937751E-13
   5.800000       -5.9727521E-13
   5.900000       -5.4824786E-13
   6.000000       -4.6513889E-13
   6.100000       -3.5284202E-13
   6.200000       -2.1807202E-13
   6.300000       -6.9032270E-14
   6.400000        8.5027769E-14
   6.500000        2.3436163E-13
   6.600000        3.6935477E-13
   6.700000        4.8118139E-13
   6.800000        5.6242109E-13
   6.900000        6.0756803E-13
   7.000000        6.1338293E-13
   7.100000        5.7906658E-13
   7.200000        5.0625839E-13
   7.300000        3.9888497E-13
   7.400000        2.6289501E-13
   7.500000        1.0591619E-13
   7.600000       -6.3138012E-14
   7.700000       -2.3450076E-13
   7.800000       -3.9802973E-13
   7.900000       -5.4373975E-13
   8.000000       -6.6238811E-13
   8.100000       -7.4608516E-13
   8.200000       -7.8887683E-13
   8.300000       -7.8723372E-13
   8.400000       -7.4038432E-13
   8.500000       -6.5044498E-13
   8.600000       -5.2232632E-13
   8.700000       -3.6342056E-13
   8.800000       -1.8310314E-13
   8.900000        7.8954287E-15
   9.000000        1.9818092E-13
   9.100000        3.7638995E-13
   9.200000        5.3184632E-13
   9.300000        6.5515822E-13
   9.400000        7.3874657E-13
   9.500000        7.7729316E-13
   9.600000        7.6809007E-13
   9.700000        7.1126465E-13
   9.800000        6.0985521E-13
   9.900000        4.6971655E-13
   10.00000        2.9923874E-13
   10.10000        1.0887586E-13
   10.20000       -8.9502387E-14
   10.30000       -2.8339307E-13
   10.40000       -4.6051026E-13
   10.50000       -6.0962319E-13
   10.60000       -7.2130772E-13
   10.70000       -7.8855461E-13
   10.80000       -8.0719779E-13
   10.90000       -7.7614564E-13
   11.00000       -6.9741050E-13
   11.10000       -5.7594885E-13
   11.20000       -4.1933747E-13
   11.30000       -2.3731749E-13
   11.40000       -4.1232507E-14
   11.50000        1.5662166E-13
   11.60000        3.4372142E-13
   11.70000        5.0808999E-13
   11.80000        6.3907755E-13
   11.90000        7.2808605E-13
   12.00000        7.6917205E-13
   12.10000        7.5947094E-13
   12.20000        6.9940408E-13
   12.30000        5.9264892E-13
   12.40000        4.4587462E-13
   12.50000        2.6827349E-13
   12.60000        7.0939721E-14
   12.70000       -1.3383717E-13
   12.80000       -3.3330551E-13
   12.90000       -5.1497321E-13
   13.00000       -6.6730253E-13
   13.10000       -7.8037072E-13
   13.20000       -8.4648082E-13
   13.30000       -8.6069005E-13
   13.40000       -8.2121023E-13
   13.50000       -7.2963320E-13
   13.60000       -5.9093843E-13
   13.70000       -4.1325464E-13
   13.80000       -2.0736781E-13
   13.90000        1.3999041E-14
   14.00000        2.3707035E-13
   14.10000        4.4797323E-13
   14.20000        6.3366342E-13
   14.30000        7.8274133E-13
   14.40000        8.8611280E-13
   14.50000        9.3747839E-13
   14.60000        9.3365398E-13
   14.70000        8.7472754E-13
   14.80000        7.6405662E-13
   14.90000        6.0811106E-13
   15.00000        4.1615840E-13
   15.10000        1.9979172E-13
   15.20000       -2.7705877E-14
   15.30000       -2.5214718E-13
   15.40000       -4.5934215E-13
   15.50000       -6.3604536E-13
   15.60000       -7.7086568E-13
   15.70000       -8.5505382E-13
   15.80000       -8.8310614E-13
   15.90000       -8.5314584E-13
   16.00000       -7.6706051E-13
   16.10000       -6.3039130E-13
   16.20000       -4.5198182E-13
   16.30000       -2.4341233E-13
   16.40000       -1.8260723E-14
   16.50000        2.0876105E-13
   16.60000        4.2274376E-13
   16.70000        6.0954052E-13
   16.80000        7.5669169E-13
   16.90000        8.5425216E-13
   17.00000        8.9545672E-13
   17.10000        8.7717453E-13
   17.20000        8.0012543E-13
   17.30000        6.6885402E-13
   17.40000        4.9146781E-13
   17.50000        2.7915284E-13
   17.60000        4.5486235E-14
   17.70000       -1.9442167E-13
   17.80000       -4.2490599E-13
   17.90000       -6.3078237E-13
   18.00000       -7.9836794E-13
   18.10000       -9.1641495E-13
   18.20000       -9.7688860E-13
   18.30000       -9.7552402E-13
   18.40000       -9.1211272E-13
   18.50000       -7.9049712E-13
   18.60000       -6.1828510E-13
   18.70000       -4.0632195E-13
   18.80000       -1.6797349E-13
   18.90000        8.1726977E-14
   19.00000        3.2702018E-13
   19.10000        5.5240345E-13
   19.20000        7.4360413E-13
   19.30000        8.8848763E-13
   19.40000        9.7784465E-13
   19.50000        1.0060017E-12
   19.60000        9.7120641E-13
   19.70000        8.7574734E-13
   19.80000        7.2578808E-13
   19.90000        5.3092383E-13
   20.00000        3.0350283E-13
   20.10000        5.7781830E-14
   20.20000       -1.9100405E-13
   20.30000       -4.2758405E-13
   20.40000       -6.3755023E-13
   20.50000       -8.0817167E-13
   20.60000       -9.2909762E-13
   20.70000       -9.9293024E-13
   20.80000       -9.9565104E-13
   20.90000       -9.3688555E-13
   21.00000       -8.1998205E-13
   21.10000       -6.5188187E-13
   21.20000       -4.4276076E-13
   21.30000       -2.0543951E-13
   21.40000        4.5408179E-14
   21.50000        2.9419598E-13
   21.60000        5.2543728E-13
   21.70000        7.2474779E-13
   21.80000        8.7976138E-13
   21.90000        9.8089527E-13
   22.00000        1.0219181E-12
   22.10000        1.0002969E-12
   22.20000        9.1731993E-13
   22.30000        7.7800711E-13
   22.40000        5.9082302E-13
   22.50000        3.6720976E-13
   22.60000        1.2095139E-13
   22.70000       -1.3261400E-13
   22.80000       -3.7750670E-13
   22.90000       -5.9810002E-13
   23.00000       -7.8014060E-13
   23.10000       -9.1172599E-13
   23.20000       -9.8416078E-13
   23.30000       -9.9261289E-13
   23.40000       -9.3649838E-13
   23.50000       -8.1954685E-13
   23.60000       -6.4953847E-13
   23.70000       -4.3773817E-13
   23.80000       -1.9808624E-13
   23.90000        5.3777027E-14
   24.00000        3.0156821E-13
   24.10000        5.2941766E-13
   24.20000        7.2285564E-13
   24.30000        8.6967564E-13
   24.40000        9.6064237E-13
   24.50000        9.9002837E-13
   24.60000        9.5596610E-13
   24.70000        8.6059724E-13
   24.80000        7.0999294E-13
   24.90000        5.1382428E-13
   25.00000        2.8477790E-13
   25.10000        3.7739634E-14
   25.20000       -2.1120192E-13
   25.30000       -4.4585665E-13
   25.40000       -6.5104833E-13
   25.50000       -8.1364624E-13
   25.60000       -9.2342431E-13
   25.70000       -9.7368283E-13
   25.80000       -9.6160200E-13
   25.90000       -8.8833384E-13
   26.00000       -7.5885663E-13
   26.10000       -5.8162432E-13
   26.20000       -3.6803340E-13
   26.30000       -1.3172823E-13
   26.40000        1.1223220E-13
   26.50000        3.4830911E-13
   26.60000        5.6147177E-13
   26.70000        7.3817748E-13
   26.80000        8.6727300E-13
   26.90000        9.4074369E-13
   27.00000        9.5423767E-13
   27.10000        9.0731508E-13
   27.20000        8.0340633E-13
   27.30000        6.4950221E-13
   27.40000        4.5562675E-13
   27.50000        2.3415265E-13
   27.60000       -9.8664219E-16
   27.70000       -2.3514488E-13
   27.80000       -4.5383055E-13
   27.90000       -6.4355623E-13
   28.00000       -7.9263028E-13
   28.10000       -8.9185576E-13
   28.20000       -9.3510085E-13
   28.30000       -9.1970312E-13
   28.40000       -8.4666649E-13
   28.50000       -7.2061947E-13
   28.60000       -5.4952446E-13
   28.70000       -3.4415789E-13
   28.80000       -1.1740953E-13
   28.90000        1.1654278E-13
   29.00000        3.4312402E-13
   29.10000        5.4826738E-13
   29.20000        7.1928141E-13
   29.30000        8.4562533E-13
   29.40000        9.1954385E-13
   29.50000        9.3652473E-13
   29.60000        8.9555820E-13
   29.70000        7.9919106E-13
   29.80000        6.5337167E-13
   29.90000        4.6709018E-13
   30.00000        2.5183122E-13
   30.10000        2.0872996E-14
   30.20000       -2.1151734E-13
   30.30000       -4.3094139E-13
   30.40000       -6.2373663E-13
   30.50000       -7.7781428E-13
   30.60000       -8.8342826E-13
   30.70000       -9.3382301E-13
   30.80000       -9.2570483E-13
   30.90000       -8.5949146E-13
   31.00000       -7.3931155E-13
   31.10000       -5.7275641E-13
   31.20000       -3.7039848E-13
   31.30000       -1.4511148E-13
   31.40000        8.8760244E-14
   31.50000        3.1631910E-13
   31.60000        5.2304846E-13
   31.70000        6.9569854E-13
   31.80000        8.2308054E-13
   31.90000        8.9674112E-13
   32.00000        9.1149917E-13
   32.10000        8.6581550E-13
   32.20000        7.6196092E-13
   32.30000        6.0594861E-13
   32.40000        4.0721284E-13
   32.50000        1.7804389E-13
   32.60000       -6.7190116E-14
   32.70000       -3.1298231E-13
   32.80000       -5.4371931E-13
   32.90000       -7.4472291E-13
   33.00000       -9.0321224E-13
   33.10000       -1.0091091E-12
   33.20000       -1.0556354E-12
   33.30000       -1.0396858E-12
   33.40000       -9.6198104E-13
   33.50000       -8.2701294E-13
   33.60000       -6.4278682E-13
   33.70000       -4.2036768E-13
   33.80000       -1.7323938E-13
   33.90000        8.3495582E-14
   34.00000        3.3403572E-13
   34.10000        5.6286784E-13
   34.20000        7.5576080E-13
   34.30000        9.0069402E-13
   34.40000        9.8864515E-13
   34.50000        1.0141662E-12
   34.60000        9.7570422E-13
   34.70000        8.7565334E-13
   34.80000        7.2015695E-13
   34.90000        5.1869473E-13
   35.00000        2.8349057E-13
   35.10000        2.8779032E-14
   35.20000       -2.3003425E-13
   35.30000       -4.7727545E-13
   35.40000       -6.9792224E-13
   35.50000       -8.7849584E-13
   35.60000       -1.0078795E-12
   35.70000       -1.0780185E-12
   35.80000       -1.0844506E-12
   35.90000       -1.0266191E-12
   36.00000       -9.0793399E-13
   36.10000       -7.3556601E-13
   36.20000       -5.1999431E-13
   36.30000       -2.7434299E-13
   36.40000       -1.3558991E-14
   36.50000        2.4651285E-13
   36.60000        4.9009581E-13
   36.70000        7.0242737E-13
   36.80000        8.7062757E-13
   36.90000        9.8444419E-13
   37.00000        1.0368428E-12
   37.10000        1.0244236E-12
   37.20000        9.4764702E-13
   37.30000        8.1085296E-13
   37.40000        6.2205780E-13
   37.50000        3.9252220E-13
   37.60000        1.3610140E-13
   37.70000       -1.3159268E-13
   37.80000       -3.9416929E-13
   37.90000       -6.3551074E-13
   38.00000       -8.4081982E-13
   38.10000       -9.9757778E-13
   38.20000       -1.0963339E-12
   38.30000       -1.1312662E-12
   38.40000       -1.1004854E-12
   38.50000       -1.0060803E-12
   38.60000       -8.5393108E-13
   38.70000       -6.5332039E-13
   38.80000       -4.1637922E-13
   38.90000       -1.5739588E-13
   39.00000        1.0798662E-13
   39.10000        3.6365756E-13
   39.20000        5.9397983E-13
   39.30000        7.8474288E-13
   39.40000        9.2406941E-13
   39.50000        1.0032067E-12
   39.60000        1.0171278E-12
   39.70000        9.6488160E-13
   39.80000        8.4965628E-13
   39.90000        6.7855275E-13
   40.00000        4.6209781E-13
   40.10000        2.1354886E-13
   40.20000       -5.1946291E-14
   40.30000       -3.1827327E-13
   40.40000       -5.6930404E-13
   40.50000       -7.8983516E-13
   40.60000       -9.6647527E-13
   40.70000       -1.0884458E-12
   40.80000       -1.1482532E-12
   40.90000       -1.1421865E-12
   41.00000       -1.0705930E-12
   41.10000       -9.3789408E-13
   41.20000       -7.5232632E-13
   41.30000       -5.2542102E-13
   41.40000       -2.7126153E-13
   41.50000       -5.5787928E-15
   41.60000        2.5524182E-13
   41.70000        4.9517172E-13
   41.80000        6.9950567E-13
   41.90000        8.5573595E-13
   42.00000        9.5429686E-13
   42.10000        9.8915158E-13
   42.20000        9.5818872E-13
   42.30000        8.6339838E-13
   42.40000        7.1079861E-13
   42.50000        5.1009685E-13
   42.60000        2.7409387E-13
   42.70000        1.7863561E-14
   42.80000       -2.4223348E-13
   42.90000       -4.8962613E-13
   43.00000       -7.0861437E-13
   43.10000       -8.8537527E-13
   43.20000       -1.0088243E-12
   43.30000       -1.0712840E-12
   43.40000       -1.0689322E-12
   43.50000       -1.0020183E-12
   43.60000       -8.7484544E-13
   43.70000       -6.9551504E-13
   43.80000       -4.7544390E-13
   43.90000       -2.2866569E-13
   44.00000        2.9046796E-14
   44.10000        2.8118770E-13
   44.20000        5.1158492E-13
   44.30000        7.0545295E-13
   44.40000        8.5035521E-13
   44.50000        9.3700742E-13
   44.60000        9.5986478E-13
   44.70000        9.1745752E-13
   44.80000        8.1246143E-13
   44.90000        6.5150852E-13
   45.00000        4.4475881E-13
   45.10000        2.0525793E-13
   45.20000       -5.1884163E-14
   45.30000       -3.1045178E-13
   45.40000       -5.5416262E-13
   45.50000       -7.6771906E-13
   45.60000       -9.3779845E-13
   45.70000       -1.0539117E-12
   45.80000       -1.1090719E-12
   45.90000       -1.1002271E-12
   46.00000       -1.0284298E-12
   46.10000       -8.9873454E-13
   46.20000       -7.1983549E-13
   46.30000       -5.0347579E-13
   46.40000       -2.6367393E-13
   46.50000       -1.5816956E-14
   46.60000        2.2432475E-13
   46.70000        4.4160650E-13
   46.80000        6.2248026E-13
   46.90000        7.5586358E-13
   47.00000        8.3384455E-13
   47.10000        8.5217369E-13
   47.20000        8.1051187E-13
   47.30000        7.1242253E-13
   47.40000        5.6511290E-13
   47.50000        3.7894370E-13
   47.60000        1.6673933E-13
   47.70000       -5.7052636E-14
   47.80000       -2.7729631E-13
   47.90000       -4.7913458E-13
   48.00000       -6.4893035E-13
   48.10000       -7.7512709E-13
   48.20000       -8.4898017E-13
   48.30000       -8.6511066E-13
   48.40000       -8.2184547E-13
   48.50000       -7.2131835E-13
   48.60000       -5.6933147E-13
   48.70000       -3.7499135E-13
   48.80000       -1.5014724E-13
   48.90000        9.1335170E-14
   49.00000        3.3442636E-13
   49.10000        5.6386677E-13
   49.20000        7.6512548E-13
   49.30000        9.2532275E-13
   49.40000        1.0340550E-12
   49.50000        1.0840681E-12
   49.60000        1.0717336E-12
   49.70000        9.9729329E-13
   49.80000        8.6484991E-13
   49.90000        6.8210433E-13
   50.00000        4.5986191E-13
   50.10000        2.1135151E-13
   50.20000       -4.8588785E-14
   50.30000       -3.0440754E-13
   50.40000       -5.4077196E-13
   50.50000       -7.4349365E-13
   50.60000       -9.0040144E-13
   50.70000       -1.0021105E-12
   50.80000       -1.0426331E-12
   50.90000       -1.0197845E-12
   51.00000       -9.3534804E-13
   51.10000       -7.9497715E-13
   51.20000       -6.0783290E-13
   51.30000       -3.8597313E-13
   51.40000       -1.4354308E-13
   51.50000        1.0416387E-13
   51.60000        3.4169296E-13
   51.70000        5.5438846E-13
   51.80000        7.2927146E-13
   51.90000        8.5579731E-13
   52.00000        9.2646680E-13
   52.10000        9.3726535E-13
   52.20000        8.8790715E-13
   52.30000        7.8186486E-13
   52.40000        6.2617565E-13
   52.50000        4.3102419E-13
   52.60000        2.0911518E-13
   52.70000       -2.5137515E-14
   52.80000       -2.5655725E-13
   52.90000       -4.7021615E-13
   53.00000       -6.5242744E-13
   53.10000       -7.9163613E-13
   53.20000       -8.7914414E-13
   53.30000       -9.0962958E-13
   53.40000       -8.8144092E-13
   53.50000       -7.9665869E-13
   53.60000       -6.6092531E-13
   53.70000       -4.8305706E-13
   53.80000       -2.7446597E-13
   53.90000       -4.8431609E-14
   54.00000        1.8073030E-13
   54.10000        3.9855600E-13
   54.20000        5.9133021E-13
   54.30000        7.4693946E-13
   54.40000        8.5562639E-13
   54.50000        9.1059322E-13
   54.60000        9.0841522E-13
   54.70000        8.4924586E-13
   54.80000        7.3680634E-13
   54.90000        5.7816230E-13
   55.00000        3.8329314E-13
   55.10000        1.6446790E-13
   55.20000       -6.4538544E-14
   55.30000       -2.8933526E-13
   55.40000       -4.9584409E-13
   55.50000       -6.7119796E-13
   55.60000       -8.0454821E-13
   55.70000       -8.8773026E-13
   55.80000       -9.1574827E-13
   55.90000       -8.8705313E-13
   56.00000       -8.0360469E-13
   56.10000       -6.7072731E-13
   56.20000       -4.9678160E-13
   56.30000       -2.9267552E-13
   56.40000       -7.1232367E-14
   56.50000        1.5356682E-13
   56.60000        3.6744032E-13
   56.70000        5.5671635E-13
   56.80000        7.0923107E-13
   56.90000        8.1514016E-13
   57.00000        8.6757674E-13
   57.10000        8.6310315E-13
   57.20000        8.0192607E-13
   57.30000        6.8786166E-13
   57.40000        5.2806246E-13
   57.50000        3.3253741E-13
   57.60000        1.1351288E-13
   57.70000       -1.1531412E-13
   57.80000       -3.3958689E-13
   57.90000       -5.4513235E-13
   58.00000       -7.1880853E-13
   58.10000       -8.4931942E-13
   58.20000       -9.2794555E-13
   58.30000       -9.4912966E-13
   58.40000       -9.1086134E-13
   58.50000       -8.1481848E-13
   58.60000       -6.6624869E-13
   58.70000       -4.7359442E-13
   58.80000       -2.4788795E-13
   58.90000       -1.9630823E-15
   59.00000        2.5045347E-13
   59.10000        4.9570097E-13
   59.20000        7.2112927E-13
   59.30000        9.1598105E-13
   59.40000        1.0721796E-12
   59.50000        1.1849969E-12
   59.60000        1.2535789E-12
   59.70000        1.2812983E-12
   59.80000        1.2759126E-12
   59.90000        1.2495181E-12
   60.00000        1.2183089E-12
   60.10000        1.2021694E-12
   60.20000        1.2241420E-12
   60.30000        1.3098191E-12
   60.40000        1.4867270E-12
   60.50000        1.7837644E-12
   60.60000        2.2307703E-12
   60.70000        2.8582729E-12
   60.80000        3.6974698E-12
   60.90000        4.7804555E-12
   61.00000        6.1407121E-12
   61.10000        7.8138763E-12
   61.20000        9.8387600E-12
   61.30000        1.2258629E-11
   61.40000        1.5122683E-11
   61.50000        1.8487691E-11
   61.60000        2.2419728E-11
   61.70000        2.6995956E-11
   61.80000        3.2306362E-11
   61.90000        3.8455440E-11
   62.00000        4.5563685E-11
   62.10000        5.3768903E-11
   62.20000        6.3227201E-11
   62.30000        7.4113639E-11
   62.40000        8.6622529E-11
   62.50000        1.0096729E-10
   62.60000        1.1737990E-10
   62.70000        1.3610993E-10
   62.80000        1.5742309E-10
   62.90000        1.8159947E-10
   63.00000        2.0893140E-10
   63.10000        2.3972088E-10
   63.20000        2.7427674E-10
   63.30000        3.1291161E-10
   63.40000        3.5593820E-10
   63.50000        4.0366568E-10
   63.60000        4.5639550E-10
   63.70000        5.1441712E-10
   63.80000        5.7800315E-10
   63.90000        6.4740474E-10
   64.00000        7.2284628E-10
   64.10000        8.0451978E-10
   64.20000        8.9257984E-10
   64.30000        9.8713704E-10
   64.40000        1.0882524E-09
   64.50000        1.1959307E-09
   64.60000        1.3101147E-09
   64.70000        1.4306787E-09
   64.80000        1.5574219E-09
   64.90000        1.6900636E-09
   65.00000        1.8282381E-09
   65.10000        1.9714899E-09
   65.20000        2.1192705E-09
   65.30000        2.2709354E-09
   65.40000        2.4257447E-09
   65.50000        2.5828615E-09
   65.60000        2.7413551E-09
   65.70000        2.9002063E-09
   65.80000        3.0583096E-09
   65.90000        3.2144842E-09
   66.00000        3.3674816E-09
   66.10000        3.5159982E-09
   66.20000        3.6586878E-09
   66.30000        3.7941765E-09
   66.40000        3.9210777E-09
   66.50000        4.0380117E-09
   66.60000        4.1436228E-09
   66.70000        4.2365964E-09
   66.80000        4.3156798E-09
   66.90000        4.3796988E-09
   67.00000        4.4275761E-09
   67.10000        4.4583475E-09
   67.20000        4.4711794E-09
   67.30000        4.4653805E-09
   67.40000        4.4404147E-09
   67.50000        4.3959103E-09
   67.60000        4.3316684E-09
   67.70000        4.2476680E-09
   67.80000        4.1440682E-09
   67.90000        4.0212074E-09
   68.00000        3.8796029E-09
   68.10000        3.7199419E-09
   68.20000        3.5430758E-09
   68.30000        3.3500109E-09
   68.40000        3.1418965E-09
   68.50000        2.9200087E-09
   68.60000        2.6857370E-09
   68.70000        2.4405671E-09
   68.80000        2.1860633E-09
   68.90000        1.9238511E-09
   69.00000        1.6555964E-09
   69.10000        1.3829878E-09
   69.20000        1.1077174E-09
   69.30000        8.3146273E-10
   69.40000        5.5587018E-10
   69.50000        2.8253816E-10
   69.60000        1.3001869E-11
   69.70000       -2.5128077E-10
   69.80000       -5.0894133E-10
   69.90000       -7.5871148E-10
   70.00000       -9.9943220E-10
   70.10000       -1.2300607E-09
   70.20000       -1.4496760E-09
   70.30000       -1.6574825E-09
   70.40000       -1.8528107E-09
   70.50000       -2.0351179E-09
   70.60000       -2.2039861E-09
   70.70000       -2.3591185E-09
   70.80000       -2.5003359E-09
   70.90000       -2.6275715E-09
   71.00000       -2.7408618E-09
   71.10000       -2.8403411E-09
   71.20000       -2.9262306E-09
   71.30000       -2.9988321E-09
   71.40000       -3.0585179E-09
   71.50000       -3.1057221E-09
   71.60000       -3.1409324E-09
   71.70000       -3.1646807E-09
   71.80000       -3.1775362E-09
   71.90000       -3.1800975E-09
   72.00000       -3.1729872E-09
   72.10000       -3.1568448E-09
   72.20000       -3.1323215E-09
   72.30000       -3.1000764E-09
   72.40000       -3.0607721E-09
   72.50000       -3.0150717E-09
   72.60000       -2.9636371E-09
   72.70000       -2.9071261E-09
   72.80000       -2.8461897E-09
   72.90000       -2.7814702E-09
   73.00000       -2.7135993E-09
   73.10000       -2.6431959E-09
   73.20000       -2.5708633E-09
   73.30000       -2.4971876E-09
   73.40000       -2.4227338E-09
   73.50000       -2.3480431E-09
   73.60000       -2.2736282E-09
   73.70000       -2.1999713E-09
   73.80000       -2.1275184E-09
   73.90000       -2.0566757E-09
   74.00000       -1.9878041E-09
   74.10000       -1.9212174E-09
   74.20000       -1.8571764E-09
   74.30000       -1.7958873E-09
   74.40000       -1.7374986E-09
   74.50000       -1.6820998E-09
   74.60000       -1.6297190E-09
   74.70000       -1.5803241E-09
   74.80000       -1.5338221E-09
   74.90000       -1.4900623E-09
   75.00000       -1.4488394E-09
   75.10000       -1.4098966E-09
   75.20000       -1.3729312E-09
   75.30000       -1.3376007E-09
   75.40000       -1.3035297E-09
   75.50000       -1.2703176E-09
   75.60000       -1.2375470E-09
   75.70000       -1.2047907E-09
   75.80000       -1.1716220E-09
   75.90000       -1.1376226E-09
   76.00000       -1.1023921E-09
   76.10000       -1.0655564E-09
   76.20000       -1.0267767E-09
   76.30000       -9.8575592E-10
   76.40000       -9.4224717E-10
   76.50000       -8.9605967E-10
   76.60000       -8.4706481E-10
   76.70000       -7.9520007E-10
   76.80000       -7.4047279E-10
   76.90000       -6.8296213E-10
   77.00000       -6.2282041E-10
   77.10000       -5.6027349E-10
   77.20000       -4.9562016E-10
   77.30000       -4.2922915E-10
   77.40000       -3.6153561E-10
   77.50000       -2.9303604E-10
   77.60000       -2.2428261E-10
   77.70000       -1.5587590E-10
   77.80000       -8.8456617E-11
   77.90000       -2.2696022E-11
   78.00000        4.0714578E-11
   78.10000        1.0107472E-10
   78.20000        1.5768591E-10
   78.30000        2.0986321E-10
   78.40000        2.5694760E-10
   78.50000        2.9831840E-10
   78.60000        3.3340536E-10
   78.70000        3.6170000E-10
   78.80000        3.8276618E-10
   78.90000        3.9624984E-10
   79.00000        4.0188794E-10
   79.10000        3.9951620E-10
   79.20000        3.8907466E-10
   79.30000        3.7061146E-10
   79.40000        3.4428457E-10
   79.50000        3.1036207E-10
   79.60000        2.6922090E-10
   79.70000        2.2134318E-10
   79.80000        1.6731098E-10
   79.90000        1.0779843E-10
   80.00000        4.3562740E-11
   80.10000       -2.4565940E-11
   80.20000       -9.5695792E-11
   80.30000       -1.6888582E-10
   80.40000       -2.4315952E-10
   80.50000       -3.1751926E-10
   80.60000       -3.9096040E-10
   80.70000       -4.6248530E-10
   80.80000       -5.3111665E-10