  -10.00000        1.0000000E-24
  -9.900000        1.0000000E-24
  -9.800000       -3.4575435E-17
  -9.700000       -1.2058880E-16
  -9.600000       -2.2788728E-16
  -9.500000       -2.9142920E-16
  -9.400000       -2.4592953E-16
  -9.300000       -4.9943729E-17
  -9.200000        3.1362417E-16
  -9.100000        8.4581084E-16
  -9.000000        1.5309473E-15
  -8.900000        2.3313546E-15
  -8.800000        3.1970028E-15
  -8.700000        4.0943015E-15
  -8.600000        5.0265531E-15
  -8.500000        6.0098821E-15
  -8.400000        7.0007184E-15
  -8.300000        7.8175254E-15
  -8.200000        8.1138158E-15
  -8.100000        7.4254533E-15
  -8.000000        5.2646278E-15
  -7.900000        1.2127137E-15
  -7.800000       -5.0121658E-15
  -7.700000       -1.3501764E-14
  -7.600000       -2.4100324E-14
  -7.500000       -3.6350287E-14
  -7.400000       -4.9471945E-14
  -7.300000       -6.2398972E-14
  -7.200000       -7.3858183E-14
  -7.100000       -8.2461619E-14
  -7.000000       -8.6795785E-14
  -6.900000       -8.5527112E-14
  -6.800000       -7.7552073E-14
  -6.700000       -6.2186821E-14
  -6.600000       -3.9343932E-14
  -6.500000       -9.6296880E-15
  -6.400000        2.5668734E-14
  -6.300000        6.4683129E-14
  -6.200000        1.0510199E-13
  -6.100000        1.4431413E-13
  -6.000000        1.7955778E-13
  -5.900000        2.0808603E-13
  -5.800000        2.2734345E-13
  -5.700000        2.3513537E-13
  -5.600000        2.2977898E-13
  -5.500000        2.1024607E-13
  -5.400000        1.7630626E-13
  -5.300000        1.2864253E-13
  -5.200000        6.8868637E-14
  -5.100000       -6.2504186E-16
  -5.000000       -7.7015996E-14
  -4.900000       -1.5752242E-13
  -4.800000       -2.3989149E-13
  -4.700000       -3.2279436E-13
  -4.600000       -4.0606136E-13
  -4.500000       -4.9073370E-13
  -4.400000       -5.7893268E-13
  -4.300000       -6.7356223E-13
  -4.200000       -7.7788860E-13
  -4.100000       -8.9506386E-13
  -4.000000       -1.0276634E-12
  -3.900000       -1.1772716E-12
  -3.800000       -1.3441132E-12
  -3.700000       -1.5267146E-12
  -3.600000       -1.7216269E-12
  -3.500000       -1.9232916E-12
  -3.400000       -2.1241600E-12
  -3.300000       -2.3151210E-12
  -3.200000       -2.4862107E-12
  -3.100000       -2.6274907E-12
  -3.000000       -2.7299389E-12
  -2.900000       -2.7862059E-12
  -2.800000       -2.7911274E-12
  -2.700000       -2.7419440E-12
  -2.600000       -2.6382674E-12
  -2.500000       -2.4819109E-12
  -2.400000       -2.2767545E-12
  -2.300000       -2.0287843E-12
  -2.200000       -1.7463245E-12
  -2.100000       -1.4403425E-12
  -2.000000       -1.1245943E-12
  -1.900000       -8.1538769E-13
  -1.800000       -5.3082956E-13
  -1.700000       -2.8957899E-13
  -1.600000       -1.0926986E-13
  -1.500000       -4.8660442E-15
  -1.400000        1.2756583E-14
  -1.300000       -6.2245863E-14
  -1.200000       -2.3034003E-13
  -1.100000       -4.8682445E-13
  -1.000000       -8.2239684E-13
 -0.9000000       -1.2238225E-12
 -0.8000000       -1.6744993E-12
 -0.7000000       -2.1548581E-12
 -0.6000000       -2.6426942E-12
 -0.5000000       -3.1136120E-12
 -0.4000000       -3.5417713E-12
 -0.3000000       -3.9010449E-12
 -0.2000000       -4.1665638E-12
 -0.1000000       -4.3165046E-12
  0.0000000E+00   -4.3338584E-12
  0.1000000       -4.2078966E-12
  0.2000000       -3.9350884E-12
  0.3000000       -3.5193684E-12
  0.4000000       -2.9718175E-12
  0.5000000       -2.3099272E-12
  0.6000000       -1.5566689E-12
  0.7000000       -7.3950720E-13
  0.8000000        1.1059495E-13
  0.9000000        9.6023840E-13
   1.000000        1.7748218E-12
   1.100000        2.5200482E-12
   1.200000        3.1637405E-12
   1.300000        3.6779000E-12
   1.400000        4.0408224E-12
   1.500000        4.2389998E-12
   1.600000        4.2685053E-12
   1.700000        4.1356315E-12
   1.800000        3.8566780E-12
   1.900000        3.4569301E-12
   2.000000        2.9689697E-12
   2.100000        2.4305315E-12
   2.200000        1.8820999E-12
   2.300000        1.3644308E-12
   2.400000        9.1612221E-13
   2.500000        5.7131941E-13
   2.600000        3.5759636E-13
   2.700000        2.9406257E-13
   2.800000        3.8978345E-13
   2.900000        6.4266187E-13
   3.000000        1.0389645E-12
   3.100000        1.5536631E-12
   3.200000        2.1516896E-12
   3.300000        2.7900956E-12
   3.400000        3.4209868E-12
   3.500000        3.9949905E-12
   3.600000        4.4649358E-12
   3.700000        4.7893833E-12
   3.800000        4.9356665E-12
   3.900000        4.8822092E-12
   4.000000        4.6199884E-12
   4.100000        4.1531392E-12
   4.200000        3.4987664E-12
   4.300000        2.6860374E-12
   4.400000        1.7546339E-12
   4.500000        7.5260794E-13
   4.600000       -2.6631052E-13
   4.700000       -1.2458874E-12
   4.800000       -2.1309226E-12
   4.900000       -2.8709559E-12
   5.000000       -3.4238454E-12
   5.100000       -3.7588673E-12
   5.200000       -3.8589748E-12
   5.300000       -3.7219711E-12
   5.400000       -3.3604924E-12
   5.500000       -2.8008910E-12
   5.600000       -2.0812325E-12
   5.700000       -1.2486919E-12
   5.800000       -3.5662041E-13
   5.900000        5.3850088E-13
   6.000000        1.3801005E-12
   6.100000        2.1145175E-12
   6.200000        2.6939726E-12
   6.300000        3.0794883E-12
   6.400000        3.2436213E-12
   6.500000        3.1727457E-12
   6.600000        2.8685377E-12
   6.700000        2.3483407E-12
   6.800000        1.6442246E-12
   6.900000        8.0074977E-13
   7.000000       -1.2834550E-13
   7.100000       -1.0841563E-12
   7.200000       -2.0068550E-12
   7.300000       -2.8397102E-12
   7.400000       -3.5325330E-12
   7.500000       -4.0443707E-12
   7.600000       -4.3454628E-12
   7.700000       -4.4185727E-12
   7.800000       -4.2598243E-12
   7.900000       -3.8790637E-12
   8.000000       -3.2996761E-12
   8.100000       -2.5576941E-12
   8.200000       -1.7000660E-12
   8.300000       -7.8202120E-13
   8.400000        1.3640216E-13
   8.500000        9.9445517E-13
   8.600000        1.7350522E-12
   8.700000        2.3089716E-12
   8.800000        2.6784271E-12
   8.900000        2.8196575E-12
   9.000000        2.7243524E-12
   9.100000        2.3999173E-12
   9.200000        1.8686936E-12
   9.300000        1.1662996E-12
   9.400000        3.3924965E-13
   9.500000       -5.5798606E-13
   9.600000       -1.4663246E-12
   9.700000       -2.3256536E-12
   9.800000       -3.0785069E-12
   9.900000       -3.6736759E-12
   10.00000       -4.0695858E-12
   10.10000       -4.2372126E-12
   10.20000       -4.1622812E-12
   10.30000       -3.8465316E-12
   10.40000       -3.3079089E-12
   10.50000       -2.5796509E-12
   10.60000       -1.7083274E-12
   10.70000       -7.5094125E-13
   10.80000        2.2875701E-13
   10.90000        1.1645171E-12
   11.00000        1.9920964E-12
   11.10000        2.6536783E-12
   11.20000        3.1018627E-12
   11.30000        3.3029486E-12
   11.40000        3.2392971E-12
   11.50000        2.9106077E-12
   11.60000        2.3340097E-12
   11.70000        1.5429419E-12
   11.80000        5.8492490E-13
   11.90000       -4.8156607E-13
   12.00000       -1.5908542E-12
   12.10000       -2.6741732E-12
   12.20000       -3.6639008E-12
   12.30000       -4.4976865E-12
   12.40000       -5.1222377E-12
   12.50000       -5.4965333E-12
   12.60000       -5.5942824E-12
   12.70000       -5.4055081E-12
   12.80000       -4.9372225E-12
   12.90000       -4.2131572E-12
   13.00000       -3.2725242E-12
   13.10000       -2.1678217E-12
   13.20000       -9.6175715E-13
   13.30000        2.7652959E-13
   13.40000        1.4756903E-12
   13.50000        2.5665683E-12
   13.60000        3.4865056E-12
   13.70000        4.1832848E-12
   13.80000        4.6184272E-12
   13.90000        4.7695788E-12
   14.00000        4.6317941E-12
   14.10000        4.2176605E-12
   14.20000        3.5563232E-12
   14.30000        2.6915451E-12
   14.40000        1.6789493E-12
   14.50000        5.8259392E-13
   14.60000       -5.2893378E-13
   14.70000       -1.5866797E-12
   14.80000       -2.5254829E-12
   14.90000       -3.2878958E-12
   15.00000       -3.8276556E-12
   15.10000       -4.1125211E-12
   15.20000       -4.1262783E-12
   15.30000       -3.8697270E-12
   15.40000       -3.3605234E-12
   15.50000       -2.6318967E-12
   15.60000       -1.7303776E-12
   15.70000       -7.1277218E-13
   15.80000        3.5738247E-13
   15.90000        1.4136662E-12
   16.00000        2.3907365E-12
   16.10000        3.2282052E-12
   16.20000        3.8742364E-12
   16.30000        4.2886922E-12
   16.40000        4.4456795E-12
   16.50000        4.3353567E-12
   16.60000        3.9648259E-12
   16.70000        3.3579270E-12
   16.80000        2.5538122E-12
   16.90000        1.6043134E-12
   17.00000        5.7031853E-13
   17.10000       -4.8249311E-13
   17.20000       -1.4881472E-12
   17.30000       -2.3847163E-12
   17.40000       -3.1181886E-12
   17.50000       -3.6456229E-12
   17.60000       -3.9374380E-12
   17.70000       -3.9788069E-12
   17.80000       -3.7701968E-12
   17.90000       -3.3271658E-12
   18.00000       -2.6794641E-12
   18.10000       -1.8694287E-12
   18.20000       -9.4962027E-13
   18.30000        2.0301825E-14
   18.40000        9.7734689E-13
   18.50000        1.8593547E-12
   18.60000        2.6092141E-12
   18.70000        3.1787771E-12
   18.80000        3.5321321E-12
   18.90000        3.6479500E-12
   19.00000        3.5207072E-12
   19.10000        3.1607273E-12
   19.20000        2.5931286E-12
   19.30000        1.8558824E-12
   19.40000        9.9722151E-13
   19.50000        7.2594179E-14
   19.60000       -8.5870384E-13
   19.70000       -1.7371098E-12
   19.80000       -2.5064510E-12
   19.90000       -3.1174900E-12
   20.00000       -3.5311276E-12
   20.10000       -3.7210330E-12
   20.20000       -3.6754861E-12
   20.30000       -3.3982559E-12
   20.40000       -2.9083808E-12
   20.50000       -2.2388350E-12
   20.60000       -1.4341707E-12
   20.70000       -5.4736787E-13
   20.80000        3.6381128E-13
   20.90000        1.2406659E-12
   21.00000        2.0273408E-12
   21.10000        2.6743479E-12
   21.20000        3.1416447E-12
   21.30000        3.4011025E-12
   21.40000        3.4382252E-12
   21.50000        3.2530144E-12
   21.60000        2.8599358E-12
   21.70000        2.2869842E-12
   21.80000        1.5738783E-12
   21.90000        7.6946945E-13
   22.00000       -7.1498586E-14
   22.10000       -8.9205748E-13
   22.20000       -1.6368401E-12
   22.30000       -2.2557720E-12
   22.40000       -2.7073764E-12
   22.50000       -2.9614716E-12
   22.60000       -3.0011059E-12
   22.70000       -2.8236150E-12
   22.80000       -2.4407427E-12
   22.90000       -1.8778358E-12
   23.00000       -1.1721882E-12
   23.10000       -3.7065931E-13
   23.20000        4.7328000E-13
   23.30000        1.3029254E-12
   23.40000        2.0619730E-12
   23.50000        2.6982275E-12
   23.60000        3.1671538E-12
   23.70000        3.4350194E-12
   23.80000        3.4813619E-12
   23.90000        3.3005573E-12
   24.00000        2.9023233E-12
   24.10000        2.3110858E-12
   24.20000        1.5642484E-12
   24.30000        7.0951198E-13
   24.40000       -1.9850511E-13
   24.50000       -1.1020330E-12
   24.60000       -1.9439741E-12
   24.70000       -2.6715104E-12
   24.80000       -3.2392940E-12
   24.90000       -3.6121158E-12
   25.00000       -3.7669854E-12
   25.10000       -3.6945681E-12
   25.20000       -3.3999112E-12
   25.30000       -2.9023591E-12
   25.40000       -2.2345964E-12
   25.50000       -1.4407738E-12
   25.60000       -5.7376738E-13
   25.70000        3.0830690E-13
   25.80000        1.1460863E-12
   25.90000        1.8831436E-12
   26.00000        2.4699804E-12
   26.10000        2.8674667E-12
   26.20000        3.0494422E-12
   26.30000        3.0043299E-12
   26.40000        2.7357283E-12
   26.50000        2.2620423E-12
   26.60000        1.6152292E-12
   26.70000        8.3875691E-13
   26.80000       -1.5124381E-14
   26.90000       -8.8867157E-13
   27.00000       -1.7223412E-12
   27.10000       -2.4586947E-12
   27.20000       -3.0462954E-12
   27.30000       -3.4433378E-12
   27.40000       -3.6207064E-12
   27.50000       -3.5641724E-12
   27.60000       -3.2755077E-12
   27.70000       -2.7724080E-12
   27.80000       -2.0872787E-12
   27.90000       -1.2650198E-12
   28.00000       -3.6001036E-13
   28.10000        5.6751007E-13
   28.20000        1.4554447E-12
   28.30000        2.2439843E-12
   28.40000        2.8796329E-12
   28.50000        3.3188495E-12
   28.60000        3.5310632E-12
   28.70000        3.5008604E-12
   28.80000        3.2291587E-12
   28.90000        2.7332316E-12
   29.00000        2.0455321E-12
   29.10000        1.2113944E-12
   29.20000        2.8582724E-13
   29.30000       -6.7029195E-13
   29.40000       -1.5943076E-12
   29.50000       -2.4258870E-12
   29.60000       -3.1109063E-12
   29.70000       -3.6049219E-12
   29.80000       -3.8760314E-12
   29.90000       -3.9069555E-12
   30.00000       -3.6962169E-12
   30.10000       -3.2583493E-12
   30.20000       -2.6230958E-12
   30.30000       -1.8335951E-12
   30.40000       -9.4360294E-13
   30.50000       -1.3890129E-14
   30.60000        8.9191697E-13
   30.70000        1.7117079E-12
   30.80000        2.3891147E-12
   30.90000        2.8772928E-12
   31.00000        3.1420294E-12
   31.10000        3.1639949E-12
   31.20000        2.9400031E-12
   31.30000        2.4831864E-12
   31.40000        1.8220831E-12
   31.50000        9.9873202E-13
   31.60000        6.5928267E-14
   31.70000       -9.1617404E-13
   31.80000       -1.8839195E-12
   31.90000       -2.7742476E-12
   32.00000       -3.5287624E-12
   32.10000       -4.0974806E-12
   32.20000       -4.4420015E-12
   32.30000       -4.5379130E-12
   32.40000       -4.3763357E-12
   32.50000       -3.9645492E-12
   32.60000       -3.3256562E-12
   32.70000       -2.4972619E-12
   32.80000       -1.5292025E-12
   32.90000       -4.8045969E-13
   33.00000        5.8453443E-13
   33.10000        1.5999493E-12
   33.20000        2.5027148E-12
   33.30000        3.2365284E-12
   33.40000        3.7554456E-12
   33.50000        4.0267858E-12
   33.60000        4.0331523E-12
   33.70000        3.7734455E-12
   33.80000        3.2628644E-12
   33.90000        2.5319406E-12
   34.00000        1.6246693E-12
   34.10000        5.9580352E-13
   34.20000       -4.9256411E-13
   34.30000       -1.5749301E-12
   34.40000       -2.5865410E-12
   34.50000       -3.4674720E-12
   34.60000       -4.1663413E-12
   34.70000       -4.6434202E-12
   34.80000       -4.8729423E-12
   34.90000       -4.8444781E-12
   35.00000       -4.5633011E-12
   35.10000       -4.0497861E-12
   35.20000       -3.3379556E-12
   35.30000       -2.4733230E-12
   35.40000       -1.5101619E-12
   35.50000       -5.0828965E-13
   35.60000        4.7052558E-13
   35.70000        1.3663777E-12
   35.80000        2.1250087E-12
   35.90000        2.7012852E-12
   36.00000        3.0620812E-12
   36.10000        3.1883463E-12
   36.20000        3.0761769E-12
   36.30000        2.7368119E-12
   36.40000        2.1955495E-12
   36.50000        1.4897198E-12
   36.60000        6.6594045E-13
   36.70000       -2.2307274E-13
   36.80000       -1.1218886E-12
   36.90000       -1.9757505E-12
   37.00000       -2.7338281E-12
   37.10000       -3.3521918E-12
   37.20000       -3.7963521E-12
   37.30000       -4.0432189E-12
   37.40000       -4.0823521E-12
   37.50000       -3.9164444E-12
   37.60000       -3.5610039E-12
   37.70000       -3.0432534E-12
   37.80000       -2.4002942E-12
   37.90000       -1.6766553E-12
   38.00000       -9.2138992E-13
   38.10000       -1.8493189E-13
   38.20000        4.8409540E-13
   38.30000        1.0419442E-12
   38.40000        1.4525146E-12
   38.50000        1.6896608E-12
   38.60000        1.7388441E-12
   38.70000        1.5979806E-12
   38.80000        1.2773956E-12
   38.90000        7.9891009E-13
   39.00000        1.9416498E-13
   39.10000       -4.9765004E-13
   39.20000       -1.2324587E-12
   39.30000       -1.9641398E-12
   39.40000       -2.6473411E-12
   39.50000       -3.2401052E-12
   39.60000       -3.7062011E-12
   39.70000       -4.0171122E-12
   39.80000       -4.1536436E-12
   39.90000       -4.1070853E-12
   40.00000       -3.8798279E-12
   40.10000       -3.4853275E-12
   40.20000       -2.9473548E-12
   40.30000       -2.2985387E-12
   40.40000       -1.5782901E-12
   40.50000       -8.3025850E-13
   40.60000       -9.9513456E-14
   40.70000        5.7033490E-13
   40.80000        1.1398598E-12
   40.90000        1.5762126E-12
   41.00000        1.8550660E-12
   41.10000        1.9620373E-12
   41.20000        1.8935435E-12
   41.30000        1.6570252E-12
   41.40000        1.2704804E-12
   41.50000        7.6127738E-13
   41.60000        1.6429406E-13
   41.70000       -4.8047943E-13
   41.80000       -1.1306690E-12
   41.90000       -1.7443366E-12
   42.00000       -2.2826608E-12
   42.10000       -2.7122814E-12
   42.20000       -3.0071676E-12
   42.30000       -3.1499584E-12
   42.40000       -3.1327876E-12
   42.50000       -2.9576537E-12
   42.60000       -2.6363633E-12
   42.70000       -2.1900290E-12
   42.80000       -1.6480414E-12
   42.90000       -1.0464562E-12
   43.00000       -4.2579872E-13
   43.10000        1.7159208E-13
   43.20000        7.0447294E-13
   43.30000        1.1355917E-12
   43.40000        1.4342901E-12
   43.50000        1.5785670E-12
   43.60000        1.5564311E-12
   43.70000        1.3664878E-12
   43.80000        1.0178211E-12
   43.90000        5.2931504E-13
   44.00000       -7.1442947E-14
   44.10000       -7.4959017E-13
   44.20000       -1.4647402E-12
   44.30000       -2.1730742E-12
   44.40000       -2.8297562E-12
   44.50000       -3.3915817E-12
   44.60000       -3.8197080E-12
   44.70000       -4.0822510E-12
   44.80000       -4.1565297E-12
   44.90000       -4.0307315E-12
   45.00000       -3.7048190E-12
   45.10000       -3.1905971E-12
   45.20000       -2.5109752E-12
   45.30000       -1.6985588E-12
   45.40000       -7.9375682E-13
   45.50000        1.5744830E-13
   45.60000        1.1059682E-12
   45.70000        2.0022443E-12
   45.80000        2.7989692E-12
   45.90000        3.4537735E-12
   46.00000        3.9317295E-12
   46.10000        4.2075267E-12
   46.20000        4.2671522E-12
   46.30000        4.1089424E-12
   46.40000        3.7438559E-12
   46.50000        3.1948890E-12
   46.60000        2.4956530E-12
   46.70000        1.6882192E-12
   46.80000        8.2041914E-13
   46.90000       -5.7206715E-14
   47.00000       -8.9461999E-13
   47.10000       -1.6454666E-12
   47.20000       -2.2700242E-12
   47.30000       -2.7377009E-12
   47.40000       -3.0288987E-12
   47.50000       -3.1361307E-12
   47.60000       -3.0643391E-12
   47.70000       -2.8304271E-12
   47.80000       -2.4620180E-12
   47.90000       -1.9955045E-12
   48.00000       -1.4734893E-12
   48.10000       -9.4178539E-13
   48.20000       -4.4618543E-13
   48.30000       -2.9216030E-14
   48.40000        2.7291480E-13
   48.50000        4.3296451E-13
   48.60000        4.3467863E-13
   48.70000        2.7398515E-13
   48.80000       -4.0761163E-14
   48.90000       -4.8949462E-13
   49.00000       -1.0419955E-12
   49.10000       -1.6601035E-12
   49.20000       -2.3003819E-12
   49.30000       -2.9170444E-12
   49.40000       -3.4649677E-12
   49.50000       -3.9026143E-12
   49.60000       -4.1947127E-12
   49.70000       -4.3145652E-12
   49.80000       -4.2458736E-12
   49.90000       -3.9839837E-12
   50.00000       -3.5364155E-12
   50.10000       -2.9225598E-12
   50.20000       -2.1724989E-12
   50.30000       -1.3250208E-12
   50.40000       -4.2501996E-13
   50.50000        4.7944249E-13
   50.60000        1.3401652E-12
   50.70000        2.1117023E-12
   50.80000        2.7539631E-12
   50.90000        3.2343950E-12
   51.00000        3.5296794E-12
   51.10000        3.6269104E-12
   51.20000        3.5242597E-12
   51.30000        3.2311163E-12
   51.40000        2.7676505E-12
   51.50000        2.1637215E-12
   51.60000        1.4571112E-12
   51.70000        6.9115747E-13
   51.80000       -8.8010084E-14
   51.90000       -8.3437342E-13
   52.00000       -1.5048163E-12
   52.10000       -2.0616150E-12
   52.20000       -2.4744913E-12
   52.30000       -2.7221547E-12
   52.40000       -2.7932981E-12
   52.50000       -2.6870658E-12
   52.60000       -2.4130368E-12
   52.70000       -1.9907455E-12
   52.80000       -1.4487025E-12
   52.90000       -8.2284537E-13
   53.00000       -1.5437841E-13
   53.10000        5.1291328E-13
   53.20000        1.1356649E-12
   53.30000        1.6739526E-12
   53.40000        2.0940400E-12
   53.50000        2.3706178E-12
   53.60000        2.4883769E-12
   53.70000        2.4428207E-12
   53.80000        2.2402993E-12
   53.90000        1.8973239E-12
   54.00000        1.4392936E-12
   54.10000        8.9877313E-13
   54.20000        3.1340886E-13
   54.30000       -2.7647006E-13
   54.40000       -8.3052212E-13
   54.50000       -1.3112066E-12
   54.60000       -1.6865107E-12
   54.70000       -1.9323089E-12
   54.80000       -2.0341105E-12
   54.90000       -1.9880343E-12
   55.00000       -1.8009460E-12
   55.10000       -1.4897592E-12
   55.20000       -1.0799727E-12
   55.30000       -6.0359947E-13
   55.40000       -9.6710590E-14
   55.50000        4.0315545E-13
   55.60000        8.5953071E-13
   55.70000        1.2393901E-12
   55.80000        1.5152998E-12
   55.90000        1.6672573E-12
   56.00000        1.6840905E-12
   56.10000        1.5642672E-12
   56.20000        1.3160148E-12
   56.30000        9.5674705E-13
   56.40000        5.1186198E-13
   56.50000        1.3001496E-14
   56.60000       -5.0412620E-13
   56.70000       -1.0022249E-12
   56.80000       -1.4450006E-12
   56.90000       -1.7996488E-12
   57.00000       -2.0390493E-12
   57.10000       -2.1435672E-12
   57.20000       -2.1024009E-12
   57.30000       -1.9144267E-12
   57.40000       -1.5884623E-12
   57.50000       -1.1428756E-12
   57.60000       -6.0452722E-13
   57.70000       -7.1463323E-15
   57.80000        6.1069774E-13
   57.90000        1.2078749E-12
   58.00000        1.7431071E-12
   58.10000        2.1774171E-12
   58.20000        2.4764969E-12
   58.30000        2.6128385E-12
   58.40000        2.5674788E-12
   58.50000        2.3312539E-12
   58.60000        1.9055022E-12
   58.70000        1.3021427E-12
   58.80000        5.4305410E-13
   58.90000       -3.4132823E-13
   59.00000       -1.3141780E-12
   59.10000       -2.3350655E-12
   59.20000       -3.3631366E-12
   59.30000       -4.3604499E-12
   59.40000       -5.2953059E-12
   59.50000       -6.1454622E-12
   59.60000       -6.9011442E-12
   59.70000       -7.5677485E-12
   59.80000       -8.1681441E-12
   59.90000       -8.7444999E-12
   60.00000       -9.3596424E-12
   60.10000       -1.0097921E-11
   60.20000       -1.1065569E-11
   60.30000       -1.2390563E-11
   60.40000       -1.4222033E-11
   60.50000       -1.6729477E-11
   60.60000       -2.0102057E-11
   60.70000       -2.4548351E-11
   60.80000       -3.0296845E-11
   60.90000       -3.7597290E-11
   61.00000       -4.6723150E-11
   61.10000       -5.7975114E-11
   61.20000       -7.1685873E-11
   61.30000       -8.8226065E-11
   61.40000       -1.0801138E-10
   61.50000       -1.3151059E-10
   61.60000       -1.5925450E-10
   61.70000       -1.9184535E-10
   61.80000       -2.2996681E-10
   61.90000       -2.7439392E-10
   62.00000       -3.2600270E-10
   62.10000       -3.8577863E-10
   62.20000       -4.5482415E-10
   62.30000       -5.3436439E-10
   62.40000       -6.2575067E-10
   62.50000       -7.3046225E-10
   62.60000       -8.5010499E-10
   62.70000       -9.8640751E-10
   62.80000       -1.1412149E-09
   62.90000       -1.3164778E-09
   63.00000       -1.5142406E-09
   63.10000       -1.7366245E-09
   63.20000       -1.9858091E-09
   63.30000       -2.2640094E-09
   63.40000       -2.5734506E-09
   63.50000       -2.9163394E-09
   63.60000       -3.2948340E-09
   63.70000       -3.7110086E-09
   63.80000       -4.1668176E-09
   63.90000       -4.6640540E-09
   64.00000       -5.2043116E-09
   64.10000       -5.7889373E-09
   64.20000       -6.4189880E-09
   64.30000       -7.0951849E-09
   64.40000       -7.8178672E-09
   64.50000       -8.5869472E-09
   64.60000       -9.4018615E-09
   64.70000       -1.0261532E-08
   64.80000       -1.1164325E-08
   64.90000       -1.2108011E-08
   65.00000       -1.3089738E-08
   65.10000       -1.4105999E-08
   65.20000       -1.5152617E-08
   65.30000       -1.6224734E-08
   65.40000       -1.7316802E-08
   65.50000       -1.8422609E-08
   65.60000       -1.9535280E-08
   65.70000       -2.0647326E-08
   65.80000       -2.1750678E-08
   65.90000       -2.2836751E-08
   66.00000       -2.3896513E-08
   66.10000       -2.4920563E-08
   66.20000       -2.5899233E-08
   66.30000       -2.6822679E-08
   66.40000       -2.7681013E-08
   66.50000       -2.8464404E-08
   66.60000       -2.9163227E-08
   66.70000       -2.9768183E-08
   66.80000       -3.0270431E-08
   66.90000       -3.0661727E-08
   67.00000       -3.0934544E-08
   67.10000       -3.1082198E-08
   67.20000       -3.1098953E-08
   67.30000       -3.0980129E-08
   67.40000       -3.0722180E-08
   67.50000       -3.0322784E-08
   67.60000       -2.9780884E-08
   67.70000       -2.9096723E-08
   67.80000       -2.8271867E-08
   67.90000       -2.7309200E-08
   68.00000       -2.6212893E-08
   68.10000       -2.4988378E-08
   68.20000       -2.3642272E-08
   68.30000       -2.2182320E-08
   68.40000       -2.0617286E-08
   68.50000       -1.8956859E-08
   68.60000       -1.7211526E-08
   68.70000       -1.5392452E-08
   68.80000       -1.3511329E-08
   68.90000       -1.1580254E-08
   69.00000       -9.6115738E-09
   69.10000       -7.6177473E-09
   69.20000       -5.6112097E-09
   69.30000       -3.6042291E-09
   69.40000       -1.6087878E-09
   69.50000        3.6354469E-10
   69.60000        2.3017175E-09
   69.70000        4.1952992E-09
   69.80000        6.0345635E-09
   69.90000        7.8105593E-09
   70.00000        9.5151735E-09
   70.10000        1.1141172E-08
   70.20000        1.2682235E-08
   70.30000        1.4132967E-08
   70.40000        1.5488904E-08
   70.50000        1.6746514E-08
   70.60000        1.7903163E-08
   70.70000        1.8957103E-08
   70.80000        1.9907416E-08
   70.90000        2.0753987E-08
   71.00000        2.1497428E-08
   71.10000        2.2139050E-08
   71.20000        2.2680785E-08
   71.30000        2.3125128E-08
   71.40000        2.3475080E-08
   71.50000        2.3734071E-08
   71.60000        2.3905919E-08
   71.70000        2.3994756E-08
   71.80000        2.4004983E-08
   71.90000        2.3941212E-08
   72.00000        2.3808221E-08
   72.10000        2.3610911E-08
   72.20000        2.3354264E-08
   72.30000        2.3043318E-08
   72.40000        2.2683126E-08
   72.50000        2.2278735E-08
   72.60000        2.1835159E-08
   72.70000        2.1357359E-08
   72.80000        2.0850221E-08
   72.90000        2.0318550E-08
   73.00000        1.9767040E-08
   73.10000        1.9200252E-08
   73.20000        1.8622611E-08
   73.30000        1.8038374E-08
   73.40000        1.7451626E-08
   73.50000        1.6866240E-08
   73.60000        1.6285874E-08
   73.70000        1.5713933E-08
   73.80000        1.5153548E-08
   73.90000        1.4607553E-08
   74.00000        1.4078466E-08
   74.10000        1.3568455E-08
   74.20000        1.3079321E-08
   74.30000        1.2612474E-08
   74.40000        1.2168921E-08
   74.50000        1.1749256E-08
   74.60000        1.1353654E-08
   74.70000        1.0981867E-08
   74.80000        1.0633233E-08
   74.90000        1.0306680E-08
   75.00000        1.0000758E-08
   75.10000        9.7136565E-09
   75.20000        9.4432506E-09
   75.30000        9.1871293E-09
   75.40000        8.9426457E-09
   75.50000        8.7069694E-09
   75.60000        8.4771434E-09
   75.70000        8.2501481E-09
   75.80000        8.0229636E-09
   75.90000        7.7926305E-09
   76.00000        7.5563165E-09
   76.10000        7.3113786E-09
   76.20000        7.0554269E-09
   76.30000        6.7863843E-09
   76.40000        6.5025350E-09
   76.50000        6.2025678E-09
   76.60000        5.8856187E-09
   76.70000        5.5513030E-09
   76.80000        5.1997446E-09
   76.90000        4.8315898E-09
   77.00000        4.4480135E-09
   77.10000        4.0507144E-09
   77.20000        3.6418999E-09
   77.30000        3.2242640E-09
   77.40000        2.8009528E-09
   77.50000        2.3755211E-09
   77.60000        1.9518769E-09
   77.70000        1.5342213E-09
   77.80000        1.1269853E-09
   77.90000        7.3475881E-10
   78.00000        3.6221601E-10
   78.10000        1.4033001E-11
   78.20000       -3.0519767E-10
   78.30000       -5.9105287E-10
   78.40000       -8.3936214E-10
   78.50000       -1.0462887E-09
   78.60000       -1.2084068E-09
   78.70000       -1.3227739E-09
   78.80000       -1.3869959E-09
   78.90000       -1.3992816E-09
   79.00000       -1.3584871E-09
   79.10000       -1.2641511E-09
   79.20000       -1.1165212E-09
   79.30000       -9.1656926E-10
   79.40000       -6.6599470E-10
   79.50000       -3.6721287E-10
   79.60000       -2.3329795E-11
   79.70000        3.6189479E-10
   79.80000        7.8409534E-10
   79.90000        1.2383594E-09
   80.00000        1.7192967E-09
   80.10000        2.2211182E-09
   80.20000        2.7377214E-09
   80.30000        3.2627809E-09
   80.40000        3.7898409E-09
   80.50000        4.3124109E-09
   80.60000        4.8240620E-09
   80.70000        5.3185243E-09
   80.80000        5.7897802E-09