 -0.622799993         1.00000002E-24
 -0.610800028         1.00000002E-24
 -0.598800004         1.00000002E-24
 -0.586799979         1.00000002E-24
 -0.574800014        -2.51978804E-21
 -0.562799990        -1.76459419E-20
 -0.550800025        -6.30564111E-20
 -0.538800001        -1.48278432E-19
 -0.526799977        -2.45774799E-19
 -0.514800012        -2.82738062E-19
 -0.502799988        -2.15225002E-19
 -0.490799993        -2.30338394E-19
 -0.478799999        -1.02995267E-18
 -0.466800004        -3.99587834E-18
 -0.454800010        -1.09104883E-17
 -0.442799985        -2.29530030E-17
 -0.430799991        -3.90289985E-17
 -0.418799996        -5.40957757E-17
 -0.406800002        -5.87667224E-17
 -0.394800007        -4.16625497E-17
 -0.382800013         4.72804775E-18
 -0.370799989         7.56538726E-17
 -0.358799994         1.46459779E-16
 -0.346799999         1.70762967E-16
 -0.334800005         8.93438309E-17
 -0.322800010        -1.48466625E-16
 -0.310799986        -5.54961587E-16
 -0.298799992        -1.07651694E-15
 -0.286799997        -1.58327631E-15
 -0.274800003        -1.88940736E-15
 -0.262800008        -1.80818855E-15
 -0.250800014        -1.23123555E-15
 -0.238800004        -2.05700734E-16
 -0.226799995         1.02523777E-15
 -0.214800000         2.04821524E-15
 -0.202800006         2.38093105E-15
 -0.190799996         1.62714553E-15
 -0.178800002        -3.65352177E-16
 -0.166800007        -3.40755531E-15
 -0.154799998        -6.98302263E-15
 -0.142800003        -1.03826554E-14
 -0.130799994        -1.29171999E-14
 -0.118799999        -1.41209286E-14
 -0.106799997        -1.38512291E-14
  -9.48000029E-02    -1.22272204E-14
  -8.28000009E-02    -9.42764187E-15
  -7.07999989E-02    -5.45351025E-15
  -5.88000007E-02    -9.94372095E-18
  -4.67999987E-02     7.36307869E-15
  -3.48000005E-02     1.68897201E-14
  -2.28000004E-02     2.80266041E-14
  -1.08000003E-02     3.90850038E-14
   1.20000006E-03     4.73362126E-14
   1.31999999E-02     4.98143532E-14
   2.52000000E-02     4.47548289E-14
   3.72000001E-02     3.32496278E-14
   4.91999984E-02     2.04067415E-14
   6.12000003E-02     1.52332591E-14
   7.32000023E-02     2.87318726E-14
   8.51999968E-02     7.02983746E-14
   9.71999988E-02     1.43278537E-13
  0.109200001         2.41203596E-13
  0.121200003         3.46459217E-13
  0.133200005         4.32728994E-13
  0.145199999         4.71471766E-13
  0.157199994         4.41195366E-13
  0.169200003         3.36870885E-13
  0.181199998         1.76053020E-13
  0.193200007        -1.37679742E-15
  0.205200002        -1.41341854E-13
  0.217199996        -1.90541485E-13
  0.229200006        -1.14505153E-13
  0.241200000         8.69681321E-14
  0.253199995         3.72964870E-13
  0.265199989         6.67357391E-13
  0.277200013         8.77909453E-13
  0.289200008         9.24456692E-13
  0.301200002         7.68032448E-13
  0.313199997         4.30907073E-13
  0.325199991        -1.20784050E-15
  0.337199986        -3.98980057E-13
  0.349200010        -6.28649693E-13
  0.361200005        -6.00783637E-13
  0.373199999        -3.13685276E-13
  0.385199994         1.24408310E-13
  0.397199988         5.06110507E-13
  0.409200013         5.71787626E-13
  0.421200007         8.47440946E-14
  0.433200002        -1.08328537E-12
  0.445199996        -2.88028195E-12
  0.457199991        -5.03909978E-12
  0.469199985        -7.09531652E-12
  0.481200010        -8.46028716E-12
  0.493200004        -8.53678673E-12
  0.505200028        -6.85194783E-12
  0.517199993        -3.17604732E-12
  0.529200017         2.40173723E-12
  0.541199982         9.45841409E-12
  0.553200006         1.72845158E-11
  0.565199971         2.49782712E-11
  0.577199996         3.15594009E-11
  0.589200020         3.60725477E-11
  0.601199985         3.76581370E-11
  0.613200009         3.55844312E-11
  0.625199974         2.92536481E-11
  0.637199998         1.82104765E-11
  0.649200022         2.18676943E-12
  0.661199987        -1.87918136E-11
  0.673200011        -4.42325482E-11
  0.685199976        -7.29600755E-11
  0.697200000        -1.02911853E-10
  0.709200025        -1.31016920E-10
  0.721199989        -1.53232663E-10
  0.733200014        -1.64795524E-10
  0.745199978        -1.60704741E-10
  0.757200003        -1.36410494E-10
  0.769200027        -8.86294649E-11
  0.781199992        -1.61747699E-11
  0.793200016         7.93299593E-11
  0.805199981         1.92975164E-10
  0.817200005         3.16423776E-10
  0.829200029         4.38156317E-10
  0.841199994         5.44111978E-10
  0.853200018         6.18694318E-10
  0.865199983         6.46084131E-10
  0.877200007         6.11786066E-10
  0.889199972         5.04325970E-10
  0.901199996         3.17006726E-10
  0.913200021         4.96109404E-11
  0.925199986        -2.90092311E-10
  0.937200010        -6.85216661E-10
  0.949199975        -1.10922327E-09
  0.961199999        -1.52621671E-09
  0.973200023        -1.89229232E-09
  0.985199988        -2.15809104E-09
  0.997200012        -2.27259833E-09
   1.00919998        -2.18806573E-09
   1.02119994        -1.86574134E-09
   1.03320003        -1.28191535E-09
   1.04519999        -4.33627217E-10
   1.05719995         6.56701360E-10
   1.06920004         1.93845429E-09
   1.08120000         3.33249139E-09
   1.09319997         4.73378758E-09
   1.10520005         6.01728800E-09
   1.11720002         7.04691860E-09
   1.12919998         7.68740449E-09
   1.14119995         7.81819409E-09
   1.15320003         7.34853645E-09
   1.16520000         6.23249541E-09
   1.17719996         4.48252946E-09
   1.18920004         2.18017093E-09
   1.20120001        -5.17599796E-10
   1.21319997        -3.37754091E-09
   1.22520006        -6.09578343E-09
   1.23720002        -8.31031244E-09
   1.24919999        -9.61999547E-09
   1.26119995        -9.60905489E-09
   1.27320004        -7.87503573E-09
   1.28520000        -4.05739042E-09
   1.29719996         2.13688822E-09
   1.30920005         1.09147651E-08
   1.32120001         2.23901804E-08
   1.33319998         3.65928656E-08
   1.34519994         5.34966809E-08
   1.35720003         7.30703320E-08
   1.36919999         9.53518082E-08
   1.38119996         1.20546474E-07
   1.39320004         1.49146729E-07
   1.40520000         1.82068888E-07
   1.41719997         2.20801496E-07
   1.42920005         2.67556175E-07
   1.44120002         3.25412117E-07
   1.45319998         3.98441756E-07
   1.46519995         4.91806531E-07
   1.47720003         6.11810037E-07
   1.48920000         7.65897198E-07
   1.50119996         9.62589525E-07
   1.51320004         1.21134974E-06
   1.52520001         1.52237158E-06
   1.53719997         1.90629316E-06
   1.54920006         2.37384302E-06
   1.56120002         2.93542280E-06
   1.57319999         3.60064359E-06
   1.58519995         4.37783456E-06
   1.59720004         5.27354905E-06
   1.60920000         6.29207943E-06
   1.62119997         7.43502687E-06
   1.63320005         8.70093663E-06
   1.64520001         1.00850230E-05
   1.65719998         1.15790244E-05
   1.66919994         1.31711777E-05
   1.68120003         1.48463396E-05
   1.69319999         1.65862693E-05
   1.70519996         1.83700358E-05
   1.71720004         2.01745715E-05
   1.72920001         2.19753456E-05
   1.74119997         2.37471140E-05
   1.75320005         2.54647166E-05
   1.76520002         2.71039280E-05
   1.77719998         2.86422510E-05
   1.78919995         3.00596657E-05
   1.80120003         3.13392848E-05
   1.81320000         3.24678731E-05
   1.82519996         3.34361976E-05
   1.83720005         3.42392377E-05
   1.84920001         3.48761423E-05
   1.86119998         3.53500618E-05
   1.87320006         3.56677774E-05
   1.88520002         3.58391917E-05
   1.89719999         3.58766883E-05
   1.90919995         3.57944082E-05
   1.92120004         3.56074961E-05
   1.93320000         3.53313662E-05
   1.94519997         3.49809852E-05
   1.95720005         3.45702792E-05
   1.96920002         3.41116756E-05
   1.98119998         3.36157682E-05
   1.99319994         3.30912044E-05
   2.00519991         3.25447181E-05
   2.01719999         3.19813589E-05
   2.02920008         3.14048812E-05
   2.04119992         3.08182425E-05
   2.05320001         3.02242188E-05
   2.06520009         2.96260187E-05
   2.07719994         2.90279477E-05
   2.08920002         2.84359285E-05
   2.10120010         2.78579846E-05
   2.11319995         2.73045025E-05
   2.12520003         2.67883279E-05
   2.13720012         2.63246493E-05
   2.14919996         2.59306198E-05
   2.16120005         2.56247931E-05
   2.17319989         2.54263305E-05
   2.18519998         2.53540493E-05
   2.19720006         2.54253555E-05
   2.20919991         2.56551066E-05
   2.22119999         2.60544930E-05
   2.23320007         2.66299903E-05
   2.24519992         2.73824626E-05
   2.25720000         2.83064765E-05
   2.26920009         2.93899047E-05
   2.28119993         3.06138281E-05
   2.29320002         3.19527790E-05
   2.30520010         3.33753487E-05
   2.31719995         3.48451395E-05
   2.32920003         3.63219988E-05
   2.34120011         3.77635406E-05
   2.35319996         3.91268695E-05
   2.36520004         4.03703889E-05
   2.37719989         4.14557071E-05
   2.38919997         4.23494275E-05
   2.40120006         4.30248292E-05
   2.41319990         4.34633221E-05
   2.42519999         4.36555638E-05
   2.43720007         4.36022710E-05
   2.44919991         4.33145615E-05
   2.46120000         4.28139210E-05
   2.47320008         4.21316654E-05
   2.48519993         4.13080561E-05
   2.49720001         4.03909726E-05
   2.50920010         3.94342642E-05
   2.52119994         3.84958257E-05
   2.53320003         3.76354801E-05
   2.54520011         3.69127411E-05
   2.55719995         3.63845429E-05
   2.56920004         3.61030070E-05
   2.58119988         3.61133789E-05
   2.59319997         3.64521438E-05
   2.60520005         3.71454553E-05
   2.61719990         3.82078651E-05
   2.62919998         3.96414653E-05
   2.64120007         4.14354326E-05
   2.65319991         4.35659967E-05
   2.66520000         4.59968323E-05
   2.67720008         4.86798708E-05
   2.68919992         5.15564861E-05
   2.70120001         5.45590228E-05
   2.71320009         5.76125931E-05
   2.72519994         6.06371505E-05
   2.73720002         6.35496399E-05
   2.74920011         6.62663224E-05
   2.76119995         6.87050415E-05
   2.77320004         7.07874642E-05
   2.78520012         7.24411657E-05
   2.79719996         7.36015572E-05
   2.80920005         7.42135016E-05
   2.82119989         7.42326956E-05
   2.83319998         7.36266811E-05
   2.84520006         7.23755438E-05
   2.85719991         7.04722333E-05
   2.86919999         6.79225559E-05
   2.88120008         6.47448760E-05
   2.89319992         6.09694434E-05
   2.90520000         5.66375420E-05
   2.91720009         5.18003835E-05
   2.92919993         4.65178091E-05
   2.94120002         4.08568849E-05
   2.95320010         3.48904068E-05
   2.96519995         2.86953309E-05
   2.97720003         2.23512034E-05
   2.98920012         1.59386364E-05
   3.00119996         9.53780000E-06
   3.01320004         3.22699680E-06
   3.02519989        -2.91865899E-06
   3.03719997        -8.82846780E-06
   3.04920006        -1.44372607E-05
   3.06119990        -1.96863512E-05
   3.07319999        -2.45243828E-05
   3.08520007        -2.89079926E-05
   3.09719992        -3.28023307E-05
   3.10920000        -3.61814273E-05
   3.12120008        -3.90283494E-05
   3.13319993        -4.13352282E-05
   3.14520001        -4.31030894E-05
   3.15720010        -4.43415229E-05
   3.16919994        -4.50682091E-05
   3.18120003        -4.53082503E-05
   3.19320011        -4.50934422E-05
   3.20519996        -4.44613725E-05
   3.21720004        -4.34544636E-05
   3.22919989        -4.21189143E-05
   3.24119997        -4.05036189E-05
   3.25320005        -3.86590764E-05
   3.26519990        -3.66362656E-05
   3.27719998        -3.44856053E-05
   3.28920007        -3.22558881E-05
   3.30119991        -2.99933818E-05
   3.31320000        -2.77409199E-05
   3.32520008        -2.55371706E-05
   3.33719993        -2.34159543E-05
   3.34920001        -2.14057254E-05
   3.36120009        -1.95291577E-05
   3.37319994        -1.78028749E-05
   3.38520002        -1.62373435E-05
   3.39720011        -1.48368936E-05
   3.40919995        -1.35999071E-05
   3.42120004        -1.25191764E-05
   3.43319988        -1.15824050E-05
   3.44519997        -1.07728756E-05
   3.45720005        -1.00702509E-05
   3.46919990        -9.45149804E-06
   3.48119998        -8.89191597E-06
   3.49320006        -8.36622712E-06
   3.50519991        -7.84970780E-06
   3.51719999        -7.31930413E-06
   3.52920008        -6.75471165E-06
   3.54119992        -6.13934299E-06
   3.55320001        -5.46116598E-06
   3.56520009        -4.71335125E-06
   3.57719994        -3.89469778E-06
   3.58920002        -3.00981242E-06
   3.60120010        -2.06901586E-06
   3.61319995        -1.08797758E-06
   3.62520003        -8.70862777E-08
   3.63720012         9.09420066E-07
   3.64919996         1.87452997E-06
   3.66120005         2.77969298E-06
   3.67319989         3.59615660E-06
   3.68519998         4.29634429E-06
   3.69720006         4.85520877E-06
   3.70919991         5.25150290E-06
   3.72119999         5.46889760E-06
   3.73320007         5.49690321E-06
   3.74519992         5.33154071E-06
   3.75720000         4.97573410E-06
   3.76920009         4.43940553E-06
   3.78119993         3.73925991E-06
   3.79320002         2.89827858E-06
   3.80520010         1.94493509E-06
   3.81719995         9.12173164E-07
   3.82920003        -1.63806646E-07
   3.84120011        -1.24490771E-06
   3.85319996        -2.29258148E-06
   3.86520004        -3.26929830E-06
   3.87719989        -4.13999032E-06
   3.88919997        -4.87340412E-06
   3.90120006        -5.44331215E-06
   3.91319990        -5.82953635E-06
   3.92519999        -6.01874308E-06
   3.93720007        -6.00497560E-06
   3.94919991        -5.78989921E-06
   3.96120000        -5.38275754E-06
   3.97320008        -4.80002927E-06
   3.98519993        -4.06480558E-06
   3.99720001        -3.20591153E-06
   4.00920010        -2.25680651E-06
   4.02120018        -1.25430756E-06
   4.03319979        -2.37191713E-07
   4.04519987         7.55271969E-07
   4.05719995         1.68479892E-06
   4.06920004         2.51551478E-06
   4.08120012         3.21527682E-06
   4.09320021         3.75683589E-06
   4.10519981         4.11879591E-06
   4.11719990         4.28633666E-06
   4.12919998         4.25167764E-06
   4.14120007         4.01426360E-06
   4.15320015         3.58067746E-06
   4.16520023         2.96429266E-06
   4.17719984         2.18468449E-06
   4.18919992         1.26683506E-06
   4.20120001         2.40170039E-07
   4.21320009        -8.62527429E-07
   4.22520018        -2.00627960E-06
   4.23719978        -3.15510920E-06
   4.24919987        -4.27322084E-06
   4.26119995        -5.32613012E-06
   4.27320004        -6.28171256E-06
   4.28520012        -7.11113307E-06
   4.29720020        -7.78965386E-06
   4.30919981        -8.29729106E-06
   4.32119989        -8.61932676E-06
   4.33319998        -8.74665420E-06
   4.34520006        -8.67597100E-06
   4.35720015        -8.40981465E-06
   4.36920023        -7.95643064E-06
   4.38119984        -7.32949775E-06
   4.39319992        -6.54768837E-06
   4.40520000        -5.63408867E-06
   4.41720009        -4.61548325E-06
   4.42920017        -3.52151187E-06
   4.44119978        -2.38372763E-06
   4.45319986        -1.23457369E-06
   4.46519995        -1.06307603E-07
   4.47720003         9.70091719E-07
   4.48920012         1.96600217E-06
   4.50120020         2.85617898E-06
   4.51319981         3.61967818E-06
   4.52519989         4.24064319E-06
   4.53719997         4.70891518E-06
   4.54920006         5.02043395E-06
   4.56120014         5.17739591E-06
   4.57320023         5.18816205E-06
   4.58519983         5.06690003E-06
   4.59719992         4.83297163E-06
   4.60920000         4.51009100E-06
   4.62120008         4.12528652E-06
   4.63320017         3.70771704E-06
   4.64519978         3.28739679E-06
   4.65719986         2.89389004E-06
   4.66919994         2.55504324E-06
   4.68120003         2.29580951E-06
   4.69320011         2.13722183E-06
   4.70520020         2.09556651E-06
   4.71719980         2.18178366E-06
   4.72919989         2.40112672E-06
   4.74119997         2.75308594E-06
   4.75320005         3.23157337E-06
   4.76520014         3.82535472E-06
   4.77720022         4.51869118E-06
   4.78919983         5.29216049E-06
   4.80119991         6.12360145E-06
   4.81320000         6.98913755E-06
   4.82520008         7.86421788E-06
   4.83720016         8.72463806E-06
   4.84919977         9.54748612E-06
   4.86119986         1.03119864E-05
   4.87319994         1.10002129E-05
   4.88520002         1.15976454E-05
   4.89720011         1.20935738E-05
   4.90920019         1.24813369E-05
   4.92119980         1.27584099E-05
   4.93319988         1.29263408E-05
   4.94519997         1.29905538E-05
   4.95720005         1.29600412E-05
   4.96920013         1.28469519E-05
   4.98120022         1.26661089E-05
   4.99319983         1.24344615E-05
   5.00519991         1.21704916E-05
   5.01719999         1.18936023E-05
   5.02920008         1.16234814E-05
   5.04120016         1.13794786E-05
   5.05319977         1.11799791E-05
   5.06519985         1.10418086E-05
   5.07719994         1.09796756E-05
   5.08920002         1.10056617E-05
   5.10120010         1.11287754E-05
   5.11320019         1.13545893E-05
   5.12519979         1.16849751E-05
   5.13719988         1.21179492E-05
   5.14919996         1.26476443E-05
   5.16120005         1.32644245E-05
   5.17320013         1.39551275E-05
   5.18520021         1.47034771E-05
   5.19719982         1.54906011E-05
   5.20919991         1.62957167E-05
   5.22119999         1.70968979E-05
   5.23320007         1.78719583E-05
   5.24520016         1.85993686E-05
   5.25719976         1.92592124E-05
   5.26919985         1.98341222E-05
   5.28119993         2.03101554E-05
   5.29320002         2.06775603E-05
   5.30520010         2.09314130E-05
   5.31720018         2.10720573E-05
   5.32919979         2.11053466E-05
   5.34119987         2.10426333E-05
   5.35319996         2.09005193E-05
   5.36520004         2.07003377E-05
   5.37720013         2.04674016E-05
   5.38920021         2.02300034E-05
   5.40119982         2.00182476E-05
   5.41319990         1.98627022E-05
   5.42519999         1.97929694E-05
   5.43720007         1.98362159E-05
   5.44920015         2.00157247E-05
   5.46120024         2.03495438E-05
   5.47319984         2.08492966E-05
   5.48519993         2.15192103E-05
   5.49720001         2.23554198E-05
   5.50920010         2.33455939E-05
   5.52120018         2.44689072E-05
   5.53319979         2.56963958E-05
   5.54519987         2.69916727E-05
   5.55719995         2.83120135E-05
   5.56920004         2.96097824E-05
   5.58120012         3.08341405E-05
   5.59320021         3.19329993E-05
   5.60519981         3.28551178E-05
   5.61719990         3.35522891E-05
   5.62919998         3.39815088E-05
   5.64120007         3.41070299E-05
   5.65320015         3.39022372E-05
   5.66520023         3.33512035E-05
   5.67719984         3.24499051E-05
   5.68919992         3.12069642E-05
   5.70120001         2.96439557E-05
   5.71320009         2.77951258E-05
   5.72520018         2.57066458E-05
   5.73719978         2.34352956E-05
   5.74919987         2.10466842E-05
   5.76119995         1.86130437E-05
   5.77320004         1.62106644E-05
   5.78520012         1.39170797E-05
   5.79720020         1.18081180E-05
   5.80919981         9.95493610E-06
   5.82119989         8.42116333E-06
   5.83319998         7.26028566E-06
   5.84520006         6.51338678E-06
   5.85720015         6.20735591E-06
   5.86920023         6.35364222E-06
   5.88119984         6.94762821E-06
   5.89319992         7.96864606E-06
   5.90520000         9.38065205E-06
   5.91720009         1.11335130E-05
   5.92920017         1.31648585E-05
   5.94119978         1.54024201E-05
   5.95319986         1.77667262E-05
   5.96519995         2.01740677E-05
   5.97720003         2.25395579E-05
   5.98920012         2.47802054E-05
   6.00120020         2.68178246E-05
   6.01319981         2.85817023E-05
   6.02519989         3.00108786E-05
   6.03719997         3.10560245E-05
   6.04920006         3.16807927E-05
   6.06120014         3.18626480E-05
   6.07320023         3.15931611E-05
   6.08519983         3.08777817E-05
   6.09719992         2.97351835E-05
   6.10920000         2.81961657E-05
   6.12120008         2.63022430E-05
   6.13320017         2.41039961E-05
   6.14519978         2.16592525E-05
   6.15719986         1.90311985E-05
   6.16919994         1.62864599E-05
   6.18120003         1.34932452E-05
   6.19320011         1.07195701E-05
   6.20520020         8.03161129E-06
   6.21719980         5.49221522E-06
   6.22919989         3.15957755E-06
   6.24119997         1.08610004E-06
   6.25320005        -6.82564803E-07
   6.26520014        -2.10827966E-06
   6.27720022        -3.16101455E-06
   6.28919983        -3.81925065E-06
   6.30119991        -4.07021344E-06
   6.31320000        -3.90993682E-06
   6.32520008        -3.34315132E-06
   6.33720016        -2.38301823E-06
   6.34919977        -1.05069910E-06
   6.36119986         6.25231905E-07
   6.37319994         2.60951720E-06
   6.38520002         4.86107820E-06
   6.39720011         7.33399020E-06
   6.40920019         9.97854386E-06
   6.42119980         1.27423700E-05
   6.43319988         1.55715989E-05
   6.44519997         1.84120072E-05
   6.45720005         2.12101495E-05
   6.46920013         2.39144138E-05
   6.48120022         2.64760238E-05
   6.49319983         2.88499050E-05
   6.50519991         3.09954812E-05
   6.51719999         3.28772985E-05
   6.52920008         3.44655782E-05
   6.54120016         3.57366080E-05
   6.55319977         3.66730092E-05
   6.56519985         3.72639079E-05
   6.57719994         3.75049713E-05
   6.58920002         3.73983203E-05
   6.60120010         3.69523514E-05
   6.61320019         3.61814564E-05
   6.62519979         3.51055933E-05
   6.63719988         3.37498059E-05
   6.64919996         3.21436091E-05
   6.66120005         3.03202869E-05
   6.67320013         2.83161244E-05
   6.68520021         2.61695513E-05
   6.69719982         2.39202691E-05
   6.70919991         2.16083190E-05
   6.72119999         1.92731968E-05
   6.73320007         1.69529594E-05
   6.74520016         1.46834045E-05
   6.75719976         1.24973321E-05
   6.76919985         1.04239052E-05
   6.78119993         8.48812397E-06
   6.79320002         6.71043927E-06
   6.80520010         5.10650625E-06
   6.81720018         3.68707242E-06
   6.82919979         2.45800379E-06
   6.84119987         1.42043302E-06
   6.85319996         5.71016244E-07
   6.86520004        -9.77236283E-08
   6.87720013        -5.96978339E-07
   6.88920021        -9.41185135E-07
   6.90119982        -1.14751560E-06
   6.91319990        -1.23533812E-06
   6.92519999        -1.22565962E-06
   6.93720007        -1.14055513E-06
   6.94920015        -1.00258421E-06
   6.96120024        -8.34211164E-07
   6.97319984        -6.57222756E-07
   6.98519993        -4.92157426E-07
   6.99720001        -3.57759944E-07
   7.00920010        -2.70469428E-07
   7.02120018        -2.43954702E-07
   7.03319979        -2.88712613E-07
   7.04519987        -4.11748260E-07
   7.05719995        -6.16345915E-07
   7.06920004        -9.01948567E-07
   7.08120012        -1.26415637E-06
   7.09320021        -1.69484997E-06
   7.10519981        -2.18244054E-06
   7.11719990        -2.71224371E-06
   7.12919998        -3.26696863E-06
   7.14120007        -3.82729968E-06
   7.15320015        -4.37256085E-06
   7.16520023        -4.88142314E-06
   7.17719984        -5.33264847E-06
   7.18919992        -5.70583143E-06
   7.20120001        -5.98212227E-06
   7.21320009        -6.14491182E-06
   7.22520018        -6.18046033E-06
   7.23719978        -6.07845095E-06
   7.24919987        -5.83246538E-06
   7.26119995        -5.44036084E-06
   7.27320004        -4.90454067E-06
   7.28520012        -4.23210895E-06
   7.29720020        -3.43490160E-06
   7.30919981        -2.52937753E-06
   7.32119989        -1.53637188E-06
   7.33319998        -4.80698361E-07
   7.34520006         6.09401866E-07
   7.35720015         1.70296664E-06
   7.36920023         2.76716719E-06
   7.38119984         3.76830326E-06
   7.39319992         4.67291693E-06
   7.40520000         5.44899876E-06
   7.41720009         6.06724598E-06
   7.42920017         6.50232460E-06
   7.44119978         6.73407385E-06
   7.45319986         6.74859302E-06
   7.46519995         6.53914685E-06
   7.47720003         6.10682446E-06
   7.48920012         5.46090087E-06
   7.50120020         4.61886339E-06
   7.51319981         3.60607964E-06
   7.52519989         2.45509955E-06
   7.53719997         1.20461573E-06
   7.54920006        -1.01878683E-07
   7.56120014        -1.41768919E-06
   7.57320023        -2.69468910E-06
   7.58519983        -3.88518401E-06
   7.59719992        -4.94377446E-06
   7.60920000        -5.82912935E-06
   7.62120008        -6.50557649E-06
   7.63320017        -6.94444361E-06
   7.64519978        -7.12506971E-06
   7.65719986        -7.03546402E-06
   7.66919994        -6.67257927E-06
   7.68120003        -6.04220349E-06
   7.69320011        -5.15849842E-06
   7.70520020        -4.04322100E-06
   7.71719980        -2.72468810E-06
   7.72919989        -1.23655366E-06
   7.74119997         3.83530988E-07
   7.75320005         2.09529981E-06
   7.76520014         3.85723342E-06
   7.77720022         5.62783771E-06
   7.78919983         7.36680386E-06
   7.80119991         9.03600994E-06
   7.81320000         1.06003590E-05
   7.82520008         1.20284476E-05
   7.83720016         1.32930809E-05
   7.84919977         1.43716488E-05
   7.86119986         1.52464045E-05
   7.87319994         1.59046413E-05
   7.88520002         1.63388322E-05
   7.89720011         1.65467081E-05
   7.90920019         1.65313031E-05
   7.92119980         1.63009627E-05
   7.93319988         1.58692892E-05
   7.94519997         1.52550228E-05
   7.95720005         1.44818114E-05
   7.96920013         1.35778691E-05
   7.98120022         1.25754832E-05
   7.99319983         1.15103567E-05
   8.00520039         1.04207911E-05
   8.01720047         9.34670697E-06
   8.02919960         8.32850492E-06
   8.04119968         7.40581845E-06
   8.05319977         6.61617105E-06
   8.06519985         5.99361465E-06
   8.07719994         5.56738132E-06
   8.08920002         5.36063180E-06
   8.10120010         5.38936820E-06
   8.11320019         5.66156132E-06
   8.12520027         6.17657406E-06
   8.13720036         6.92491130E-06
   8.14920044         7.88833586E-06
   8.16119957         9.04035096E-06
   8.17319965         1.03470520E-05
   8.18519974         1.17682966E-05
   8.19719982         1.32591558E-05
   8.20919991         1.47715728E-05
   8.22119999         1.62561701E-05
   8.23320007         1.76640988E-05
   8.24520016         1.89488819E-05
   8.25720024         2.00681588E-05
   8.26920033         2.09852697E-05
   8.28120041         2.16705866E-05
   8.29319954         2.21025912E-05
   8.30519962         2.22686158E-05
   8.31719971         2.21652190E-05
   8.32919979         2.17981978E-05
   8.34119987         2.11822517E-05
   8.35319996         2.03402906E-05
   8.36520004         1.93024389E-05
   8.37720013         1.81048017E-05
   8.38920021         1.67880389E-05
   8.40120029         1.53958135E-05
   8.41320038         1.39732056E-05
   8.42520046         1.25651313E-05
   8.43719959         1.12148446E-05
   8.44919968         9.96256585E-06
   8.46119976         8.84429846E-06
   8.47319984         7.89084697E-06
   8.48519993         7.12708652E-06
   8.49720001         6.57147712E-06
   8.50920010         6.23585447E-06
   8.52120018         6.12546137E-06
   8.53320026         6.23922506E-06
   8.54520035         6.57023384E-06
   8.55720043         7.10637642E-06
   8.56919956         7.83109681E-06
   8.58119965         8.72422606E-06
   8.59319973         9.76282536E-06
   8.60519981         1.09220136E-05
   8.61719990         1.21757548E-05
   8.62919998         1.34975571E-05
   8.64120007         1.48611034E-05
   8.65320015         1.62407796E-05
   8.66520023         1.76121193E-05
   8.67720032         1.89521652E-05
   8.68920040         2.02397332E-05
   8.70119953         2.14556421E-05
   8.71319962         2.25828553E-05
   8.72519970         2.36065753E-05
   8.73719978         2.45143146E-05
   8.74919987         2.52959126E-05
   8.76119995         2.59435510E-05
   8.77320004         2.64517421E-05
   8.78520012         2.68172917E-05
   8.79720020         2.70392720E-05
   8.80920029         2.71189492E-05
   8.82120037         2.70596884E-05
   8.83320045         2.68668573E-05
   8.84519958         2.65476792E-05
   8.85719967         2.61110599E-05
   8.86919975         2.55674113E-05
   8.88119984         2.49284494E-05
   8.89319992         2.42069927E-05
   8.90520000         2.34167564E-05
   8.91720009         2.25721724E-05
   8.92920017         2.16881799E-05
   8.94120026         2.07800695E-05
   8.95320034         1.98632770E-05
   8.96520042         1.89532129E-05
   8.97719955         1.80650404E-05
   8.98919964         1.72134642E-05
   9.00119972         1.64124631E-05
   9.01319981         1.56750375E-05
   9.02519989         1.50129163E-05
   9.03719997         1.44362839E-05
   9.04920006         1.39535032E-05
   9.06120014         1.35708842E-05
   9.07320023         1.32924888E-05
   9.08520031         1.31200140E-05