 -0.622799993       0.00000000    
 -0.610800028       0.00000000    
 -0.598800004       0.00000000    
 -0.586799979       0.00000000    
 -0.574800014      -1.97371143E-22
 -0.562799990      -1.08374524E-21
 -0.550800025      -2.93782605E-21
 -0.538800001      -6.56423917E-21
 -0.526799977      -2.20109126E-20
 -0.514800012      -9.37539819E-20
 -0.502799988      -3.40216930E-19
 -0.490799993      -9.78784931E-19
 -0.478799999      -2.27758205E-18
 -0.466800004      -4.37391229E-18
 -0.454800010      -6.96139156E-18
 -0.442799985      -8.98025158E-18
 -0.430799991      -8.59672350E-18
 -0.418799996      -3.81590576E-18
 -0.406800002       6.08988854E-18
 -0.394800007       1.85962891E-17
 -0.382800013       2.62622698E-17
 -0.370799989       1.67637614E-17
 -0.358799994      -2.40201620E-17
 -0.346799999      -1.05394152E-16
 -0.334800005      -2.22979465E-16
 -0.322800010      -3.50994863E-16
 -0.310799986      -4.40637418E-16
 -0.298799992      -4.29342154E-16
 -0.286799997      -2.62988986E-16
 -0.274800003       7.20516533E-17
 -0.262800008       5.16489827E-16
 -0.250800014       9.19868887E-16
 -0.238800004       1.05208872E-15
 -0.226799995       6.55013649E-16
 -0.214800000      -4.67488124E-16
 -0.202800006      -2.33917932E-15
 -0.190799996      -4.71498773E-15
 -0.178800002      -7.04206506E-15
 -0.166800007      -8.51854852E-15
 -0.154799998      -8.27046104E-15
 -0.142800003      -5.63236972E-15
 -0.130799994      -4.74523898E-16
 -0.118799999       6.51955923E-15
 -0.106799997       1.37407684E-14
  -9.48000029E-02   1.88101437E-14
  -8.28000009E-02   1.90529304E-14
  -7.07999989E-02   1.22528982E-14
  -5.88000007E-02  -2.45786388E-15
  -4.67999987E-02  -2.38139806E-14
  -3.48000005E-02  -4.80259346E-14
  -2.28000004E-02  -6.90428346E-14
  -1.08000003E-02  -7.96044274E-14
   1.20000006E-03  -7.30104996E-14
   1.31999999E-02  -4.52874534E-14
   2.52000000E-02   2.78916896E-15
   3.72000001E-02   6.44708896E-14
   4.91999984E-02   1.27206188E-13
   6.12000003E-02   1.74537807E-13
   7.32000023E-02   1.89630755E-13
   8.51999968E-02   1.59826389E-13
   9.71999988E-02   8.11730037E-14
  0.109200001      -3.83509312E-14
  0.121200003      -1.78112624E-13
  0.133200005      -3.07338437E-13
  0.145199999      -3.90854368E-13
  0.157199994      -3.97162012E-13
  0.169200003      -3.07173585E-13
  0.181199998      -1.21469675E-13
  0.193200007       1.36020698E-13
  0.205200002       4.19432365E-13
  0.217199996       6.67934891E-13
  0.229200006       8.17429078E-13
  0.241200000       8.14880227E-13
  0.253199995       6.32298738E-13
  0.265199989       2.77079466E-13
  0.277200013      -2.04154903E-13
  0.289200008      -7.29918838E-13
  0.301200002      -1.19648735E-12
  0.313199997      -1.49696531E-12
  0.325199991      -1.54333219E-12
  0.337199986      -1.28694017E-12
  0.349200010      -7.32825530E-13
  0.361200005       5.58495782E-14
  0.373199999       9.64975604E-13
  0.385199994       1.84749243E-12
  0.397199988       2.54881186E-12
  0.409200013       2.93432357E-12
  0.421200007       2.91292836E-12
  0.433200002       2.45139672E-12
  0.445199996       1.57666859E-12
  0.457199991       3.66467382E-13
  0.469199985      -1.06813018E-12
  0.481200010      -2.60223115E-12
  0.493200004      -4.11233634E-12
  0.505200028      -5.48239145E-12
  0.517199993      -6.59921380E-12
  0.529200017      -7.34002355E-12
  0.541199982      -7.55852759E-12
  0.553200006      -7.07801612E-12
  0.565199971      -5.69948038E-12
  0.577199996      -3.22968605E-12
  0.589200020       4.70745567E-13
  0.601199985       5.42481077E-12
  0.613200009       1.14726024E-11
  0.625199974       1.82144300E-11
  0.637199998       2.49780526E-11
  0.649200022       3.08231218E-11
  0.661199987       3.45926517E-11
  0.673200011       3.50165730E-11
  0.685199976       3.08666426E-11
  0.697200000       2.11547845E-11
  0.709200025       5.35884271E-12
  0.721199989      -1.63494617E-11
  0.733200014      -4.29081597E-11
  0.745199978      -7.22405469E-11
  0.757200003      -1.01244131E-10
  0.769200027      -1.25928962E-10
  0.781199992      -1.41726367E-10
  0.793200016      -1.43966630E-10
  0.805199981      -1.28495867E-10
  0.817200005      -9.23735324E-11
  0.829200029      -3.45680776E-11
  0.841199994       4.34462848E-11
  0.853200018       1.37289721E-10
  0.865199983       2.39559622E-10
  0.877200007       3.40058204E-10
  0.889199972       4.26394087E-10
  0.901199996       4.84951634E-10
  0.913200021       5.02184294E-10
  0.925199986       4.66151229E-10
  0.937200010       3.68184566E-10
  0.949199975       2.04540593E-10
  0.961199999      -2.21364264E-11
  0.973200023      -3.01727671E-10
  0.985199988      -6.16124096E-10
  0.997200012      -9.39456957E-10
   1.00919998      -1.23920674E-09
   1.02119994      -1.47825030E-09
   1.03320003      -1.61780933E-09
   1.04519999      -1.62115288E-09
   1.05719995      -1.45778878E-09
   1.06920004      -1.10778264E-09
   1.08120000      -5.65764657E-10
   1.09319997       1.55848917E-10
   1.10520005       1.02488118E-09
   1.11720002       1.98907357E-09
   1.12919998       2.97772362E-09
   1.14119995       3.90544530E-09
   1.15320003       4.67805217E-09
   1.16520000       5.20036592E-09
   1.17719996       5.38554623E-09
   1.18920004       5.16536058E-09
   1.20120001       4.50060034E-09
   1.21319997       3.39074191E-09
   1.22520006       1.88186000E-09
   1.23720002       7.18092669E-11
   1.24919999      -1.88818872E-09
   1.26119995      -3.79621889E-09
   1.27320004      -5.40692602E-09
   1.28520000      -6.44325260E-09
   1.29719996      -6.61208333E-09
   1.30920005      -5.62264590E-09
   1.32120001      -3.20598814E-09
   1.33319998       8.66644756E-10
   1.34519994       6.76913992E-09
   1.35720003       1.46123798E-08
   1.36919999       2.44455265E-08
   1.38119996       3.62694408E-08
   1.39320004       5.00643758E-08
   1.40520000       6.58334329E-08
   1.41719997       8.36621012E-08
   1.42920005       1.03792949E-07
   1.44120002       1.26713473E-07
   1.45319998       1.53253097E-07
   1.46519995       1.84684509E-07
   1.47720003       2.22823303E-07
   1.48920000       2.70118818E-07
   1.50119996       3.29729289E-07
   1.51320004       4.05574013E-07
   1.52520001       5.02356329E-07
   1.53719997       6.25551934E-07
   1.54920006       7.81359631E-07
   1.56120002       9.76612910E-07
   1.57319999       1.21865298E-06
   1.58519995       1.51516736E-06
   1.59720004       1.87399928E-06
   1.60920000       2.30293654E-06
   1.62119997       2.80948802E-06
   1.63320005       3.40065685E-06
   1.64520001       4.08272399E-06
   1.65719998       4.86105046E-06
   1.66919994       5.73990155E-06
   1.68120003       6.72231272E-06
   1.69319999       7.80998380E-06
   1.70519996       9.00322084E-06
   1.71720004       1.03009179E-05
   1.72920001       1.17005711E-05
   1.74119997       1.31983306E-05
   1.75320005       1.47890842E-05
   1.76520002       1.64665489E-05
   1.77719998       1.82233871E-05
   1.78919995       2.00513277E-05
   1.80120003       2.19412941E-05
   1.81320000       2.38835091E-05
   1.82519996       2.58676318E-05
   1.83720005       2.78828556E-05
   1.84920001       2.99180301E-05
   1.86119998       3.19617720E-05
   1.87320006       3.40025726E-05
   1.88520002       3.60289450E-05
   1.89719999       3.80295387E-05
   1.90919995       3.99933233E-05
   1.92120004       4.19097451E-05
   1.93320000       4.37689196E-05
   1.94519997       4.55618356E-05
   1.95720005       4.72805805E-05
   1.96920002       4.89185186E-05
   1.98119998       5.04705204E-05
   1.99319994       5.19331261E-05
   2.00519991       5.33046623E-05
   2.01719999       5.45853545E-05
   2.02920008       5.57773237E-05
   2.04119992       5.68845608E-05
   2.05320001       5.79127991E-05
   2.06520009       5.88693183E-05
   2.07719994       5.97627150E-05
   2.08920002       6.06025533E-05
   2.10120010       6.13990414E-05
   2.11319995       6.21626532E-05
   2.12520003       6.29037095E-05
   2.13720012       6.36320765E-05
   2.14919996       6.43567764E-05
   2.16120005       6.50857764E-05
   2.17319989       6.58257413E-05
   2.18519998       6.65819607E-05
   2.19720006       6.73582908E-05
   2.20919991       6.81571983E-05
   2.22119999       6.89798981E-05
   2.23320007       6.98264994E-05
   2.24519992       7.06962383E-05
   2.25720000       7.15876668E-05
   2.26920009       7.24988859E-05
   2.28119993       7.34277346E-05
   2.29320002       7.43718847E-05
   2.30520010       7.53289423E-05
   2.31719995       7.62964773E-05
   2.32920003       7.72719868E-05
   2.34120011       7.82528223E-05
   2.35319996       7.92360806E-05
   2.36520004       8.02185750E-05
   2.37719989       8.11967038E-05
   2.38919997       8.21665453E-05
   2.40120006       8.31238722E-05
   2.41319990       8.40643843E-05
   2.42519999       8.49840362E-05
   2.43720007       8.58794374E-05
   2.44919991       8.67484559E-05
   2.46120000       8.75907936E-05
   2.47320008       8.84087058E-05
   2.48519993       8.92076278E-05
   2.49720001       8.99968436E-05
   2.50920010       9.07899012E-05
   2.52119994       9.16049830E-05
   2.53320003       9.24648994E-05
   2.54520011       9.33968477E-05
   2.55719995       9.44318163E-05
   2.56920004       9.56036674E-05
   2.58119988       9.69477696E-05
   2.59319997       9.84993603E-05
   2.60520005       1.00291589E-04
   2.61719990       1.02353239E-04
   2.62919998       1.04706400E-04
   2.64120007       1.07363951E-04
   2.65319991       1.10327150E-04
   2.66520000       1.13583403E-04
   2.67720008       1.17104209E-04
   2.68919992       1.20843535E-04
   2.70120001       1.24736660E-04
   2.71320009       1.28699539E-04
   2.72519994       1.32628818E-04
   2.73720002       1.36402406E-04
   2.74920011       1.39880765E-04
   2.76119995       1.42908757E-04
   2.77320004       1.45318103E-04
   2.78520012       1.46930397E-04
   2.79719996       1.47560495E-04
   2.80920005       1.47020357E-04
   2.82119989       1.45123064E-04
   2.83319998       1.41687051E-04
   2.84520006       1.36540504E-04
   2.85719991       1.29525521E-04
   2.86919999       1.20502402E-04
   2.88120008       1.09353576E-04
   2.89319992       9.59873287E-05
   2.90520000       8.03412404E-05
   2.91720009       6.23851301E-05
   2.92919993       4.21236582E-05
   2.94120002       1.95983812E-05
   2.95320010      -5.11076860E-06
   2.96519995      -3.18845559E-05
   2.97720003      -6.05642126E-05
   2.98920012      -9.09518349E-05
   3.00119996      -1.22811543E-04
   3.01320004      -1.55871399E-04
   3.02519989      -1.89826038E-04
   3.03719997      -2.24340067E-04
   3.04920006      -2.59052293E-04
   3.06119990      -2.93580495E-04
   3.07319999      -3.27526854E-04
   3.08520007      -3.60484177E-04
   3.09719992      -3.92042159E-04
   3.10920000      -4.21794568E-04
   3.12120008      -4.49346146E-04
   3.13319993      -4.74319851E-04
   3.14520001      -4.96363849E-04
   3.15720010      -5.15158521E-04
   3.16919994      -5.30423131E-04
   3.18120003      -5.41921123E-04
   3.19320011      -5.49466000E-04
   3.20519996      -5.52925456E-04
   3.21720004      -5.52224810E-04
   3.22919989      -5.47349686E-04
   3.24119997      -5.38346940E-04
   3.25320005      -5.25325537E-04
   3.26519990      -5.08454978E-04
   3.27719998      -4.87963407E-04
   3.28920007      -4.64134442E-04
   3.30119991      -4.37302719E-04
   3.31320000      -4.07848420E-04
   3.32520008      -3.76191223E-04
   3.33719993      -3.42782878E-04
   3.34920001      -3.08099639E-04
   3.36120009      -2.72633886E-04
   3.37319994      -2.36885229E-04
   3.38520002      -2.01351751E-04
   3.39720011      -1.66520855E-04
   3.40919995      -1.32860281E-04
   3.42120004      -1.00809666E-04
   3.43319988      -7.07722211E-05
   3.44519997      -4.31073458E-05
   3.45720005      -1.81238775E-05
   3.46919990       3.92557513E-06
   3.48119998       2.28491899E-05
   3.49320006       3.85192689E-05
   3.50519991       5.08741250E-05
   3.51719999       5.99185696E-05
   3.52920008       6.57229029E-05
   3.54119992       6.84203624E-05
   3.55320001       6.82031095E-05
   3.56520009       6.53167808E-05
   3.57719994       6.00538588E-05
   3.58920002       5.27457778E-05
   3.60120010       4.37542221E-05
   3.61319995       3.34616634E-05
   3.62520003       2.22615326E-05
   3.63720012       1.05482068E-05
   3.64919996      -1.29283364E-06
   3.66120005      -1.28944157E-05
   3.67319989      -2.39163728E-05
   3.68519998      -3.40532788E-05
   3.69720006      -4.30409964E-05
   3.70919991      -5.06618744E-05
   3.72119999      -5.67484676E-05
   3.73320007      -6.11856958E-05
   3.74519992      -6.39114660E-05
   3.75720000      -6.49157591E-05
   3.76920009      -6.42382875E-05
   3.78119993      -6.19648999E-05
   3.79320002      -5.82228095E-05
   3.80520010      -5.31750156E-05
   3.81719995      -4.70139275E-05
   3.82920003      -3.99546043E-05
   3.84120011      -3.22277483E-05
   3.85319996      -2.40726695E-05
   3.86520004      -1.57304548E-05
   3.87719989      -7.43749479E-06
   3.88919997       5.80457254E-07
   3.90120006       8.11362133E-06
   3.91319990       1.49727884E-05
   3.92519999       2.09931386E-05
   3.93720007       2.60372653E-05
   3.94919991       2.99973781E-05
   3.96120000       3.27966882E-05
   3.97320008       3.43900283E-05
   3.98519993       3.47637360E-05
   3.99720001       3.39348117E-05
   4.00920010       3.19494575E-05
   4.02120018       2.88810133E-05
   4.03319979       2.48273664E-05
   4.04519987       1.99079132E-05
   4.05719995       1.42601075E-05
   4.06920004       8.03570128E-06
   4.08120012       1.39674955E-06
   4.09320021      -5.48856406E-06
   4.10519981      -1.24501557E-05
   4.11719990      -1.93202759E-05
   4.12919998      -2.59376429E-05
   4.14120007      -3.21513689E-05
   4.15320015      -3.78246186E-05
   4.16520023      -4.28378880E-05
   4.17719984      -4.70918130E-05
   4.18919992      -5.05094722E-05
   4.20120001      -5.30380676E-05
   4.21320009      -5.46499359E-05
   4.22520018      -5.53428945E-05
   4.23719978      -5.51398480E-05
   4.24919987      -5.40877008E-05
   4.26119995      -5.22555711E-05
   4.27320004      -4.97323344E-05
   4.28520012      -4.66236088E-05
   4.29720020      -4.30482396E-05
   4.30919981      -3.91343783E-05
   4.32119989      -3.50153023E-05
   4.33319998      -3.08250783E-05
   4.34520006      -2.66942698E-05
   4.35720015      -2.27457913E-05
   4.36920023      -1.90910505E-05
   4.38119984      -1.58265684E-05
   4.39319992      -1.30311510E-05
   4.40520000      -1.07637279E-05
   4.41720009      -9.06194964E-06
   4.42920017      -7.94156404E-06
   4.44119978      -7.39659845E-06
   4.45319986      -7.40032738E-06
   4.46519995      -7.90696686E-06
   4.47720003      -8.85403733E-06
   4.48920012      -1.01652613E-05
   4.50120020      -1.17539112E-05
   4.51319981      -1.35264318E-05
   4.52519989      -1.53862329E-05
   4.53719997      -1.72374694E-05
   4.54920006      -1.89886996E-05
   4.56120014      -2.05562646E-05
   4.57320023      -2.18672885E-05
   4.58519983      -2.28622011E-05
   4.59719992      -2.34966956E-05
   4.60920000      -2.37430741E-05
   4.62120008      -2.35909429E-05
   4.63320017      -2.30472706E-05
   4.64519978      -2.21357841E-05
   4.65719986      -2.08957608E-05
   4.66919994      -1.93802771E-05
   4.68120003      -1.76539543E-05
   4.69320011      -1.57903160E-05
   4.70520020      -1.38688492E-05
   4.71719980      -1.19718734E-05
   4.72919989      -1.01813339E-05
   4.74119997      -8.57564919E-06
   4.75320005      -7.22672030E-06
   4.76520014      -6.19719776E-06
   4.77720022      -5.53813197E-06
   4.78919983      -5.28705550E-06
   4.80119991      -5.46659430E-06
   4.81320000      -6.08363143E-06
   4.82520008      -7.12905148E-06
   4.83720016      -8.57807299E-06
   4.84919977      -1.03911343E-05
   4.86119986      -1.25153128E-05
   4.87319994      -1.48861973E-05
   4.88520002      -1.74301476E-05
   4.89720011      -2.00668619E-05
   4.90920019      -2.27121618E-05
   4.92119980      -2.52808877E-05
   4.93319988      -2.76898281E-05
   4.94519997      -2.98605810E-05
   4.95720005      -3.17222803E-05
   4.96920013      -3.32140480E-05
   4.98120022      -3.42872227E-05
   4.99319983      -3.49070724E-05
   5.00519991      -3.50542141E-05
   5.01719999      -3.47254099E-05
   5.02920008      -3.39338985E-05
   5.04120016      -3.27091220E-05
   5.05319977      -3.10959149E-05
   5.06519985      -2.91530632E-05
   5.07719994      -2.69513948E-05
   5.08920002      -2.45713200E-05
   5.10120010      -2.21000319E-05
   5.11320019      -1.96283454E-05
   5.12519979      -1.72473865E-05
   5.13719988      -1.50452142E-05
   5.14919996      -1.31035531E-05
   5.16120005      -1.14947406E-05
   5.17320013      -1.02790864E-05
   5.18520021      -9.50273079E-06
   5.19719982      -9.19611830E-06
   5.20919991      -9.37314053E-06
   5.22119999      -1.00310208E-05
   5.23320007      -1.11508880E-05
   5.24520016      -1.26990271E-05
   5.25719976      -1.46287039E-05
   5.26919985      -1.68824681E-05
   5.28119993      -1.93947835E-05
   5.29320002      -2.20948496E-05
   5.30520010      -2.49094410E-05
   5.31720018      -2.77656272E-05
   5.32919979      -3.05932299E-05
   5.34119987      -3.33269054E-05
   5.35319996      -3.59077676E-05
   5.36520004      -3.82845355E-05
   5.37720013      -4.04141247E-05
   5.38920021      -4.22618214E-05
   5.40119982      -4.38009884E-05
   5.41319990      -4.50124826E-05
   5.42519999      -4.58838331E-05
   5.43720007      -4.64083168E-05
   5.44920015      -4.65840130E-05
   5.46120024      -4.64129444E-05
   5.47319984      -4.59004077E-05
   5.48519993      -4.50544867E-05
   5.49720001      -4.38858187E-05
   5.50920010      -4.24076279E-05
   5.52120018      -4.06359395E-05
   5.53319979      -3.85900275E-05
   5.54519987      -3.62929277E-05
   5.55719995      -3.37720085E-05
   5.56920004      -3.10594951E-05
   5.58120012      -2.81928569E-05
   5.59320021      -2.52150130E-05
   5.60519981      -2.21742339E-05
   5.61719990      -1.91237723E-05
   5.62919998      -1.61211519E-05
   5.64120007      -1.32271571E-05
   5.65320015      -1.05045065E-05
   5.66520023      -8.01632086E-06
   5.67719984      -5.82438906E-06
   5.68919992      -3.98734028E-06
   5.70120001      -2.55878763E-06
   5.71320009      -1.58552393E-06
   5.72520018      -1.10585427E-06
   5.73719978      -1.14812156E-06
   5.74919987      -1.72950206E-06
   5.76119995      -2.85512169E-06
   5.77320004      -4.51750930E-06
   5.78520012      -6.69643214E-06
   5.79720020      -9.35909247E-06
   5.80919981      -1.24606840E-05
   5.82119989      -1.59452793E-05
   5.83319998      -1.97469963E-05
   5.84520006      -2.37914428E-05
   5.85720015      -2.79973283E-05
   5.86920023      -3.22782653E-05
   5.88119984      -3.65446904E-05
   5.89319992      -4.07058615E-05
   5.90520000      -4.46719423E-05
   5.91720009      -4.83560652E-05
   5.92920017      -5.16764339E-05
   5.94119978      -5.45583462E-05
   5.95319986      -5.69361764E-05
   5.96519995      -5.87552240E-05
   5.97720003      -5.99734340E-05
   5.98920012      -6.05628775E-05
   6.00120020      -6.05110326E-05
   6.01319981      -5.98217339E-05
   6.02519989      -5.85157795E-05
   6.03719997      -5.66311028E-05
   6.04920006      -5.42224989E-05
   6.06120014      -5.13608320E-05
   6.07320023      -4.81316820E-05
   6.08519983      -4.46334634E-05
   6.09719992      -4.09749846E-05
   6.10920000      -3.72725262E-05
   6.12120008      -3.36465164E-05
   6.13320017      -3.02178451E-05
   6.14519978      -2.71040262E-05
   6.15719986      -2.44152852E-05
   6.16919994      -2.22507733E-05
   6.18120003      -2.06950717E-05
   6.19320011      -1.98151229E-05
   6.20520020      -1.96577694E-05
   6.21719980      -2.02480242E-05
   6.22919989      -2.15881464E-05
   6.24119997      -2.36576270E-05
   6.25320005      -2.64140581E-05
   6.26520014      -2.97948700E-05
   6.27720022      -3.37198435E-05
   6.28919983      -3.80942911E-05
   6.30119991      -4.28126987E-05
   6.31320000      -4.77627145E-05
   6.32520008      -5.28291894E-05
   6.33720016      -5.78981417E-05
   6.34919977      -6.28604612E-05
   6.36119986      -6.76150448E-05
   6.37319994      -7.20714597E-05
   6.38520002      -7.61518531E-05
   6.39720011      -7.97921239E-05
   6.40920019      -8.29423880E-05
   6.42119980      -8.55667458E-05
   6.43319988      -8.76424529E-05
   6.44519997      -8.91586533E-05
   6.45720005      -9.01147359E-05
   6.46920013      -9.05185880E-05
   6.48120022      -9.03848340E-05
   6.49319983      -8.97331265E-05
   6.50519991      -8.85867994E-05
   6.51719999      -8.69717187E-05
   6.52920008      -8.49155622E-05
   6.54120016      -8.24474046E-05
   6.55319977      -7.95976157E-05
   6.56519985      -7.63980497E-05
   6.57719994      -7.28823361E-05
   6.58920002      -6.90862726E-05
   6.60120010      -6.50482252E-05
   6.61320019      -6.08092923E-05
   6.62519979      -5.64134389E-05
   6.63719988      -5.19072746E-05
   6.64919996      -4.73396503E-05
   6.66120005      -4.27610175E-05
   6.67320013      -3.82225735E-05
   6.68520021      -3.37753263E-05
   6.69719982      -2.94690490E-05
   6.70919991      -2.53513354E-05
   6.72119999      -2.14667034E-05
   6.73320007      -1.78559076E-05
   6.74520016      -1.45554632E-05
   6.75719976      -1.15973889E-05
   6.76919985      -9.00917530E-06
   6.78119993      -6.81394386E-06
   6.79320002      -5.03073034E-06
   6.80520010      -3.67482926E-06
   6.81720018      -2.75812749E-06
   6.82919979      -2.28934232E-06
   6.84119987      -2.27411715E-06
   6.85319996      -2.71492445E-06
   6.86520004      -3.61076309E-06
   6.87720013      -4.95666472E-06
   6.88920021      -6.74304920E-06
   6.90119982      -8.95499852E-06
   6.91319990      -1.15715311E-05
   6.92519999      -1.45649938E-05
   6.93720007      -1.79006311E-05
   6.94920015      -2.15364762E-05
   6.96120024      -2.54235765E-05
   6.97319984      -2.95066293E-05
   6.98519993      -3.37250531E-05
   6.99720001      -3.80144229E-05
   7.00920010      -4.23082565E-05
   7.02120018      -4.65400553E-05
   7.03319979      -5.06454526E-05
   7.04519987      -5.45644070E-05
   7.05719995      -5.82432331E-05
   7.06920004      -6.16363977E-05
   7.08120012      -6.47079141E-05
   7.09320021      -6.74323310E-05
   7.10519981      -6.97950745E-05
   7.11719990      -7.17924195E-05
   7.12919998      -7.34307614E-05
   7.14120007      -7.47255617E-05
   7.15320015      -7.56997833E-05
   7.16520023      -7.63821226E-05
   7.17719984      -7.68050668E-05
   7.18919992      -7.70028928E-05
   7.20120001      -7.70097686E-05
   7.21320009      -7.68580212E-05
   7.22520018      -7.65766963E-05
   7.23719978      -7.61904885E-05
   7.24919987      -7.57189700E-05
   7.26119995      -7.51762564E-05
   7.27320004      -7.45710786E-05
   7.28520012      -7.39070456E-05
   7.29720020      -7.31832988E-05
   7.30919981      -7.23952835E-05
   7.32119989      -7.15356946E-05
   7.33319998      -7.05954153E-05
   7.34520006      -6.95644922E-05
   7.35720015      -6.84330007E-05
   7.36920023      -6.71918751E-05
   7.38119984      -6.58335703E-05
   7.39319992      -6.43526728E-05
   7.40520000      -6.27463451E-05
   7.41720009      -6.10147254E-05
   7.42920017      -5.91612225E-05
   7.44119978      -5.71927485E-05
   7.45319986      -5.51199191E-05
   7.46519995      -5.29571771E-05
   7.47720003      -5.07228870E-05
   7.48920012      -4.84393713E-05
   7.50120020      -4.61328564E-05
   7.51319981      -4.38333482E-05
   7.52519989      -4.15743707E-05
   7.53719997      -3.93925438E-05
   7.54920006      -3.73270013E-05
   7.56120014      -3.54185977E-05
   7.57320023      -3.37089368E-05
   7.58519983      -3.22391897E-05
   7.59719992      -3.10487740E-05
   7.60920000      -3.01739055E-05
   7.62120008      -2.96461421E-05
   7.63320017      -2.94909278E-05
   7.64519978      -2.97262632E-05
   7.65719986      -3.03615889E-05
   7.66919994      -3.13968885E-05
   7.68120003      -3.28221759E-05
   7.69320011      -3.46173110E-05
   7.70520020      -3.67522516E-05
   7.71719980      -3.91876711E-05
   7.72919989      -4.18760101E-05
   7.74119997      -4.47628299E-05
   7.75320005      -4.77884932E-05
   7.76520014      -5.08900084E-05
   7.77720022      -5.40030305E-05
   7.78919983      -5.70638476E-05
   7.80119991      -6.00112944E-05
   7.81320000      -6.27885311E-05
   7.82520008      -6.53445022E-05
   7.83720016      -6.76351774E-05
   7.84919977      -6.96244388E-05
   7.86119986      -7.12846595E-05
   7.87319994      -7.25969076E-05
   7.88520002      -7.35508875E-05
   7.89720011      -7.41446929E-05
   7.90920019      -7.43842029E-05
   7.92119980      -7.42824705E-05
   7.93319988      -7.38589297E-05
   7.94519997      -7.31385662E-05
   7.95720005      -7.21510660E-05
   7.96920013      -7.09299275E-05
   7.98120022      -6.95116323E-05
   7.99319983      -6.79348523E-05
   8.00520039      -6.62395978E-05
   8.01720047      -6.44664615E-05
   8.02919960      -6.26557594E-05
   8.04119968      -6.08467271E-05
   8.05319977      -5.90766031E-05
   8.06519985      -5.73797261E-05
   8.07719994      -5.57865824E-05
   8.08920002      -5.43228707E-05
   8.10120010      -5.30086363E-05
   8.11320019      -5.18574925E-05
   8.12520027      -5.08760095E-05
   8.13720036      -5.00633323E-05
   8.14920044      -4.94110718E-05
   8.16119957      -4.89035447E-05
   8.17319965      -4.85183300E-05
   8.18519974      -4.82272226E-05
   8.19719982      -4.79975097E-05
   8.20919991      -4.77936301E-05
   8.22119999      -4.75789857E-05
   8.23320007      -4.73180407E-05
   8.24520016      -4.69784136E-05
   8.25720024      -4.65329467E-05
   8.26920033      -4.59615876E-05
   8.28120041      -4.52529639E-05
   8.29319954      -4.44055586E-05
   8.30519962      -4.34283575E-05
   8.31719971      -4.23409292E-05
   8.32919979      -4.11728943E-05
   8.34119987      -3.99628407E-05
   8.35319996      -3.87566361E-05
   8.36520004      -3.76053431E-05
   8.37720013      -3.65627493E-05
   8.38920021      -3.56826931E-05
   8.40120029      -3.50163391E-05
   8.41320038      -3.46095585E-05
   8.42520046      -3.45005392E-05
   8.43719959      -3.47178029E-05
   8.44919968      -3.52787429E-05
   8.46119976      -3.61887069E-05
   8.47319984      -3.74407573E-05
   8.48519993      -3.90160421E-05
   8.49720001      -4.08847627E-05
   8.50920010      -4.30076616E-05
   8.52120018      -4.53379507E-05
   8.53320026      -4.78234797E-05
   8.54520035      -5.04090858E-05
   8.55720043      -5.30389188E-05
   8.56919956      -5.56586529E-05
   8.58119965      -5.82174434E-05
   8.59319973      -6.06695176E-05
   8.60519981      -6.29753631E-05
   8.61719990      -6.51024893E-05
   8.62919998      -6.70256995E-05
   8.64120007      -6.87269858E-05
   8.65320015      -7.01950194E-05
   8.66520023      -7.14243797E-05
   8.67720032      -7.24145357E-05
   8.68920040      -7.31688124E-05
   8.70119953      -7.36932561E-05
   8.71319962      -7.39956231E-05
   8.72519970      -7.40845790E-05
   8.73719978      -7.39690222E-05
   8.74919987      -7.36577349E-05
   8.76119995      -7.31591863E-05
   8.77320004      -7.24816782E-05
   8.78520012      -7.16335926E-05
   8.79720020      -7.06238061E-05
   8.80920029      -6.94621849E-05
   8.82120037      -6.81600359E-05
   8.83320045      -6.67305503E-05
   8.84519958      -6.51890150E-05
   8.85719967      -6.35529432E-05
   8.86919975      -6.18419363E-05
   8.88119984      -6.00773456E-05
   8.89319992      -5.82817265E-05
   8.90520000      -5.64781440E-05
   8.91720009      -5.46893425E-05
   8.92920017      -5.29368881E-05
   8.94120026      -5.12403349E-05
   8.95320034      -4.96164939E-05
   8.96520042      -4.80788913E-05
   8.97719955      -4.66374586E-05
   8.98919964      -4.52985041E-05
   9.00119972      -4.40649674E-05
   9.01319981      -4.29369757E-05
   9.02519989      -4.19126372E-05
   9.03719997      -4.09890199E-05
   9.04920006      -4.01632460E-05
   9.06120014      -3.94335984E-05
   9.07320023      -3.88005210E-05
   9.08520031      -3.82674552E-05
   9.09720039      -3.78413934E-05
   9.10919952      -3.75330637E-05
   9.12119961      -3.73567564E-05
   9.13319969      -3.73297007E-05
   9.14519978      -3.74711090E-05
   9.15719986      -3.78008081E-05
   9.16919994      -3.83376573E-05
   9.18120003      -3.90978057E-05
   9.19320011      -4.00928730E-05
   9.20520020      -4.13282796E-05
   9.21720028      -4.28017847E-05
   9.22920036      -4.45023506E-05
   9.24120045      -4.64095210E-05
   9.25319958      -4.84932716E-05
   9.26519966      -5.07144723E-05
   9.27719975      -5.30259094E-05
   9.28919983      -5.53738719E-05
   9.30119991      -5.77001992E-05
   9.31320000      -5.99447012E-05
   9.32520008      -6.20478168E-05
   9.33720016      -6.39533828E-05
   9.34920025      -6.56112461E-05
   9.36120033      -6.69797228E-05
   9.37320042      -6.80276062E-05
   9.38519955      -6.87356223E-05
   9.39719963      -6.90973829E-05
   9.40919971      -6.91195091E-05
   9.42119980      -6.88211512E-05
   9.43319988      -6.82328246E-05
   9.44519997      -6.73946270E-05
