 -0.622799993       0.00000000    
 -0.610800028       0.00000000    
 -0.598800004       0.00000000    
 -0.586799979       0.00000000    
 -0.574800014       8.52171322E-22
 -0.562799990       2.98852459E-21
 -0.550800025      -6.79192670E-21
 -0.538800001      -8.90582779E-20
 -0.526799977      -3.92977276E-19
 -0.514800012      -1.15254497E-18
 -0.502799988      -2.55716993E-18
 -0.490799993      -4.44763435E-18
 -0.478799999      -5.91498658E-18
 -0.466800004      -5.07658981E-18
 -0.454800010       5.42569322E-19
 -0.442799985       1.26587420E-17
 -0.430799991       2.99656996E-17
 -0.418799996       4.57658585E-17
 -0.406800002       4.70844109E-17
 -0.394800007       1.71337825E-17
 -0.382800013      -5.77703535E-17
 -0.370799989      -1.77748805E-16
 -0.358799994      -3.19029110E-16
 -0.346799999      -4.29711726E-16
 -0.334800005      -4.37781700E-16
 -0.322800010      -2.74350028E-16
 -0.310799986       9.13518879E-17
 -0.298799992       6.16532307E-16
 -0.286799997       1.16592868E-15
 -0.274800003       1.52601625E-15
 -0.262800008       1.46019671E-15
 -0.250800014       7.96904796E-16
 -0.238800004      -4.75379295E-16
 -0.226799995      -2.14414934E-15
 -0.214800000      -3.77614149E-15
 -0.202800006      -4.80531913E-15
 -0.190799996      -4.69114968E-15
 -0.178800002      -3.09910022E-15
 -0.166800007      -3.50551401E-17
 -0.154799998       4.12872404E-15
 -0.142800003       8.76311742E-15
 -0.130799994       1.31996160E-14
 -0.118799999       1.69761327E-14
 -0.106799997       2.00077381E-14
  -9.48000029E-02   2.26007296E-14
  -8.28000009E-02   2.52950161E-14
  -7.07999989E-02   2.86069860E-14
  -5.88000007E-02   3.28128434E-14
  -4.67999987E-02   3.79199608E-14
  -3.48000005E-02   4.39006843E-14
  -2.28000004E-02   5.11245539E-14
  -1.08000003E-02   6.07739025E-14
   1.20000006E-03   7.49403726E-14
   1.31999999E-02   9.61429626E-14
   2.52000000E-02   1.26205836E-13
   3.72000001E-02   1.64742013E-13
   4.91999984E-02   2.07797985E-13
   6.12000003E-02   2.47379157E-13
   7.32000023E-02   2.72471932E-13
   8.51999968E-02   2.71764788E-13
   9.71999988E-02   2.37626623E-13
  0.109200001       1.70229865E-13
  0.121200003       8.02746541E-14
  0.133200005      -1.11738206E-14
  0.145199999      -7.65742721E-14
  0.157199994      -8.92127965E-14
  0.169200003      -3.22741542E-14
  0.181199998       9.30301504E-14
  0.193200007       2.63320371E-13
  0.205200002       4.35252420E-13
  0.217199996       5.54752479E-13
  0.229200006       5.71699643E-13
  0.241200000       4.56292990E-13
  0.253199995       2.12033475E-13
  0.265199989      -1.19567035E-13
  0.277200013      -4.65558635E-13
  0.289200008      -7.39187466E-13
  0.301200002      -8.64662508E-13
  0.313199997      -8.02105236E-13
  0.325199991      -5.64532416E-13
  0.337199986      -2.20017188E-13
  0.349200010       1.24079851E-13
  0.361200005       3.52584254E-13
  0.373199999       3.82055227E-13
  0.385199994       1.97011840E-13
  0.397199988      -1.29232589E-13
  0.409200013      -4.38219637E-13
  0.421200007      -5.17393691E-13
  0.433200002      -1.53678638E-13
  0.445199996       8.02481887E-13
  0.457199991       2.37903230E-12
  0.469199985       4.44653038E-12
  0.481200010       6.71632585E-12
  0.493200004       8.77599642E-12
  0.505200028       1.01557625E-11
  0.517199993       1.04115241E-11
  0.529200017       9.20602136E-12
  0.541199982       6.37080666E-12
  0.553200006       1.93766422E-12
  0.565199971      -3.86284667E-12
  0.577199996      -1.06290428E-11
  0.589200020      -1.78291392E-11
  0.601199985      -2.48416773E-11
  0.613200009      -3.09854746E-11
  0.625199974      -3.55372086E-11
  0.637199998      -3.77436693E-11
  0.649200022      -3.68423139E-11
  0.661199987      -3.21055300E-11
  0.673200011      -2.29196072E-11
  0.685199976      -8.90019655E-12
  0.697200000       9.96570968E-12
  0.709200025       3.31722254E-11
  0.721199989       5.95691690E-11
  0.733200014       8.72879408E-11
  0.745199978       1.13743404E-10
  0.757200003       1.35728567E-10
  0.769200027       1.49609006E-10
  0.781199992       1.51614957E-10
  0.793200016       1.38221101E-10
  0.805199981       1.06597307E-10
  0.817200005       5.51050872E-11
  0.829200029      -1.61955657E-11
  0.841199994      -1.05078467E-10
  0.853200018      -2.06786810E-10
  0.865199983      -3.13848947E-10
  0.877200007      -4.16155721E-10
  0.889199972      -5.01371333E-10
  0.901199996      -5.55726021E-10
  0.913200021      -5.65196445E-10
  0.925199986      -5.17027365E-10
  0.937200010      -4.01491285E-10
  0.949199975      -2.13728632E-10
  0.961199999       4.45288112E-11
  0.973200023       3.63569674E-10
  0.985199988       7.24870552E-10
  0.997200012       1.10101794E-09
   1.00919998       1.45654733E-09
   1.02119994       1.74980519E-09
   1.03320003       1.93587368E-09
   1.04519999       1.97051797E-09
   1.05719995       1.81501913E-09
   1.06920004       1.44165002E-09
   1.08120000       8.39443681E-10
   1.09319997       1.97828334E-11
   1.10520005      -9.78748638E-10
   1.11720002      -2.08688089E-09
   1.12919998      -3.20318416E-09
   1.14119995      -4.19520152E-09
   1.15320003      -4.90365526E-09
   1.16520000      -5.15000487E-09
   1.17719996      -4.74733675E-09
   1.18920004      -3.51425533E-09
   1.20120001      -1.29103073E-09
   1.21319997       2.04312545E-09
   1.22520006       6.55319310E-09
   1.23720002       1.22337971E-08
   1.24919999       1.89991791E-08
   1.26119995       2.66800892E-08
   1.27320004       3.50300837E-08
   1.28520000       4.37435688E-08
   1.29719996       5.24877706E-08
   1.30920005       6.09502493E-08
   1.32120001       6.89030557E-08
   1.33319998       7.62837544E-08
   1.34519994       8.32927185E-08
   1.35720003       9.05048552E-08
   1.36919999       9.89930840E-08
   1.38119996       1.10459332E-07
   1.39320004       1.27368196E-07
   1.40520000       1.53076670E-07
   1.41719997       1.91953262E-07
   1.42920005       2.49478063E-07
   1.44120002       3.32316262E-07
   1.45319998       4.48355792E-07
   1.46519995       6.06702770E-07
   1.47720003       8.17625732E-07
   1.48920000       1.09244320E-06
   1.50119996       1.44335274E-06
   1.51320004       1.88319405E-06
   1.52520001       2.42515262E-06
   1.53719997       3.08240146E-06
   1.54920006       3.86769216E-06
   1.56120002       4.79289338E-06
   1.57319999       5.86850547E-06
   1.58519995       7.10314589E-06
   1.59720004       8.50303877E-06
   1.60920000       1.00715215E-05
   1.62119997       1.18085945E-05
   1.63320005       1.37105171E-05
   1.64520001       1.57695104E-05
   1.65719998       1.79735398E-05
   1.66919994       2.03062500E-05
   1.68120003       2.27470064E-05
   1.69319999       2.52711125E-05
   1.70519996       2.78501684E-05
   1.71720004       3.04525820E-05
   1.72920001       3.30442308E-05
   1.74119997       3.55892553E-05
   1.75320005       3.80509518E-05
   1.76520002       4.03927697E-05
   1.77719998       4.25793150E-05
   1.78919995       4.45774276E-05
   1.80120003       4.63571596E-05
   1.81320000       4.78927614E-05
   1.82519996       4.91635001E-05
   1.83720005       5.01543582E-05
   1.84920001       5.08565499E-05
   1.86119998       5.12678416E-05
   1.87320006       5.13926461E-05
   1.88520002       5.12418737E-05
   1.89719999       5.08325611E-05
   1.90919995       5.01872964E-05
   1.92120004       4.93334264E-05
   1.93320000       4.83021031E-05
   1.94519997       4.71272033E-05
   1.95720005       4.58441864E-05
   1.96920002       4.44888792E-05
   1.98119998       4.30963264E-05
   1.99319994       4.16997027E-05
   2.00519991       4.03293270E-05
   2.01719999       3.90118767E-05
   2.02920008       3.77697761E-05
   2.04119992       3.66208442E-05
   2.05320001       3.55781449E-05
   2.06520009       3.46500965E-05
   2.07719994       3.38407990E-05
   2.08920002       3.31505835E-05
   2.10120010       3.25766778E-05
   2.11319995       3.21140287E-05
   2.12520003       3.17561753E-05
   2.13720012       3.14961035E-05
   2.14919996       3.13270539E-05
   2.16120005       3.12432421E-05
   2.17319989       3.12403827E-05
   2.18519998       3.13160272E-05
   2.19720006       3.14696881E-05
   2.20919991       3.17027043E-05
   2.22119999       3.20179133E-05
   2.23320007       3.24190732E-05
   2.24519992       3.29101749E-05
   2.25720000       3.34946089E-05
   2.26920009       3.41742671E-05
   2.28119993       3.49487273E-05
   2.29320002       3.58144534E-05
   2.30520010       3.67642060E-05
   2.31719995       3.77866381E-05
   2.32920003       3.88661865E-05
   2.34120011       3.99832279E-05
   2.35319996       4.11145484E-05
   2.36520004       4.22341363E-05
   2.37719989       4.33142559E-05
   2.38919997       4.43267127E-05
   2.40120006       4.52443310E-05
   2.41319990       4.60424853E-05
   2.42519999       4.67006830E-05
   2.43720007       4.72040228E-05
   2.44919991       4.75444976E-05
   2.46120000       4.77220347E-05
   2.47320008       4.77452268E-05
   2.48519993       4.76316491E-05
   2.49720001       4.74077860E-05
   2.50920010       4.71085004E-05
   2.52119994       4.67761092E-05
   2.53320003       4.64590157E-05
   2.54520011       4.62100288E-05
   2.55719995       4.60843767E-05
   2.56920004       4.61375239E-05
   2.58119988       4.64229015E-05
   2.59319997       4.69895749E-05
   2.60520005       4.78800685E-05
   2.61719990       4.91283135E-05
   2.62919998       5.07579534E-05
   2.64120007       5.27809461E-05
   2.65319991       5.51966295E-05
   2.66520000       5.79912921E-05
   2.67720008       6.11381911E-05
   2.68919992       6.45981563E-05
   2.70120001       6.83206454E-05
   2.71320009       7.22452824E-05
   2.72519994       7.63038333E-05
   2.73720002       8.04224837E-05
   2.74920011       8.45242976E-05
   2.76119995       8.85319096E-05
   2.77320004       9.23701737E-05
   2.78520012       9.59686804E-05
   2.79719996       9.92641435E-05
   2.80920005       1.02202372E-04
   2.82119989       1.04739913E-04
   2.83319998       1.06845131E-04
   2.84520006       1.08498833E-04
   2.85719991       1.09694309E-04
   2.86919999       1.10436842E-04
   2.88120008       1.10742636E-04
   2.89319992       1.10637433E-04
   2.90520000       1.10154680E-04
   2.91720009       1.09333421E-04
   2.92919993       1.08216169E-04
   2.94120002       1.06846630E-04
   2.95320010       1.05267653E-04
   2.96519995       1.03519305E-04
   2.97720003       1.01637335E-04
   2.98920012       9.96519520E-05
   3.00119996       9.75871226E-05
   3.01320004       9.54602365E-05
   3.02519989       9.32823023E-05
   3.03719997       9.10585004E-05
   3.04920006       8.87891219E-05
   3.06119990       8.64707617E-05
   3.07319999       8.40977664E-05
   3.08520007       8.16636166E-05
   3.09719992       7.91624116E-05
   3.10920000       7.65901932E-05
   3.12120008       7.39460302E-05
   3.13319993       7.12328401E-05
   3.14520001       6.84578918E-05
   3.15720010       6.56329285E-05
   3.16919994       6.27739864E-05
   3.18120003       5.99008563E-05
   3.19320011       5.70362790E-05
   3.20519996       5.42049347E-05
   3.21720004       5.14323074E-05
   3.22919989       4.87434554E-05
   3.24119997       4.61618620E-05
   3.25320005       4.37083108E-05
   3.26519990       4.14000133E-05
   3.27719998       3.92499023E-05
   3.28920007       3.72661816E-05
   3.30119991       3.54521981E-05
   3.31320000       3.38065402E-05
   3.32520008       3.23234199E-05
   3.33719993       3.09932766E-05
   3.34920001       2.98035393E-05
   3.36120009       2.87395033E-05
   3.37319994       2.77852851E-05
   3.38520002       2.69247339E-05
   3.39720011       2.61422811E-05
   3.40919995       2.54236747E-05
   3.42120004       2.47565567E-05
   3.43319988       2.41308517E-05
   3.44519997       2.35389689E-05
   3.45720005       2.29758025E-05
   3.46919990       2.24385622E-05
   3.48119998       2.19264657E-05
   3.49320006       2.14403062E-05
   3.50519991       2.09819755E-05
   3.51719999       2.05539436E-05
   3.52920008       2.01587809E-05
   3.54119992       1.97987429E-05
   3.55320001       1.94754575E-05
   3.56520009       1.91897325E-05
   3.57719994       1.89414986E-05
   3.58920002       1.87298938E-05
   3.60120010       1.85534645E-05
   3.61319995       1.84104592E-05
   3.62520003       1.82991807E-05
   3.63720012       1.82183885E-05
   3.64919996       1.81676423E-05
   3.66120005       1.81476080E-05
   3.67319989       1.81602663E-05
   3.68519998       1.82089880E-05
   3.69720006       1.82984568E-05
   3.70919991       1.84344426E-05
   3.72119999       1.86234247E-05
   3.73320007       1.88720787E-05
   3.74519992       1.91866529E-05
   3.75720000       1.95723096E-05
   3.76920009       2.00324248E-05
   3.78119993       2.05679589E-05
   3.79320002       2.11769147E-05
   3.80520010       2.18539353E-05
   3.81719995       2.25901076E-05
   3.82920003       2.33729716E-05
   3.84120011       2.41867656E-05
   3.85319996       2.50129087E-05
   3.86520004       2.58307009E-05
   3.87719989       2.66181942E-05
   3.88919997       2.73532369E-05
   3.90120006       2.80145705E-05
   3.91319990       2.85829774E-05
   3.92519999       2.90423832E-05
   3.93720007       2.93808389E-05
   3.94919991       2.95913669E-05
   3.96120000       2.96725448E-05
   3.97320008       2.96288617E-05
   3.98519993       2.94707606E-05
   3.99720001       2.92143541E-05
   4.00920010       2.88808733E-05
   4.02120018       2.84957805E-05
   4.03319979       2.80876648E-05
   4.04519987       2.76869087E-05
   4.05719995       2.73242458E-05
   4.06920004       2.70292203E-05
   4.08120012       2.68286931E-05
   4.09320021       2.67454343E-05
   4.10519981       2.67969135E-05
   4.11719990       2.69943175E-05
   4.12919998       2.73418973E-05
   4.14120007       2.78366606E-05
   4.15320015       2.84684520E-05
   4.16520023       2.92203858E-05
   4.17719984       3.00696829E-05
   4.18919992       3.09887619E-05
   4.20120001       3.19466490E-05
   4.21320009       3.29105278E-05
   4.22520018       3.38474019E-05
   4.23719978       3.47257592E-05
   4.24919987       3.55171433E-05
   4.26119995       3.61975581E-05
   4.27320004       3.67486064E-05
   4.28520012       3.71583446E-05
   4.29720020       3.74217634E-05
   4.30919981       3.75409363E-05
   4.32119989       3.75247801E-05
   4.33319998       3.73885196E-05
   4.34520006       3.71528440E-05
   4.35720015       3.68428409E-05
   4.36920023       3.64867665E-05
   4.38119984       3.61147286E-05
   4.39319992       3.57573044E-05
   4.40520000       3.54442600E-05
   4.41720009       3.52032803E-05
   4.42920017       3.50589034E-05
   4.44119978       3.50315750E-05
   4.45319986       3.51369490E-05
   4.46519995       3.53853720E-05
   4.47720003       3.57816098E-05
   4.48920012       3.63248109E-05
   4.50120020       3.70086891E-05
   4.51319981       3.78219083E-05
   4.52519989       3.87486871E-05
   4.53719997       3.97695512E-05
   4.54920006       4.08622291E-05
   4.56120014       4.20026590E-05
   4.57320023       4.31660483E-05
   4.58519983       4.43279532E-05
   4.59719992       4.54653236E-05
   4.60920000       4.65574340E-05
   4.62120008       4.75867128E-05
   4.63320017       4.85393612E-05
   4.64519978       4.94057385E-05
   4.65719986       5.01805407E-05
   4.66919994       5.08626617E-05
   4.68120003       5.14548701E-05
   4.69320011       5.19632122E-05
   4.70520020       5.23962590E-05
   4.71719980       5.27642514E-05
   4.72919989       5.30781508E-05
   4.74119997       5.33487546E-05
   4.75320005       5.35858562E-05
   4.76520014       5.37975866E-05
   4.77720022       5.39899193E-05
   4.78919983       5.41664558E-05
   4.80119991       5.43284077E-05
   4.81320000       5.44748327E-05
   4.82520008       5.46031079E-05
   4.83720016       5.47095260E-05
   4.84919977       5.47900563E-05
   4.86119986       5.48411081E-05
   4.87319994       5.48603093E-05
   4.88520002       5.48471653E-05
   4.89720011       5.48036078E-05
   4.90920019       5.47343079E-05
   4.92119980       5.46467818E-05
   4.93319988       5.45512557E-05
   4.94519997       5.44602663E-05
   4.95720005       5.43880451E-05
   4.96920013       5.43497335E-05
   4.98120022       5.43604292E-05
   4.99319983       5.44341892E-05
   5.00519991       5.45830044E-05
   5.01719999       5.48158678E-05
   5.02920008       5.51379562E-05
   5.04120016       5.55500301E-05
   5.05319977       5.60480657E-05
   5.06519985       5.66232011E-05
   5.07719994       5.72619538E-05
   5.08920002       5.79467887E-05
   5.10120010       5.86569258E-05
   5.11320019       5.93694385E-05
   5.12519979       6.00605090E-05
   5.13719988       6.07068068E-05
   5.14919996       6.12869553E-05
   5.16120005       6.17828409E-05
   5.17320013       6.21809304E-05
   5.18520021       6.24732202E-05
   5.19719982       6.26579858E-05
   5.20919991       6.27401096E-05
   5.22119999       6.27310583E-05
   5.23320007       6.26483670E-05
   5.24520016       6.25147732E-05
   5.25719976       6.23569213E-05
   5.26919985       6.22037915E-05
   5.28119993       6.20848732E-05
   5.29320002       6.20281935E-05
   5.30520010       6.20584033E-05
   5.31720018       6.21948566E-05
   5.32919979       6.24500753E-05
   5.34119987       6.28284324E-05
   5.35319996       6.33253367E-05
   5.36520004       6.39269056E-05
   5.37720013       6.46102053E-05
   5.38920021       6.53440293E-05
   5.40119982       6.60902369E-05
   5.41319990       6.68055509E-05
   5.42519999       6.74437761E-05
   5.43720007       6.79582736E-05
   5.44920015       6.83046019E-05
   5.46120024       6.84431143E-05
   5.47319984       6.83414473E-05
   5.48519993       6.79766890E-05
   5.49720001       6.73370596E-05
   5.50920010       6.64231047E-05
   5.52120018       6.52482195E-05
   5.53319979       6.38384809E-05
   5.54519987       6.22318112E-05
   5.55719995       6.04764537E-05
   5.56920004       5.86288843E-05
   5.58120012       5.67512434E-05
   5.59320021       5.49083779E-05
   5.60519981       5.31647238E-05
   5.61719990       5.15811844E-05
   5.62919998       5.02121402E-05
   5.64120007       4.91027895E-05
   5.65320015       4.82869436E-05
   5.66520023       4.77854192E-05
   5.67719984       4.76050736E-05
   5.68919992       4.77385620E-05
   5.70120001       4.81647548E-05
   5.71320009       4.88498590E-05
   5.72520018       4.97490619E-05
   5.73719978       5.08086741E-05
   5.74919987       5.19686218E-05
   5.76119995       5.31651203E-05
   5.77320004       5.43334354E-05
   5.78520012       5.54105573E-05
   5.79720020       5.63377071E-05
   5.80919981       5.70625489E-05
   5.82119989       5.75410377E-05
   5.83319998       5.77388309E-05
   5.84520006       5.76323146E-05
   5.85720015       5.72091340E-05
   5.86920023       5.64683105E-05
   5.88119984       5.54199796E-05
   5.89319992       5.40847250E-05
   5.90520000       5.24926872E-05
   5.91720009       5.06823235E-05
   5.92920017       4.86990612E-05
   5.94119978       4.65937082E-05
   5.95319986       4.44208381E-05
   5.96519995       4.22370831E-05
   5.97720003       4.00994250E-05
   5.98920012       3.80635174E-05
   6.00120020       3.61820894E-05
   6.01319981       3.45034532E-05
   6.02519989       3.30701550E-05
   6.03719997       3.19177925E-05
   6.04920006       3.10740616E-05
   6.06120014       3.05580215E-05
   6.07320023       3.03796078E-05
   6.08519983       3.05394315E-05
   6.09719992       3.10288669E-05
   6.10920000       3.18303864E-05
   6.12120008       3.29182221E-05
   6.13320017       3.42592284E-05
   6.14519978       3.58139951E-05
   6.15719986       3.75381460E-05
   6.16919994       3.93837581E-05
   6.18120003       4.13008784E-05
   6.19320011       4.32390625E-05
   6.20520020       4.51489068E-05
   6.21719980       4.69835031E-05
   6.22919989       4.86997596E-05
   6.24119997       5.02595794E-05
   6.25320005       5.16308210E-05
   6.26520014       5.27880402E-05
   6.27720022       5.37129854E-05
   6.28919983       5.43948154E-05
   6.30119991       5.48300923E-05
   6.31320000       5.50224941E-05
   6.32520008       5.49823271E-05
   6.33720016       5.47258460E-05
   6.34919977       5.42743874E-05
   6.36119986       5.36534390E-05
   6.37319994       5.28915807E-05
   6.38520002       5.20194517E-05
   6.39720011       5.10686696E-05
   6.40920019       5.00708411E-05
   6.42119980       4.90566235E-05
   6.43319988       4.80549024E-05
   6.44519997       4.70920859E-05
   6.45720005       4.61915333E-05
   6.46920013       4.53731263E-05
   6.48120022       4.46529630E-05
   6.49319983       4.40431868E-05
   6.50519991       4.35519105E-05
   6.51719999       4.31832632E-05
   6.52920008       4.29374777E-05
   6.54120016       4.28110907E-05
   6.55319977       4.27971645E-05
   6.56519985       4.28856001E-05
   6.57719994       4.30634755E-05
   6.58920002       4.33154055E-05
   6.60120010       4.36239934E-05
   6.61320019       4.39702562E-05
   6.62519979       4.43341050E-05
   6.63719988       4.46948034E-05
   6.64919996       4.50314692E-05
   6.66120005       4.53235079E-05
   6.67320013       4.55511217E-05
   6.68520021       4.56956768E-05
   6.69719982       4.57401620E-05
   6.70919991       4.56695452E-05
   6.72119999       4.54711299E-05
   6.73320007       4.51348606E-05
   6.74520016       4.46535778E-05
   6.75719976       4.40232943E-05
   6.76919985       4.32433480E-05
   6.78119993       4.23165875E-05
   6.79320002       4.12494737E-05
   6.80520010       4.00521676E-05
   6.81720018       3.87385662E-05
   6.82919979       3.73262774E-05
   6.84119987       3.58365505E-05
   6.85319996       3.42941166E-05
   6.86520004       3.27269445E-05
   6.87720013       3.11659060E-05
   6.88920021       2.96443104E-05
   6.90119982       2.81973571E-05
   6.91319990       2.68614458E-05
   6.92519999       2.56734093E-05
   6.93720007       2.46696327E-05
   6.94920015       2.38851226E-05
   6.96120024       2.33525116E-05
   6.97319984       2.31010490E-05
   6.98519993       2.31555896E-05
   6.99720001       2.35356165E-05
   7.00920010       2.42543374E-05
   7.02120018       2.53178769E-05
   7.03319979       2.67246105E-05
   7.04519987       2.84646703E-05
   7.05719995       3.05196445E-05
   7.06920004       3.28625101E-05
   7.08120012       3.54578005E-05
   7.09320021       3.82620419E-05
   7.10519981       4.12244408E-05
   7.11719990       4.42878263E-05
   7.12919998       4.73898472E-05
   7.14120007       5.04643976E-05
   7.15320015       5.34432329E-05
   7.16520023       5.62577698E-05
   7.17719984       5.88409894E-05
   7.18919992       6.11294381E-05
   7.20120001       6.30652212E-05
   7.21320009       6.45979089E-05
   7.22520018       6.56863922E-05
   7.23719978       6.63004830E-05
   7.24919987       6.64222389E-05
   7.26119995       6.60469814E-05
   7.27320004       6.51838709E-05
   7.28520012       6.38561178E-05
   7.29720020       6.21006184E-05
   7.30919981       5.99671948E-05
   7.32119989       5.75172962E-05
   7.33319998       5.48222924E-05
   7.34520006       5.19613204E-05
   7.35720015       4.90188613E-05
   7.36920023       4.60820193E-05
   7.38119984       4.32376946E-05
   7.39319992       4.05697319E-05
   7.40520000       3.81561294E-05
   7.41720009       3.60664781E-05
   7.42920017       3.43597058E-05
   7.44119978       3.30821822E-05
   7.45319986       3.22663218E-05
   7.46519995       3.19297214E-05
   7.47720003       3.20748077E-05
   7.48920012       3.26890695E-05
   7.50120020       3.37458405E-05
   7.51319981       3.52055285E-05
   7.52519989       3.70173657E-05
   7.53719997       3.91214089E-05
   7.54920006       4.14508759E-05
   7.56120014       4.39346113E-05
   7.57320023       4.64996083E-05
   7.58519983       4.90734892E-05
   7.59719992       5.15868487E-05
   7.60920000       5.39753564E-05
   7.62120008       5.61816196E-05
   7.63320017       5.81566565E-05
   7.64519978       5.98610386E-05
   7.65719986       6.12656004E-05
   7.66919994       6.23517844E-05
   7.68120003       6.31115909E-05
   7.69320011       6.35471370E-05
   7.70520020       6.36699333E-05
   7.71719980       6.34998432E-05
   7.72919989       6.30638606E-05
   7.74119997       6.23946689E-05
   7.75320005       6.15291647E-05
   7.76520014       6.05069145E-05
   7.77720022       5.93686891E-05
   7.78919983       5.81550266E-05
   7.80119991       5.69049662E-05
   7.81320000       5.56549639E-05
   7.82520008       5.44379582E-05
   7.83720016       5.32826780E-05
   7.84919977       5.22131450E-05
   7.86119986       5.12483675E-05
   7.87319994       5.04022537E-05
   7.88520002       4.96836437E-05
   7.89720011       4.90965067E-05
   7.90920019       4.86402569E-05
   7.92119980       4.83101212E-05
   7.93319988       4.80975941E-05
   7.94519997       4.79909249E-05
   7.95720005       4.79756418E-05
   7.96920013       4.80350864E-05
   7.98120022       4.81509996E-05
   7.99319983       4.83041076E-05
   8.00520039       4.84747761E-05
   8.01720047       4.86436620E-05
   8.02919960       4.87924008E-05
   8.04119968       4.89043377E-05
   8.05319977       4.89651902E-05
   8.06519985       4.89637277E-05
   8.07719994       4.88923542E-05
   8.08920002       4.87475845E-05
   8.10120010       4.85303863E-05
   8.11320019       4.82462965E-05
   8.12520027       4.79053379E-05
   8.13720036       4.75217166E-05
   8.14920044       4.71132371E-05
   8.16119957       4.67005011E-05
   8.17319965       4.63059223E-05
   8.18519974       4.59525181E-05
   8.19719982       4.56626985E-05
   8.20919991       4.54569345E-05
   8.22119999       4.53525208E-05
   8.23320007       4.53624671E-05
   8.24520016       4.54945693E-05
   8.25720024       4.57507340E-05
   8.26920033       4.61266172E-05
   8.28120041       4.66115816E-05
   8.29319954       4.71889871E-05
   8.30519962       4.78368274E-05
   8.31719971       4.85286291E-05
   8.32919979       4.92346335E-05
   8.34119987       4.99231646E-05
   8.35319996       5.05620847E-05
   8.36520004       5.11203216E-05
   8.37720013       5.15693573E-05
   8.38920021       5.18845845E-05
   8.40120029       5.20464819E-05
   8.41320038       5.20415706E-05
   8.42520046       5.18630732E-05
   8.43719959       5.15112552E-05
   8.44919968       5.09935016E-05
   8.46119976       5.03240226E-05
   8.47319984       4.95233071E-05
   8.48519993       4.86173376E-05
   8.49720001       4.76365349E-05
   8.50920010       4.66145902E-05
   8.52120018       4.55871232E-05
   8.53320026       4.45903170E-05
   8.54520035       4.36595037E-05
   8.55720043       4.28278217E-05
   8.56919956       4.21249642E-05
   8.58119965       4.15760405E-05
   8.59319973       4.12006848E-05
   8.60519981       4.10123284E-05
   8.61719990       4.10177745E-05
   8.62919998       4.12169757E-05
   8.64120007       4.16031398E-05
   8.65320015       4.21630539E-05
   8.66520023       4.28776402E-05
   8.67720032       4.37227645E-05
   8.68920040       4.46702034E-05
   8.70119953       4.56887356E-05
   8.71319962       4.67453356E-05
   8.72519970       4.78064139E-05
   8.73719978       4.88390469E-05
   8.74919987       4.98121226E-05
   8.76119995       5.06974211E-05
   8.77320004       5.14705171E-05
   8.78520012       5.21115435E-05
   8.79720020       5.26057192E-05
   8.80920029       5.29436547E-05
   8.82120037       5.31214937E-05
   8.83320045       5.31407713E-05
   8.84519958       5.30081270E-05
   8.85719967       5.27348129E-05
   8.86919975       5.23360577E-05
   8.88119984       5.18303532E-05
   8.89319992       5.12386068E-05
   8.90520000       5.05833232E-05
   8.91720009       4.98877416E-05
   8.92920017       4.91750470E-05
   8.94120026       4.84675875E-05
   8.95320034       4.77862086E-05
   8.96520042       4.71497151E-05
   8.97719955       4.65743760E-05
   8.98919964       4.60736046E-05
   9.00119972       4.56577327E-05
   9.01319981       4.53339089E-05
   9.02519989       4.51060914E-05
   9.03719997       4.49751496E-05
   9.04920006       4.49390209E-05
   9.06120014       4.49929648E-05
   9.07320023       4.51298329E-05
   9.08520031       4.53403736E-05
   9.09720039       4.56135785E-05
   9.10919952       4.59370276E-05
   9.12119961       4.62972348E-05
   9.13319969       4.66800229E-05
   9.14519978       4.70708801E-05
   9.15719986       4.74553563E-05
   9.16919994       4.78194415E-05
   9.18120003       4.81499665E-05
   9.19320011       4.84350021E-05
   9.20520020       4.86642639E-05
   9.21720028       4.88294827E-05
   9.22920036       4.89247504E-05
   9.24120045       4.89468111E-05
   9.25319958       4.88953228E-05
   9.26519966       4.87729740E-05
   9.27719975       4.85855344E-05
   9.28919983       4.83417971E-05
   9.30119991       4.80533308E-05
   9.31320000       4.77341673E-05
   9.32520008       4.74003027E-05
   9.33720016       4.70691084E-05
   9.34920025       4.67586215E-05
   9.36120033       4.64867844E-05
   9.37320042       4.62706666E-05
   9.38519955       4.61256750E-05
   9.39719963       4.60648407E-05
   9.40919971       4.60982337E-05
   9.42119980       4.62324606E-05
   9.43319988       4.64703953E-05
   9.44519997       4.68110302E-05
