 -0.622799993         1.00000002E-24
 -0.610800028         1.00000002E-24
 -0.598800004         1.00000002E-24
 -0.586799979         1.00000002E-24
 -0.574800014         8.52963364E-22
 -0.562799990         2.98858760E-21
 -0.550800025        -6.79126188E-21
 -0.538800001        -8.90457021E-20
 -0.526799977        -3.92916504E-19
 -0.514800012        -1.15236310E-18
 -0.502799988        -2.55677619E-18
 -0.490799993        -4.44700280E-18
 -0.478799999        -5.91432442E-18
 -0.466800004        -5.07654101E-18
 -0.454800010         5.40822213E-19
 -0.442799985         1.26537135E-17
 -0.430799991         2.99563790E-17
 -0.418799996         4.57530703E-17
 -0.406800002         4.70723572E-17
 -0.394800007         1.71309518E-17
 -0.382800013        -5.77521291E-17
 -0.370799989        -1.77698221E-16
 -0.358799994        -3.18942209E-16
 -0.346799999        -4.29600552E-16
 -0.334800005        -4.37680691E-16
 -0.322800010        -2.74316252E-16
 -0.310799986         9.12502175E-17
 -0.298799992         6.16240292E-16
 -0.286799997         1.16543888E-15
 -0.274800003         1.52540311E-15
 -0.262800008         1.45963619E-15
 -0.250800014         7.96660798E-16
 -0.238800004        -4.75012953E-16
 -0.226799995        -2.14294910E-15
 -0.214800000        -3.77408235E-15
 -0.202800006        -4.80268613E-15
 -0.190799996        -4.68858783E-15
 -0.178800002        -3.09755375E-15
 -0.166800007        -3.55677009E-17
 -0.154799998         4.12532870E-15
 -0.142800003         8.75661560E-15
 -0.130799994         1.31906959E-14
 -0.118799999         1.69665375E-14
 -0.106799997         2.00000725E-14
  -9.48000029E-02     2.25979242E-14
  -8.28000009E-02     2.52994596E-14
  -7.07999989E-02     2.86195357E-14
  -5.88000007E-02     3.28319728E-14
  -4.67999987E-02     3.79413840E-14
  -3.48000005E-02     4.39177571E-14
  -2.28000004E-02     5.11295413E-14
  -1.08000003E-02     6.07599501E-14
   1.20000006E-03     7.49038418E-14
   1.31999999E-02     9.60855270E-14
   2.52000000E-02     1.26135525E-13
   3.72000001E-02     1.64672624E-13
   4.91999984E-02     2.07746716E-13
   6.12000003E-02     2.47362515E-13
   7.32000023E-02     2.72501016E-13
   8.51999968E-02     2.71840628E-13
   9.71999988E-02     2.37737645E-13
  0.109200001         1.70351716E-13
  0.121200003         8.03739806E-14
  0.133200005        -1.11330046E-14
  0.145199999        -7.66219296E-14
  0.157199994        -8.93638936E-14
  0.169200003        -3.25215522E-14
  0.181199998         9.27193706E-14
  0.193200007         2.63003269E-13
  0.205200002         4.35003243E-13
  0.217199996         5.54649859E-13
  0.229200006         5.71809147E-13
  0.241200000         4.56647795E-13
  0.253199995         2.12616193E-13
  0.265199989        -1.18835836E-13
  0.277200013        -4.64820077E-13
  0.289200008        -7.38628180E-13
  0.301200002        -8.64479224E-13
  0.313199997        -8.02455975E-13
  0.325199991        -5.65482069E-13
  0.337199986        -2.21491974E-13
  0.349200010         1.22311192E-13
  0.361200005         3.50890486E-13
  0.373199999         3.80877052E-13
  0.385199994         1.96760265E-13
  0.397199988        -1.28294727E-13
  0.409200013        -4.36078718E-13
  0.421200007        -5.14337488E-13
  0.433200002        -1.50273958E-13
  0.445199996         8.05490169E-13
  0.457199991         2.38088412E-12
  0.469199985         4.44663924E-12
  0.481200010         6.71443847E-12
  0.493200004         8.77228238E-12
  0.505200028         1.01508055E-11
  0.517199993         1.04062019E-11
  0.529200017         9.20132373E-12
  0.541199982         6.36761087E-12
  0.553200006         1.93655010E-12
  0.565199971        -3.86170479E-12
  0.577199996        -1.06258682E-11
  0.589200020        -1.78244364E-11
  0.601199985        -2.48360325E-11
  0.613200009        -3.09793372E-11
  0.625199974        -3.55307485E-11
  0.637199998        -3.77367894E-11
  0.649200022        -3.68348893E-11
  0.661199987        -3.20978452E-11
  0.673200011        -2.29128851E-11
  0.685199976        -8.89703675E-12
  0.697200000         9.96134685E-12
  0.709200025         3.31557282E-11
  0.721199989         5.95368338E-11
  0.733200014         8.72391603E-11
  0.745199978         1.13683077E-10
  0.757200003         1.35668643E-10
  0.769200027         1.49568191E-10
  0.781199992         1.51615678E-10
  0.793200016         1.38283621E-10
  0.805199981         1.06731644E-10
  0.817200005         5.53030087E-11
  0.829200029        -1.59657305E-11
  0.841199994        -1.04871119E-10
  0.853200018        -2.06670542E-10
  0.865199983        -3.13890053E-10
  0.877200007        -4.16396612E-10
  0.889199972        -5.01809427E-10
  0.901199996        -5.56300395E-10
  0.913200021        -5.65788305E-10
  0.925199986        -5.17479337E-10
  0.937200010        -4.01643330E-10
  0.949199975        -2.13464760E-10
  0.961199999         4.52357873E-11
  0.973200023         3.64629354E-10
  0.985199988         7.26074922E-10
  0.997200012         1.10207665E-09
   1.00919998         1.45715384E-09
   1.02119994         1.74972103E-09
   1.03320003         1.93500838E-09
   1.04519999         1.96898009E-09
   1.05719995         1.81311655E-09
   1.06920004         1.43983447E-09
   1.08120000         8.38204728E-10
   1.09319997         1.95161769E-11
   1.10520005        -9.77863901E-10
   1.11720002        -2.08495821E-09
   1.12919998        -3.20063087E-09
   1.14119995        -4.19263646E-09
   1.15320003        -4.90175989E-09
   1.16520000        -5.14933651E-09
   1.17719996        -4.74816364E-09
   1.18920004        -3.51645535E-09
   1.20120001        -1.29409672E-09
   1.21319997         2.03997597E-09
   1.22520006         6.55082477E-09
   1.23720002         1.22329231E-08
   1.24919999         1.90001650E-08
   1.26119995         2.66828266E-08
   1.27320004         3.50340059E-08
   1.28520000         4.37477787E-08
   1.29719996         5.24912807E-08
   1.30920005         6.09522530E-08
   1.32120001         6.89031552E-08
   1.33319998         7.62820918E-08
   1.34519994         8.32899474E-08
   1.35720003         9.05020414E-08
   1.36919999         9.89913786E-08
   1.38119996         1.10459723E-07
   1.39320004         1.27371251E-07
   1.40520000         1.53082439E-07
   1.41719997         1.91961291E-07
   1.42920005         2.49487499E-07
   1.44120002         3.32326266E-07
   1.45319998         4.48365995E-07
   1.46519995         6.06713115E-07
   1.47720003         8.17636931E-07
   1.48920000         1.09245673E-06
   1.50119996         1.44337037E-06
   1.51320004         1.88321849E-06
   1.52520001         2.42518672E-06
   1.53719997         3.08244898E-06
   1.54920006         3.86775400E-06
   1.56120002         4.79297296E-06
   1.57319999         5.86860415E-06
   1.58519995         7.10326367E-06
   1.59720004         8.50317792E-06
   1.60920000         1.00716861E-05
   1.62119997         1.18087828E-05
   1.63320005         1.37107327E-05
   1.64520001         1.57697523E-05
   1.65719998         1.79738145E-05
   1.66919994         2.03065574E-05
   1.68120003         2.27473502E-05
   1.69319999         2.52714945E-05
   1.70519996         2.78505868E-05
   1.71720004         3.04530367E-05
   1.72920001         3.30447219E-05
   1.74119997         3.55897791E-05
   1.75320005         3.80515121E-05
   1.76520002         4.03933591E-05
   1.77719998         4.25799371E-05
   1.78919995         4.45780752E-05
   1.80120003         4.63578363E-05
   1.81320000         4.78934671E-05
   1.82519996         4.91642240E-05
   1.83720005         5.01550930E-05
   1.84920001         5.08572957E-05
   1.86119998         5.12685947E-05
   1.87320006         5.13933992E-05
   1.88520002         5.12426159E-05
   1.89719999         5.08332887E-05
   1.90919995         5.01880095E-05
   1.92120004         4.93341176E-05
   1.93320000         4.83027688E-05
   1.94519997         4.71278508E-05
   1.95720005         4.58448121E-05
   1.96920002         4.44894831E-05
   1.98119998         4.30969158E-05
   1.99319994         4.17002739E-05
   2.00519991         4.03298836E-05
   2.01719999         3.90124151E-05
   2.02920008         3.77703036E-05
   2.04119992         3.66213608E-05
   2.05320001         3.55786469E-05
   2.06520009         3.46505803E-05
   2.07719994         3.38412683E-05
   2.08920002         3.31510346E-05
   2.10120010         3.25771107E-05
   2.11319995         3.21144471E-05
   2.12520003         3.17565755E-05
   2.13720012         3.14964855E-05
   2.14919996         3.13274249E-05
   2.16120005         3.12436023E-05
   2.17319989         3.12407356E-05
   2.18519998         3.13163837E-05
   2.19720006         3.14700446E-05
   2.20919991         3.17030717E-05
   2.22119999         3.20182880E-05
   2.23320007         3.24194662E-05
   2.24519992         3.29105860E-05
   2.25720000         3.34950382E-05
   2.26920009         3.41747218E-05
   2.28119993         3.49492075E-05
   2.29320002         3.58149628E-05
   2.30520010         3.67647481E-05
   2.31719995         3.77872129E-05
   2.32920003         3.88667977E-05
   2.34120011         3.99838646E-05
   2.35319996         4.11152105E-05
   2.36520004         4.22348276E-05
   2.37719989         4.33149726E-05
   2.38919997         4.43274475E-05
   2.40120006         4.52450768E-05
   2.41319990         4.60432384E-05
   2.42519999         4.67014470E-05
   2.43720007         4.72047905E-05
   2.44919991         4.75452689E-05
   2.46120000         4.77228095E-05
   2.47320008         4.77459944E-05
   2.48519993         4.76324058E-05
   2.49720001         4.74085209E-05
   2.50920010         4.71092171E-05
   2.52119994         4.67768077E-05
   2.53320003         4.64596997E-05
   2.54520011         4.62107091E-05
   2.55719995         4.60850570E-05
   2.56920004         4.61382224E-05
   2.58119988         4.64236255E-05
   2.59319997         4.69903352E-05
   2.60520005         4.78808615E-05
   2.61719990         4.91291503E-05
   2.62919998         5.07588265E-05
   2.64120007         5.27818484E-05
   2.65319991         5.51975609E-05
   2.66520000         5.79922562E-05
   2.67720008         6.11391879E-05
   2.68919992         6.45991895E-05
   2.70120001         6.83217295E-05
   2.71320009         7.22464320E-05
   2.72519994         7.63050775E-05
   2.73720002         8.04238152E-05
   2.74920011         8.45257237E-05
   2.76119995         8.85334230E-05
   2.77320004         9.23717598E-05
   2.78520012         9.59703466E-05
   2.79719996         9.92658825E-05
   2.80920005         1.02204198E-04
   2.82119989         1.04741812E-04
   2.83319998         1.06847117E-04
   2.84520006         1.08500928E-04
   2.85719991         1.09696492E-04
   2.86919999         1.10439090E-04
   2.88120008         1.10744921E-04
   2.89319992         1.10639696E-04
   2.90520000         1.10156863E-04
   2.91720009         1.09335459E-04
   2.92919993         1.08218017E-04
   2.94120002         1.06848238E-04
   2.95320010         1.05269006E-04
   2.96519995         1.03520404E-04
   2.97720003         1.01638187E-04
   2.98920012         9.96525850E-05
   3.00119996         9.75875519E-05
   3.01320004         9.54604839E-05
   3.02519989         9.32823896E-05
   3.03719997         9.10584276E-05
   3.04920006         8.87888891E-05
   3.06119990         8.64703761E-05
   3.07319999         8.40972207E-05
   3.08520007         8.16629035E-05
   3.09719992         7.91615457E-05
   3.10920000         7.65892037E-05
   3.12120008         7.39449388E-05
   3.13319993         7.12316760E-05
   3.14520001         6.84566767E-05
   3.15720010         6.56316770E-05
   3.16919994         6.27727059E-05
   3.18120003         5.98995393E-05
   3.19320011         5.70349112E-05
   3.20519996         5.42035013E-05
   3.21720004         5.14307940E-05
   3.22919989         4.87418474E-05
   3.24119997         4.61601485E-05
   3.25320005         4.37064955E-05
   3.26519990         4.13981033E-05
   3.27719998         3.92479014E-05
   3.28920007         3.72641043E-05
   3.30119991         3.54500589E-05
   3.31320000         3.38043537E-05
   3.32520008         3.23212080E-05
   3.33719993         3.09910647E-05
   3.34920001         2.98013583E-05
   3.36120009         2.87374060E-05
   3.37319994         2.77833242E-05
   3.38520002         2.69229640E-05
   3.39720011         2.61407604E-05
   3.40919995         2.54224597E-05
   3.42120004         2.47556927E-05
   3.43319988         2.41303769E-05
   3.44519997         2.35389070E-05
   3.45720005         2.29761590E-05
   3.46919990         2.24393370E-05
   3.48119998         2.19276390E-05
   3.49320006         2.14418469E-05
   3.50519991         2.09838345E-05
   3.51719999         2.05560573E-05
   3.52920008         2.01610710E-05
   3.54119992         1.98011221E-05
   3.55320001         1.94778349E-05
   3.56520009         1.91920171E-05
   3.57719994         1.89436050E-05
   3.58920002         1.87317510E-05
   3.60120010         1.85550125E-05
   3.61319995         1.84116543E-05
   3.62520003         1.83000029E-05
   3.63720012         1.82188196E-05
   3.64919996         1.81676769E-05
   3.66120005         1.81472496E-05
   3.67319989         1.81595315E-05
   3.68519998         1.82079075E-05
   3.69720006         1.82970762E-05
   3.70919991         1.84328310E-05
   3.72119999         1.86216676E-05
   3.73320007         1.88702670E-05
   3.74519992         1.91848922E-05
   3.75720000         1.95706907E-05
   3.76920009         2.00310278E-05
   3.78119993         2.05668402E-05
   3.79320002         2.11760998E-05
   3.80520010         2.18534296E-05
   3.81719995         2.25898912E-05
   3.82920003         2.33730061E-05
   3.84120011         2.41870057E-05
   3.85319996         2.50133089E-05
   3.86520004         2.58312120E-05
   3.87719989         2.66187708E-05
   3.88919997         2.73538335E-05
   3.90120006         2.80151507E-05
   3.91319990         2.85835067E-05
   3.92519999         2.90428234E-05
   3.93720007         2.93811700E-05
   3.94919991         2.95915634E-05
   3.96120000         2.96725939E-05
   3.97320008         2.96287653E-05
   3.98519993         2.94705114E-05
   3.99720001         2.92139684E-05
   4.00920010         2.88803658E-05
   4.02120018         2.84951711E-05
   4.03319979         2.80869754E-05
   4.04519987         2.76861665E-05
   4.05719995         2.73234764E-05
   4.06920004         2.70284509E-05
   4.08120012         2.68279564E-05
   4.09320021         2.67447722E-05
   4.10519981         2.67963642E-05
   4.11719990         2.69939246E-05
   4.12919998         2.73417063E-05
   4.14120007         2.78367133E-05
   4.15320015         2.84687849E-05
   4.16520023         2.92210298E-05
   4.17719984         3.00706433E-05
   4.18919992         3.09900315E-05
   4.20120001         3.19481951E-05
   4.21320009         3.29123031E-05
   4.22520018         3.38493410E-05
   4.23719978         3.47277855E-05
   4.24919987         3.55191805E-05
   4.26119995         3.61995226E-05
   4.27320004         3.67504399E-05
   4.28520012         3.71599926E-05
   4.29720020         3.74231968E-05
   4.30919981         3.75421332E-05
   4.32119989         3.75257441E-05
   4.33319998         3.73892544E-05
   4.34520006         3.71533642E-05
   4.35720015         3.68431538E-05
   4.36920023         3.64868865E-05
   4.38119984         3.61146522E-05
   4.39319992         3.57570352E-05
   4.40520000         3.54438016E-05
   4.41720009         3.52026473E-05
   4.42920017         3.50581104E-05
   4.44119978         3.50306473E-05
   4.45319986         3.51359122E-05
   4.46519995         3.53842588E-05
   4.47720003         3.57804529E-05
   4.48920012         3.63236468E-05
   4.50120020         3.70075613E-05
   4.51319981         3.78208497E-05
   4.52519989         3.87477376E-05
   4.53719997         3.97687436E-05
   4.54920006         4.08615924E-05
   4.56120014         4.20022152E-05
   4.57320023         4.31658082E-05
   4.58519983         4.43279168E-05
   4.59719992         4.54654655E-05
   4.60920000         4.65577177E-05
   4.62120008         4.75870875E-05
   4.63320017         4.85397650E-05
   4.64519978         4.94061169E-05
   4.65719986         5.01808317E-05
   4.66919994         5.08628254E-05
   4.68120003         5.14548592E-05
   4.69320011         5.19630012E-05
   4.70520020         5.23958261E-05
   4.71719980         5.27635711E-05
   4.72919989         5.30772159E-05
   4.74119997         5.33475468E-05
   4.75320005         5.35843610E-05
   4.76520014         5.37957931E-05
   4.77720022         5.39878383E-05
   4.78919983         5.41640948E-05
   4.80119991         5.43257956E-05
   4.81320000         5.44720206E-05
   4.82520008         5.46001538E-05
   4.83720016         5.47064992E-05
   4.84919977         5.47870295E-05
   4.86119986         5.48381468E-05
   4.87319994         5.48574753E-05
   4.88520002         5.48445241E-05
   4.89720011         5.48012031E-05
   4.90920019         5.47321943E-05
   4.92119980         5.46450028E-05
   4.93319988         5.45498660E-05
   4.94519997         5.44593167E-05
   4.95720005         5.43875867E-05
   4.96920013         5.43498027E-05
   4.98120022         5.43610440E-05
   4.99319983         5.44353388E-05
   5.00519991         5.45846524E-05
   5.01719999         5.48179269E-05
   5.02920008         5.51403136E-05
   5.04120016         5.55525330E-05
   5.05319977         5.60505687E-05
   5.06519985         5.66255439E-05
   5.07719994         5.72640165E-05
   5.08920002         5.79484731E-05
   5.10120010         5.86581700E-05
   5.11320019         5.93702134E-05
   5.12519979         6.00608182E-05
   5.13719988         6.07066795E-05
   5.14919996         6.12864023E-05
   5.16120005         6.17819169E-05
   5.17320013         6.21796571E-05
   5.18520021         6.24716413E-05
   5.19719982         6.26561450E-05
   5.20919991         6.27380723E-05
   5.22119999         6.27288973E-05
   5.23320007         6.26461697E-05
   5.24520016         6.25126195E-05
   5.25719976         6.23549204E-05
   5.26919985         6.22020307E-05
   5.28119993         6.20834326E-05
   5.29320002         6.20271385E-05
   5.30520010         6.20577484E-05
   5.31720018         6.21946310E-05
   5.32919979         6.24502645E-05
   5.34119987         6.28290145E-05
   5.35319996         6.33262825E-05
   5.36520004         6.39281861E-05
   5.37720013         6.46117987E-05
   5.38920021         6.53458992E-05
   5.40119982         6.60923761E-05
   5.41319990         6.68079447E-05
   5.42519999         6.74464245E-05
   5.43720007         6.79611840E-05
   5.44920015         6.83077524E-05
   5.46120024         6.84464976E-05
   5.47319984         6.83450489E-05
   5.48519993         6.79804798E-05
   5.49720001         6.73409886E-05
   5.50920010         6.64271283E-05
   5.52120018         6.52522867E-05
   5.53319979         6.38425554E-05
   5.54519987         6.22358784E-05
   5.55719995         6.04805173E-05
   5.56920004         5.86329770E-05
   5.58120012         5.67554052E-05
   5.59320021         5.49126489E-05
   5.60519981         5.31691476E-05
   5.61719990         5.15857828E-05
   5.62919998         5.02169023E-05
   5.64120007         4.91076789E-05
   5.65320015         4.82919095E-05
   5.66520023         4.77903959E-05
   5.67719984         4.76100104E-05
   5.68919992         4.77434078E-05
   5.70120001         4.81695024E-05
   5.71320009         4.88545193E-05
   5.72520018         4.97536821E-05
   5.73719978         5.08133126E-05
   5.74919987         5.19733585E-05
   5.76119995         5.31700280E-05
   5.77320004         5.43385795E-05
   5.78520012         5.54159778E-05
   5.79720020         5.63434151E-05
   5.80919981         5.70685297E-05
   5.82119989         5.75472404E-05
   5.83319998         5.77452010E-05
   5.84520006         5.76387865E-05
   5.85720015         5.72156350E-05
   5.86920023         5.64747861E-05
   5.88119984         5.54263715E-05
   5.89319992         5.40910041E-05
   5.90520000         5.24988136E-05
   5.91720009         5.06882498E-05
   5.92920017         4.87047073E-05
   5.94119978         4.65989615E-05
   5.95319986         4.44255420E-05
   5.96519995         4.22410558E-05
   5.97720003         4.01024554E-05
   5.98920012         3.80654019E-05
   6.00120020         3.61826496E-05
   6.01319981         3.45025510E-05
   6.02519989         3.30676958E-05
   6.03719997         3.19137362E-05
   6.04920006         3.10684190E-05
   6.06120014         3.05508256E-05
   6.07320023         3.03709257E-05
   6.08519983         3.05293433E-05
   6.09719992         3.10174655E-05
   6.10920000         3.18177845E-05
   6.12120008         3.29045542E-05
   6.13320017         3.42446547E-05
   6.14519978         3.57987083E-05
   6.15719986         3.75223608E-05
   6.16919994         3.93677037E-05
   6.18120003         4.12847767E-05
   6.19320011         4.32231209E-05
   6.20520020         4.51333071E-05
   6.21719980         4.69683946E-05
   6.22919989         4.86852659E-05
   6.24119997         5.02458097E-05
   6.25320005         5.16178734E-05
   6.26520014         5.27760203E-05
   6.27720022         5.37019951E-05
   6.28919983         5.43849674E-05
   6.30119991         5.48214921E-05
   6.31320000         5.50152326E-05
   6.32520008         5.49764845E-05
   6.33720016         5.47214586E-05
   6.34919977         5.42714770E-05
   6.36119986         5.36519838E-05
   6.37319994         5.28915443E-05
   6.38520002         5.20207650E-05
   6.39720011         5.10712416E-05
   6.40920019         5.00745628E-05
   6.42119980         4.90613711E-05
   6.43319988         4.80605486E-05
   6.44519997         4.70985178E-05
   6.45720005         4.61986529E-05
   6.46920013         4.53808643E-05
   6.48120022         4.46612794E-05
   6.49319983         4.40520671E-05
   6.50519991         4.35613583E-05
   6.51719999         4.31932822E-05
   6.52920008         4.29480679E-05
   6.54120016         4.28222265E-05
   6.55319977         4.28088024E-05
   6.56519985         4.28976782E-05
   6.57719994         4.30759101E-05
   6.58920002         4.33281166E-05
   6.60120010         4.36369010E-05
   6.61320019         4.39832838E-05
   6.62519979         4.43471690E-05
   6.63719988         4.47078310E-05
   6.64919996         4.50443658E-05
   6.66120005         4.53361899E-05
   6.67320013         4.55634690E-05
   6.68520021         4.57075876E-05
   6.69719982         4.57515343E-05
   6.70919991         4.56802991E-05
   6.72119999         4.54812034E-05
   6.73320007         4.51442138E-05
   6.74520016         4.46621962E-05
   6.75719976         4.40311705E-05
   6.76919985         4.32504894E-05
   6.78119993         4.23229976E-05
   6.79320002         4.12551490E-05
   6.80520010         4.00571225E-05
   6.81720018         3.87428117E-05
   6.82919979         3.73298390E-05
   6.84119987         3.58394682E-05
   6.85319996         3.42964304E-05
   6.86520004         3.27286907E-05
   6.87720013         3.11671065E-05
   6.88920021         2.96449798E-05
   6.90119982         2.81974844E-05
   6.91319990         2.68610111E-05
   6.92519999         2.56723924E-05
   6.93720007         2.46680283E-05
   6.94920015         2.38829507E-05
   6.96120024         2.33498304E-05
   6.97319984         2.30979404E-05
   6.98519993         2.31521499E-05
   6.99720001         2.35319421E-05
   7.00920010         2.42505103E-05
   7.02120018         2.53139478E-05
   7.03319979         2.67206069E-05
   7.04519987         2.84605940E-05
   7.05719995         3.05154881E-05
   7.06920004         3.28582646E-05
   7.08120012         3.54534714E-05
   7.09320021         3.82576618E-05
   7.10519981         4.12200498E-05
   7.11719990         4.42834789E-05
   7.12919998         4.73856016E-05
   7.14120007         5.04603049E-05
   7.15320015         5.34393184E-05
   7.16520023         5.62540481E-05
   7.17719984         5.88374678E-05
   7.18919992         6.11261057E-05
   7.20120001         6.30620489E-05
   7.21320009         6.45948821E-05
   7.22520018         6.56834964E-05
   7.23719978         6.62977036E-05
   7.24919987         6.64195613E-05
   7.26119995         6.60443984E-05
   7.27320004         6.51813752E-05
   7.28520012         6.38536949E-05
   7.29720020         6.20982682E-05
   7.30919981         5.99649102E-05
   7.32119989         5.75150734E-05
   7.33319998         5.48201097E-05
   7.34520006         5.19591631E-05
   7.35720015         4.90167040E-05
   7.36920023         4.60798328E-05
   7.38119984         4.32354682E-05
   7.39319992         4.05674655E-05
   7.40520000         3.81538339E-05
   7.41720009         3.60641970E-05
   7.42920017         3.43574902E-05
   7.44119978         3.30800794E-05
   7.45319986         3.22643791E-05
   7.46519995         3.19279534E-05
   7.47720003         3.20732070E-05
   7.48920012         3.26875997E-05
   7.50120020         3.37444435E-05
   7.51319981         3.52041534E-05
   7.52519989         3.70159541E-05
   7.53719997         3.91199319E-05
   7.54920006         4.14493225E-05
   7.56120014         4.39330033E-05
   7.57320023         4.64979785E-05
   7.58519983         4.90718849E-05
   7.59719992         5.15853026E-05
   7.60920000         5.39738976E-05
   7.62120008         5.61802590E-05
   7.63320017         5.81553868E-05
   7.64519978         5.98598454E-05
   7.65719986         6.12644726E-05
   7.66919994         6.23507294E-05
   7.68120003         6.31106086E-05
   7.69320011         6.35462493E-05
   7.70520020         6.36691620E-05
   7.71719980         6.34992175E-05
   7.72919989         6.30633949E-05
   7.74119997         6.23943852E-05
   7.75320005         6.15290774E-05
   7.76520014         6.05070491E-05
   7.77720022         5.93690675E-05
   7.78919983         5.81556706E-05
   7.80119991         5.69059048E-05
   7.81320000         5.56562263E-05
   7.82520008         5.44395662E-05
   7.83720016         5.32846461E-05
   7.84919977         5.22154805E-05
   7.86119986         5.12510669E-05
   7.87319994         5.04052987E-05
   7.88520002         4.96870089E-05
   7.89720011         4.91001556E-05
   7.90920019         4.86441495E-05
   7.92119980         4.83142103E-05
   7.93319988         4.81018214E-05
   7.94519997         4.79952359E-05
   7.95720005         4.79799710E-05
   7.96920013         4.80393719E-05
   7.98120022         4.81551724E-05
   7.99319983         4.83081130E-05
   8.00520039         4.84785523E-05
   8.01720047         4.86471508E-05
   8.02919960         4.87955622E-05
   8.04119968         4.89071281E-05
   8.05319977         4.89675840E-05
   8.06519985         4.89657214E-05
   8.07719994         4.88939622E-05
   8.08920002         4.87488578E-05
   8.10120010         4.85313758E-05
   8.11320019         4.82470714E-05
   8.12520027         4.79059709E-05
   8.13720036         4.75222696E-05
   8.14920044         4.71137464E-05
   8.16119957         4.67009777E-05
   8.17319965         4.63063516E-05
   8.18519974         4.59528819E-05
   8.19719982         4.56629750E-05
   8.20919991         4.54571200E-05
   8.22119999         4.53526409E-05
   8.23320007         4.53625798E-05
   8.24520016         4.54947476E-05
   8.25720024         4.57510650E-05
   8.26920033         4.61271848E-05
   8.28120041         4.66124366E-05
   8.29319954         4.71901621E-05
   8.30519962         4.78383154E-05
   8.31719971         4.85303972E-05
   8.32919979         4.92366416E-05
   8.34119987         4.99253729E-05
   8.35319996         5.05644566E-05
   8.36520004         5.11228463E-05
   8.37720013         5.15720312E-05
   8.38920021         5.18874076E-05
   8.40120029         5.20494468E-05
   8.41320038         5.20446520E-05
   8.42520046         5.18662091E-05
   8.43719959         5.15143765E-05
   8.44919968         5.09965066E-05
   8.46119976         5.03268093E-05
   8.47319984         4.95257918E-05
   8.48519993         4.86194513E-05
   8.49720001         4.76382411E-05
   8.50920010         4.66158854E-05
   8.52120018         4.55880254E-05
   8.53320026         4.45908554E-05
   8.54520035         4.36597111E-05
   8.55720043         4.28277272E-05
   8.56919956         4.21245677E-05
   8.58119965         4.15753420E-05
   8.59319973         4.11996662E-05
   8.60519981         4.10109787E-05
   8.61719990         4.10160792E-05
   8.62919998         4.12149566E-05
   8.64120007         4.16008334E-05
   8.65320015         4.21605182E-05
   8.66520023         4.28749627E-05
   8.67720032         4.37200433E-05
   8.68920040         4.46675331E-05
   8.70119953         4.56861926E-05
   8.71319962         4.67429891E-05
   8.72519970         4.78043112E-05
   8.73719978         4.88372025E-05
   8.74919987         4.98105401E-05
   8.76119995         5.06961042E-05
   8.77320004         5.14694621E-05
   8.78520012         5.21107540E-05
   8.79720020         5.26051954E-05
   8.80920029         5.29434183E-05
   8.82120037         5.31215555E-05
   8.83320045         5.31411424E-05
   8.84519958         5.30088073E-05
   8.85719967         5.27357843E-05
   8.86919975         5.23372983E-05
   8.88119984         5.18318193E-05
   8.89319992         5.12402512E-05
   8.90520000         5.05850985E-05
   8.91720009         4.98895934E-05
   8.92920017         4.91769097E-05
   8.94120026         4.84693919E-05
   8.95320034         4.77878893E-05
   8.96520042         4.71511958E-05
   8.97719955         4.65756020E-05
   8.98919964         4.60745287E-05
   9.00119972         4.56583475E-05
   9.01319981         4.53342327E-05
   9.02519989         4.51061860E-05
   9.03719997         4.49750987E-05
   9.04920006         4.49389299E-05
   9.06120014         4.49929321E-05
   9.07320023         4.51299275E-05
   9.08520031         4.53406428E-05