 -0.622799993       0.00000000    
 -0.610800028       0.00000000    
 -0.598800004       0.00000000    
 -0.586799979       2.24932776E-16
 -0.574800014       9.57592029E-16
 -0.562799990       1.29197300E-15
 -0.550800025      -2.91206285E-15
 -0.538800001      -2.01087045E-14
 -0.526799977      -6.06934614E-14
 -0.514800012      -1.29925801E-13
 -0.502799988      -2.18203683E-13
 -0.490799993      -2.94664602E-13
 -0.478799999      -3.12016445E-13
 -0.466800004      -2.28078705E-13
 -0.454800010      -4.22300914E-14
 -0.442799985       1.64858443E-13
 -0.430799991       2.07494341E-13
 -0.418799996      -1.93125572E-13
 -0.406800002      -1.35156133E-12
 -0.394800007      -3.52403219E-12
 -0.382800013      -6.80708614E-12
 -0.370799989      -1.10725517E-11
 -0.358799994      -1.59812372E-11
 -0.346799999      -2.10987009E-11
 -0.334800005      -2.61033122E-11
 -0.322800010      -3.10411696E-11
 -0.310799986      -3.65577534E-11
 -0.298799992      -4.40343005E-11
 -0.286799997      -5.55810467E-11
 -0.274800003      -7.38821018E-11
 -0.262800008      -1.01934738E-10
 -0.250800014      -1.42759221E-10
 -0.238800004      -1.99163269E-10
 -0.226799995      -2.73623291E-10
 -0.214800000      -3.68302139E-10
 -0.202800006      -4.85175733E-10
 -0.190799996      -6.26206198E-10
 -0.178800002      -7.93489496E-10
 -0.166800007      -9.89314963E-10
 -0.154799998      -1.21610200E-09
 -0.142800003      -1.47620050E-09
 -0.130799994      -1.77155468E-09
 -0.118799999      -2.10322426E-09
 -0.106799997      -2.47075649E-09
  -9.48000029E-02  -2.87140711E-09
  -8.28000009E-02  -3.29924021E-09
  -7.07999989E-02  -3.74421560E-09
  -5.88000007E-02  -4.19142987E-09
  -4.67999987E-02  -4.62076066E-09
  -3.48000005E-02  -5.00715869E-09
  -2.28000004E-02  -5.32178746E-09
  -1.08000003E-02  -5.53408652E-09
   1.20000006E-03  -5.61466784E-09
   1.31999999E-02  -5.53883961E-09
   2.52000000E-02  -5.29039568E-09
   3.72000001E-02  -4.86536100E-09
   4.91999984E-02  -4.27540137E-09
   6.12000003E-02  -3.55068885E-09
   7.32000023E-02  -2.74207834E-09
   8.51999968E-02  -1.92238159E-09
   9.71999988E-02  -1.18640264E-09
  0.109200001      -6.49144516E-10
  0.121200003      -4.41460452E-10
  0.133200005      -7.02343128E-10
  0.145199999      -1.56727509E-09
  0.157199994      -3.15252824E-09
  0.169200003      -5.53614976E-09
  0.181199998      -8.73714434E-09
  0.193200007      -1.26953692E-08
  0.205200002      -1.72551236E-08
  0.217199996      -2.21557368E-08
  0.229200006      -2.70320459E-08
  0.241200000      -3.14270636E-08
  0.253199995      -3.48178517E-08
  0.265199989      -3.66544128E-08
  0.277200013      -3.64099684E-08
  0.289200008      -3.36396369E-08
  0.301200002      -2.80434804E-08
  0.313199997      -1.95286418E-08
  0.325199991      -8.26466451E-09
  0.337199986       5.27464383E-09
  0.349200010       2.02896651E-08
  0.361200005       3.56603422E-08
  0.373199999       4.99842301E-08
  0.385199994       6.16510576E-08
  0.397199988       6.89551101E-08
  0.409200013       7.02430398E-08
  0.421200007       6.40904645E-08
  0.433200002       4.94964922E-08
  0.445199996       2.60809241E-08
  0.457199991      -5.73432501E-09
  0.469199985      -4.45796431E-08
  0.481200010      -8.80482105E-08
  0.493200004      -1.32680597E-07
  0.505200028      -1.74036515E-07
  0.517199993      -2.06860250E-07
  0.529200017      -2.25337800E-07
  0.541199982      -2.23433844E-07
  0.553200006      -1.95287399E-07
  0.565199971      -1.35634963E-07
  0.577199996      -4.02229041E-08
  0.589200020       9.38347213E-08
  0.601199985       2.67797191E-07
  0.613200009       4.81178631E-07
  0.625199974       7.31807006E-07
  0.637199998       1.01608157E-06
  0.649200022       1.32943774E-06
  0.661199987       1.66701079E-06
  0.673200011       2.02446654E-06
  0.685199976       2.39895371E-06
  0.697200000       2.79010919E-06
  0.709200025       3.20104073E-06
  0.721199989       3.63919571E-06
  0.733200014       4.11702786E-06
  0.745199978       4.65238145E-06
  0.757200003       5.26851818E-06
  0.769200027       5.99373743E-06
  0.781199992       6.86056774E-06
  0.793200016       7.90453396E-06
  0.805199981       9.16253703E-06
  0.817200005       1.06709194E-05
  0.829200029       1.24633116E-05
  0.841199994       1.45683834E-05
  0.853200018       1.70076364E-05
  0.865199983       1.97933841E-05
  0.877200007       2.29270499E-05
  0.889199972       2.63979146E-05
  0.901199996       3.01824311E-05
  0.913200021       3.42441490E-05
  0.925199986       3.85342973E-05
  0.937200010       4.29930478E-05
  0.949199975       4.75513771E-05
  0.961199999       5.21334587E-05
  0.973200023       5.66595299E-05
  0.985199988       6.10490315E-05
  0.997200012       6.52239032E-05
   1.00919998       6.91118403E-05
   1.02119994       7.26494618E-05
   1.03320003       7.57850576E-05
   1.04519999       7.84810254E-05
   1.05719995       8.07156248E-05
   1.06920004       8.24842282E-05
   1.08120000       8.37998377E-05
   1.09319997       8.46929106E-05
   1.10520005       8.52106023E-05
   1.11720002       8.54152458E-05
   1.12919998       8.53823512E-05
   1.14119995       8.51980585E-05
   1.15320003       8.49560820E-05
   1.16520000       8.47545089E-05
   1.17719996       8.46922703E-05
   1.18920004       8.48654963E-05
   1.20120001       8.53639867E-05
   1.21319997       8.62676752E-05
   1.22520006       8.76435370E-05
   1.23720002       8.95426710E-05
   1.24919999       9.19979066E-05
   1.26119995       9.50219764E-05
   1.27320004       9.86062441E-05
   1.28520000       1.02720114E-04
   1.29719996       1.07311207E-04
   1.30920005       1.12306174E-04
   1.32120001       1.17612297E-04
   1.33319998       1.23119738E-04
   1.34519994       1.28704545E-04
   1.35720003       1.34232003E-04
   1.36919999       1.39560652E-04
   1.38119996       1.44546430E-04
   1.39320004       1.49047133E-04
   1.40520000       1.52926776E-04
   1.41719997       1.56059818E-04
   1.42920005       1.58335068E-04
   1.44120002       1.59659219E-04
   1.45319998       1.59959643E-04
   1.46519995       1.59186617E-04
   1.47720003       1.57314760E-04
   1.48920000       1.54343637E-04
   1.50119996       1.50297521E-04
   1.51320004       1.45224461E-04
   1.52520001       1.39194482E-04
   1.53719997       1.32297209E-04
   1.54920006       1.24638900E-04
   1.56120002       1.16339135E-04
   1.57319999       1.07527085E-04
   1.58519995       9.83377831E-05
   1.59720004       8.89082876E-05
   1.60920000       7.93740182E-05
   1.62119997       6.98653748E-05
   1.63320005       6.05046844E-05
   1.64520001       5.14036037E-05
   1.65719998       4.26611041E-05
   1.66919994       3.43619722E-05
   1.68120003       2.65759827E-05
   1.69319999       1.93576143E-05
   1.70519996       1.27464127E-05
   1.71720004       6.76782565E-06
   1.72920001       1.43449074E-06
   1.74119997      -3.25209658E-06
   1.75320005      -7.29969952E-06
   1.76520002      -1.07233182E-05
   1.77719998      -1.35431710E-05
   1.78919995      -1.57827890E-05
   1.80120003      -1.74673351E-05
   1.81320000      -1.86222260E-05
   1.82519996      -1.92721527E-05
   1.83720005      -1.94405202E-05
   1.84920001      -1.91493546E-05
   1.86119998      -1.84196069E-05
   1.87320006      -1.72718574E-05
   1.88520002      -1.57272843E-05
   1.89719999      -1.38088044E-05
   1.90919995      -1.15422827E-05
   1.92120004      -8.95764606E-06
   1.93320000      -6.08981463E-06
   1.94519997      -2.97932343E-06
   1.95720005       3.27440944E-07
   1.96920002       3.77845026E-06
   1.98119998       7.31671207E-06
   1.99319994       1.08813956E-05
   2.00519991       1.44093819E-05
   2.01719999       1.78371447E-05
   2.02920008       2.11028400E-05
   2.04119992       2.41484995E-05
   2.05320001       2.69221619E-05
   2.06520009       2.93798130E-05
   2.07719994       3.14870085E-05
   2.08920002       3.32200689E-05
   2.10120010       3.45668013E-05
   2.11319995       3.55266748E-05
   2.12520003       3.61105231E-05
   2.13720012       3.63397485E-05
   2.14919996       3.62451137E-05
   2.16120005       3.58652578E-05
   2.17319989       3.52449570E-05
   2.18519998       3.44332511E-05
   2.19720006       3.34815595E-05
   2.20919991       3.24418797E-05
   2.22119999       3.13650853E-05
   2.23320007       3.02994868E-05
   2.24519992       2.92895947E-05
   2.25720000       2.83752033E-05
   2.26920009       2.75906823E-05
   2.28119993       2.69645388E-05
   2.29320002       2.65191466E-05
   2.30520010       2.62706071E-05
   2.31719995       2.62287122E-05
   2.32920003       2.63969469E-05
   2.34120011       2.67725354E-05
   2.35319996       2.73465012E-05
   2.36520004       2.81038047E-05
   2.37719989       2.90235439E-05
   2.38919997       3.00792890E-05
   2.40120006       3.12395678E-05
   2.41319990       3.24685097E-05
   2.42519999       3.37267302E-05
   2.43720007       3.49723778E-05
   2.44919991       3.61624334E-05
   2.46120000       3.72541799E-05
   2.47320008       3.82068356E-05
   2.48519993       3.89832858E-05
   2.49720001       3.95518618E-05
   2.50920010       3.98880693E-05
   2.52119994       3.99761047E-05
   2.53320003       3.98101438E-05
   2.54520011       3.93951850E-05
   2.55719995       3.87474538E-05
   2.56920004       3.78942204E-05
   2.58119988       3.68729961E-05
   2.59319997       3.57301906E-05
   2.60520005       3.45191875E-05
   2.61719990       3.32979871E-05
   2.62919998       3.21264852E-05
   2.64120007       3.10635769E-05
   2.65319991       3.01642158E-05
   2.66520000       2.94765759E-05
   2.67720008       2.90395565E-05
   2.68919992       2.88806950E-05
   2.70120001       2.90146891E-05
   2.71320009       2.94426045E-05
   2.72519994       3.01517994E-05
   2.73720002       3.11166441E-05
   2.74920011       3.22999258E-05
   2.76119995       3.36548947E-05
   2.77320004       3.51278104E-05
   2.78520012       3.66608328E-05
   2.79719996       3.81950522E-05
   2.80920005       3.96735195E-05
   2.82119989       4.10440443E-05
   2.83319998       4.22615813E-05
   2.84520006       4.32901143E-05
   2.85719991       4.41039410E-05
   2.86919999       4.46881786E-05
   2.88120008       4.50386615E-05
   2.89319992       4.51611340E-05
   2.90520000       4.50698899E-05
   2.91720009       4.47859566E-05
   2.92919993       4.43350291E-05
   2.94120002       4.37452582E-05
   2.95320010       4.30450818E-05
   2.96519995       4.22613120E-05
   2.97720003       4.14174974E-05
   2.98920012       4.05327846E-05
   3.00119996       3.96211908E-05
   3.01320004       3.86914508E-05
   3.02519989       3.77473443E-05
   3.03719997       3.67884495E-05
   3.04920006       3.58112920E-05
   3.06119990       3.48106951E-05
   3.07319999       3.37812962E-05
   3.08520007       3.27190537E-05
   3.09719992       3.16225742E-05
   3.10920000       3.04942496E-05
   3.12120008       2.93410139E-05
   3.13319993       2.81747361E-05
   3.14520001       2.70121982E-05
   3.15720010       2.58746841E-05
   3.16919994       2.47872140E-05
   3.18120003       2.37775221E-05
   3.19320011       2.28748049E-05
   3.20519996       2.21083465E-05
   3.21720004       2.15061154E-05
   3.22919989       2.10934049E-05
   3.24119997       2.08915662E-05
   3.25320005       2.09169521E-05
   3.26519990       2.11800652E-05
   3.27719998       2.16849930E-05
   3.28920007       2.24291252E-05
   3.30119991       2.34031468E-05
   3.31320000       2.45912943E-05
   3.32520008       2.59718290E-05
   3.33719993       2.75176917E-05
   3.34920001       2.91972865E-05
   3.36120009       3.09753450E-05
   3.37319994       3.28138485E-05
   3.38520002       3.46729466E-05
   3.39720011       3.65119049E-05
   3.40919995       3.82900180E-05
   3.42120004       3.99675082E-05
   3.43319988       4.15064169E-05
   3.44519997       4.28714084E-05
   3.45720005       4.40305812E-05
   3.46919990       4.49561630E-05
   3.48119998       4.56251946E-05
   3.49320006       4.60200863E-05
   3.50519991       4.61291456E-05
   3.51719999       4.59469811E-05
   3.52920008       4.54747969E-05
   3.54119992       4.47206257E-05
   3.55320001       4.36993869E-05
   3.56520009       4.24328246E-05
   3.57719994       4.09492568E-05
   3.58920002       3.92831644E-05
   3.60120010       3.74745650E-05
   3.61319995       3.55682168E-05
   3.62520003       3.36125850E-05
   3.63720012       3.16586702E-05
   3.64919996       2.97586539E-05
   3.66120005       2.79644191E-05
   3.67319989       2.63259972E-05
   3.68519998       2.48899942E-05
   3.69720006       2.36980341E-05
   3.70919991       2.27852815E-05
   3.72119999       2.21791452E-05
   3.73320007       2.18981622E-05
   3.74519992       2.19511676E-05
   3.75720000       2.23367715E-05
   3.76920009       2.30431524E-05
   3.78119993       2.40482368E-05
   3.79320002       2.53202325E-05
   3.80520010       2.68184995E-05
   3.81719995       2.84947964E-05
   3.82920003       3.02947738E-05
   3.84120011       3.21597472E-05
   3.85319996       3.40286642E-05
   3.86520004       3.58401812E-05
   3.87719989       3.75347809E-05
   3.88919997       3.90568566E-05
   3.90120006       4.03567246E-05
   3.91319990       4.13923663E-05
   3.92519999       4.21310106E-05
   3.93720007       4.25502840E-05
   3.94919991       4.26391489E-05
   3.96120000       4.23983111E-05
   3.97320008       4.18402924E-05
   3.98519993       4.09890454E-05
   3.99720001       3.98791781E-05
   4.00920010       3.85547210E-05
   4.02120018       3.70675734E-05
   4.03319979       3.54755866E-05
   4.04519987       3.38403952E-05
   4.05719995       3.22250598E-05
   4.06920004       3.06915899E-05
   4.08120012       2.92984932E-05
   4.09320021       2.80983968E-05
   4.10519981       2.71359077E-05
   4.11719990       2.64457449E-05
   4.12919998       2.60513061E-05
   4.14120007       2.59636981E-05
   4.15320015       2.61812929E-05
   4.16520023       2.66899078E-05
   4.17719984       2.74635277E-05
   4.18919992       2.84656380E-05
   4.20120001       2.96510552E-05
   4.21320009       3.09682146E-05
   4.22520018       3.23617678E-05
   4.23719978       3.37753954E-05
   4.24919987       3.51546441E-05
   4.26119995       3.64496336E-05
   4.27320004       3.76175049E-05
   4.28520012       3.86244465E-05
   4.29720020       3.94472008E-05
   4.30919981       4.00739518E-05
   4.32119989       4.05045466E-05
   4.33319998       4.07500847E-05
   4.34520006       4.08318665E-05
   4.35720015       4.07797997E-05
   4.36920023       4.06303188E-05
   4.38119984       4.04240127E-05
   4.39319992       4.02030164E-05
   4.40520000       4.00084355E-05
   4.41720009       3.98778211E-05
   4.42920017       3.98429693E-05
   4.44119978       3.99281198E-05
   4.45319986       4.01486686E-05
   4.46519995       4.05104329E-05
   4.47720003       4.10095563E-05
   4.48920012       4.16329967E-05
   4.50120020       4.23595484E-05
   4.51319981       4.31613553E-05
   4.52519989       4.40057411E-05
   4.53719997       4.48572573E-05
   4.54920006       4.56798662E-05
   4.56120014       4.64390250E-05
   4.57320023       4.71036619E-05
   4.58519983       4.76478344E-05
   4.59719992       4.80520866E-05
   4.60920000       4.83043805E-05
   4.62120008       4.84005614E-05
   4.63320017       4.83444201E-05
   4.64519978       4.81472889E-05
   4.65719986       4.78272777E-05
   4.66919994       4.74081498E-05
   4.68120003       4.69180195E-05
   4.69320011       4.63878059E-05
   4.70520020       4.58497198E-05
   4.71719980       4.53356770E-05
   4.72919989       4.48758947E-05
   4.74119997       4.44976031E-05
   4.75320005       4.42239725E-05
   4.76520014       4.40733165E-05
   4.77720022       4.40585245E-05
   4.78919983       4.41867523E-05
   4.80119991       4.44594370E-05
   4.81320000       4.48724459E-05
   4.82520008       4.54165420E-05
   4.83720016       4.60779484E-05
   4.84919977       4.68390717E-05
   4.86119986       4.76793321E-05
   4.87319994       4.85760393E-05
   4.88520002       4.95053027E-05
   4.89720011       5.04429045E-05
   4.90920019       5.13650994E-05
   4.92119980       5.22493865E-05
   4.93319988       5.30751058E-05
   4.94519997       5.38239728E-05
   4.95720005       5.44804643E-05
   4.96920013       5.50320437E-05
   4.98120022       5.54692888E-05
   4.99319983       5.57858766E-05
   5.00519991       5.59784894E-05
   5.01719999       5.60466397E-05
   5.02920008       5.59923901E-05
   5.04120016       5.58200954E-05
   5.05319977       5.55361112E-05
   5.06519985       5.51485573E-05
   5.07719994       5.46670308E-05
   5.08920002       5.41024674E-05
   5.10120010       5.34669780E-05
   5.11320019       5.27737830E-05
   5.12519979       5.20371723E-05
   5.13719988       5.12724619E-05
   5.14919996       5.04959935E-05
   5.16120005       4.97250512E-05
   5.17320013       4.89777667E-05
   5.18520021       4.82728756E-05
   5.19719982       4.76294153E-05
   5.20919991       4.70662599E-05
   5.22119999       4.66015917E-05
   5.23320007       4.62521893E-05
   5.24520016       4.60327210E-05
   5.25719976       4.59549519E-05
   5.26919985       4.60269548E-05
   5.28119993       4.62523749E-05
   5.29320002       4.66298334E-05
   5.30520010       4.71524290E-05
   5.31720018       4.78075308E-05
   5.32919979       4.85767341E-05
   5.34119987       4.94361484E-05
   5.35319996       5.03569790E-05
   5.36520004       5.13063642E-05
   5.37720013       5.22484843E-05
   5.38920021       5.31458863E-05
   5.40119982       5.39609355E-05
   5.41319990       5.46573865E-05
   5.42519999       5.52018610E-05
   5.43720007       5.55653569E-05
   5.44920015       5.57244675E-05
   5.46120024       5.56624509E-05
   5.47319984       5.53700047E-05
   5.48519993       5.48456810E-05
   5.49720001       5.40960427E-05
   5.50920010       5.31354053E-05
   5.52120018       5.19852911E-05
   5.53319979       5.06735560E-05
   5.54519987       4.92332947E-05
   5.55719995       4.77015419E-05
   5.56920004       4.61178206E-05
   5.58120012       4.45226760E-05
   5.59320021       4.29561878E-05
   5.60519981       4.14566421E-05
   5.61719990       4.00593053E-05
   5.62919998       3.87954351E-05
   5.64120007       3.76915232E-05
   5.65320015       3.67688044E-05
   5.66520023       3.60429585E-05
   5.67719984       3.55241173E-05
   5.68919992       3.52170027E-05
   5.70120001       3.51212511E-05
   5.71320009       3.52318311E-05
   5.72520018       3.55395387E-05
   5.73719978       3.60315280E-05
   5.74919987       3.66918212E-05
   5.76119995       3.75017989E-05
   5.77320004       3.84406303E-05
   5.78520012       3.94856579E-05
   5.79720020       4.06127292E-05
   5.80919981       4.17964911E-05
   5.82119989       4.30106156E-05
   5.83319998       4.42280798E-05
   5.84520006       4.54213805E-05
   5.85720015       4.65628837E-05
   5.86920023       4.76251771E-05
   5.88119984       4.85815071E-05
   5.89319992       4.94063606E-05
   5.90520000       5.00760470E-05
   5.91720009       5.05693934E-05
   5.92920017       5.08683843E-05
   5.94119978       5.09588026E-05
   5.95319986       5.08307385E-05
   5.96519995       5.04789750E-05
   5.97720003       4.99031812E-05
   5.98920012       4.91078790E-05
   6.00120020       4.81022580E-05
   6.01319981       4.68997678E-05
   6.02519989       4.55175650E-05
   6.03719997       4.39758223E-05
   6.04920006       4.22969679E-05
   6.06120014       4.05048995E-05
   6.07320023       3.86241409E-05
   6.08519983       3.66791064E-05
   6.09719992       3.46934139E-05
   6.10920000       3.26893314E-05
   6.12120008       3.06873699E-05
   6.13320017       2.87060957E-05
   6.14519978       2.67620762E-05
   6.15719986       2.48700089E-05
   6.16919994       2.30429814E-05
   6.18120003       2.12928080E-05
   6.19320011       1.96304081E-05
   6.20520020       1.80661609E-05
   6.21719980       1.66102036E-05
   6.22919989       1.52726498E-05
   6.24119997       1.40636957E-05
   6.25320005       1.29936470E-05
   6.26520014       1.20728337E-05
   6.27720022       1.13114365E-05
   6.28919983       1.07192554E-05
   6.30119991       1.03054017E-05
   6.31320000       1.00779489E-05
   6.32520008       1.00435727E-05
   6.33720016       1.02071890E-05
   6.34919977       1.05716172E-05
   6.36119986       1.11373438E-05
   6.37319994       1.19023271E-05
   6.38520002       1.28619286E-05
   6.39720011       1.40089178E-05
   6.40920019       1.53335350E-05
   6.42119980       1.68236147E-05
   6.43319988       1.84647160E-05
   6.44519997       2.02402207E-05
   6.45720005       2.21314549E-05
   6.46920013       2.41177895E-05
   6.48120022       2.61767273E-05
   6.49319983       2.82840465E-05
   6.50519991       3.04140085E-05
   6.51719999       3.25396250E-05
   6.52920008       3.46330417E-05
   6.54120016       3.66659733E-05
   6.55319977       3.86102620E-05
   6.56519985       4.04384700E-05
   6.57719994       4.21245350E-05
   6.58920002       4.36444680E-05
   6.60120010       4.49770487E-05
   6.61320019       4.61045238E-05
   6.62519979       4.70132472E-05
   6.63719988       4.76942478E-05
   6.64919996       4.81436837E-05
   6.66120005       4.83630683E-05
   6.67320013       4.83593467E-05
   6.68520021       4.81447205E-05
   6.69719982       4.77361646E-05
   6.70919991       4.71547792E-05
   6.72119999       4.64248624E-05
   6.73320007       4.55728841E-05
   6.74520016       4.46263257E-05
   6.75719976       4.36124828E-05
   6.76919985       4.25573417E-05
   6.78119993       4.14845708E-05
   6.79320002       4.04146958E-05
   6.80520010       3.93644732E-05
   6.81720018       3.83465776E-05
   6.82919979       3.73695402E-05
   6.84119987       3.64379739E-05
   6.85319996       3.55530865E-05
   6.86520004       3.47133791E-05
   6.87720013       3.39155558E-05
   6.88920021       3.31555202E-05
   6.90119982       3.24293796E-05
   6.91319990       3.17344420E-05
   6.92519999       3.10700489E-05
   6.93720007       3.04382120E-05
   6.94920015       2.98440173E-05
   6.96120024       2.92957375E-05
   6.97319984       2.88046558E-05
   6.98519993       2.83846402E-05
   6.99720001       2.80514469E-05
   7.00920010       2.78218649E-05
   7.02120018       2.77127365E-05
   7.03319979       2.77399067E-05
   7.04519987       2.79172309E-05
   7.05719995       2.82556084E-05
   7.06920004       2.87622042E-05
   7.08120012       2.94398069E-05
   7.09320021       3.02864028E-05
   7.10519981       3.12949742E-05
   7.11719990       3.24535176E-05
   7.12919998       3.37452948E-05
   7.14120007       3.51492235E-05
   7.15320015       3.66404965E-05
   7.16520023       3.81912832E-05
   7.17719984       3.97715448E-05
   7.18919992       4.13498565E-05
   7.20120001       4.28942803E-05
   7.21320009       4.43732097E-05
   7.22520018       4.57561364E-05
   7.23719978       4.70144223E-05
   7.24919987       4.81219577E-05
   7.26119995       4.90557904E-05
   7.27320004       4.97967012E-05
   7.28520012       5.03296760E-05
   7.29720020       5.06443575E-05
   7.30919981       5.07354052E-05
   7.32119989       5.06027136E-05
   7.33319998       5.02516305E-05
   7.34520006       4.96929642E-05
   7.35720015       4.89429513E-05
   7.36920023       4.80229755E-05
   7.38119984       4.69592596E-05
   7.39319992       4.57822935E-05
   7.40520000       4.45261940E-05
   7.41720009       4.32278757E-05
   7.42920017       4.19261269E-05
   7.44119978       4.06605614E-05
   7.45319986       3.94705166E-05
   7.46519995       3.83939150E-05
   7.47720003       3.74660885E-05
   7.48920012       3.67187095E-05
   7.50120020       3.61787424E-05
   7.51319981       3.58675643E-05
   7.52519989       3.58002144E-05
   7.53719997       3.59848345E-05
   7.54920006       3.64223270E-05
   7.56120014       3.71062342E-05
   7.57320023       3.80228521E-05
   7.58519983       3.91515568E-05
   7.59719992       4.04653802E-05
   7.60920000       4.19317366E-05
   7.62120008       4.35133225E-05
   7.63320017       4.51691740E-05
   7.64519978       4.68557810E-05
   7.65719986       4.85283272E-05
   7.66919994       5.01418799E-05
   7.68120003       5.16526597E-05
   7.69320011       5.30192483E-05
   7.70520020       5.42037596E-05
   7.71719980       5.51729063E-05
   7.72919989       5.58989086E-05
   7.74119997       5.63602807E-05
   7.75320005       5.65424416E-05
   7.76520014       5.64380498E-05
   7.77720022       5.60471744E-05
   7.78919983       5.53772297E-05
   7.80119991       5.44426657E-05
   7.81320000       5.32644808E-05
   7.82520008       5.18695451E-05
   7.83720016       5.02897492E-05
   7.84919977       4.85610399E-05
   7.86119986       4.67223763E-05
   7.87319994       4.48145838E-05
   7.88520002       4.28792373E-05
   7.89720011       4.09575550E-05
   7.90920019       3.90893001E-05
   7.92119980       3.73119074E-05
   7.93319988       3.56596138E-05
   7.94519997       3.41628293E-05
   7.95720005       3.28476781E-05
   7.96920013       3.17356498E-05
   7.98120022       3.08435083E-05
   7.99319983       3.01832551E-05
   8.00520039       2.97622300E-05
   8.01720047       2.95832979E-05
   8.02919960       2.96450726E-05
   8.04119968       2.99421481E-05
   8.05319977       3.04653495E-05
   8.06519985       3.12019547E-05
   8.07719994       3.21359039E-05
   8.08920002       3.32480340E-05
   8.10120010       3.45162880E-05
   8.11320019       3.59160003E-05
   8.12520027       3.74201991E-05
   8.13720036       3.90000387E-05
   8.14920044       4.06252657E-05
   8.16119957       4.22648081E-05
   8.17319965       4.38874558E-05
   8.18519974       4.54626206E-05
   8.19719982       4.69610895E-05
   8.20919991       4.83559124E-05
   8.22119999       4.96231733E-05
   8.23320007       5.07427321E-05
   8.24520016       5.16989166E-05
   8.25720024       5.24809839E-05
   8.26920033       5.30834150E-05
   8.28120041       5.35059735E-05
   8.29319954       5.37535088E-05
   8.30519962       5.38355089E-05
   8.31719971       5.37653832E-05
   8.32919979       5.35596118E-05
   8.34119987       5.32367339E-05
   8.35319996       5.28162673E-05
   8.36520004       5.23176932E-05
   8.37720013       5.17595072E-05
   8.38920021       5.11584476E-05
   8.40120029       5.05288699E-05
   8.41320038       4.98824229E-05
   8.42520046       4.92279287E-05
   8.43719959       4.85714954E-05
   8.44919968       4.79168884E-05
   8.46119976       4.72660722E-05
   8.47319984       4.66198726E-05
   8.48519993       4.59787989E-05
   8.49720001       4.53437970E-05
   8.50920010       4.47169623E-05
   8.52120018       4.41021839E-05
   8.53320026       4.35054972E-05
   8.54520035       4.29352622E-05
   8.55720043       4.24020873E-05
   8.56919956       4.19184726E-05
   8.58119965       4.14982460E-05
   8.59319973       4.11558030E-05
   8.60519981       4.09052191E-05
   8.61719990       4.07592597E-05
   8.62919998       4.07284024E-05
   8.64120007       4.08198721E-05
   8.65320015       4.10367829E-05
   8.66520023       4.13774724E-05
   8.67720032       4.18349991E-05
   8.68920040       4.23969141E-05
   8.70119953       4.30453074E-05
   8.71319962       4.37571653E-05
   8.72519970       4.45049736E-05
   8.73719978       4.52576205E-05
   8.74919987       4.59814546E-05
   8.76119995       4.66415877E-05
   8.77320004       4.72032043E-05
   8.78520012       4.76329988E-05
   8.79720020       4.79005721E-05
   8.80920029       4.79797563E-05
   8.82120037       4.78498805E-05
   8.83320045       4.74968147E-05
   8.84519958       4.69138176E-05
   8.85719967       4.61021446E-05
   8.86919975       4.50713378E-05
   8.88119984       4.38391871E-05
   8.89319992       4.24313948E-05
   8.90520000       4.08808883E-05
   8.91720009       3.92268594E-05
   8.92920017       3.75135314E-05
   8.94120026       3.57887511E-05
   8.95320034       3.41024024E-05
   8.96520042       3.25047295E-05
   8.97719955       3.10446449E-05
   8.98919964       2.97680199E-05
   9.00119972       2.87161129E-05
   9.01319981       2.79240849E-05
   9.02519989       2.74197719E-05
   9.03719997       2.72226989E-05
   9.04920006       2.73433925E-05
   9.06120014       2.77830350E-05
   9.07320023       2.85334372E-05
   9.08520031       2.95773552E-05
   9.09720039       3.08891067E-05
   9.10919952       3.24354442E-05
   9.12119961       3.41766499E-05
   9.13319969       3.60678387E-05
   9.14519978       3.80603633E-05
   9.15719986       4.01033176E-05
   9.16919994       4.21450823E-05
   9.18120003       4.41348566E-05
   9.19320011       4.60240954E-05
   9.20520020       4.77678514E-05
   9.21720028       4.93259431E-05
   9.22920036       5.06639153E-05
   9.24120045       5.17537446E-05
   9.25319958       5.25743344E-05
   9.26519966       5.31117585E-05
   9.27719975       5.33592720E-05
   9.28919983       5.33171296E-05
   9.30119991       5.29922036E-05
   9.31320000       5.23974850E-05
   9.32520008       5.15514294E-05
   9.33720016       5.04772142E-05
   9.34920025       4.92019935E-05
   9.36120033       4.77560570E-05
   9.37320042       4.61720338E-05
   9.38519955       4.44841098E-05
   9.39719963       4.27273189E-05
   9.40919971       4.09368913E-05
   9.42119980       3.91476424E-05
   9.43319988       3.73934854E-05
   9.44519997       3.57069512E-05
