 -0.622799993         1.00000002E-24
 -0.610800028         1.00000002E-24
 -0.598800004         1.00000002E-24
 -0.586799979         1.00000002E-24
 -0.574800014         1.00000002E-24
 -0.562799990         2.62088023E-23
 -0.550800025         1.99545988E-22
 -0.538800001         7.56251794E-22
 -0.526799977         1.67452779E-21
 -0.514800012         1.54541754E-21
 -0.502799988        -4.24899457E-21
 -0.490799993        -2.50638181E-20
 -0.478799999        -7.45221425E-20
 -0.466800004        -1.66845690E-19
 -0.454800010        -3.10960586E-19
 -0.442799985        -5.06166965E-19
 -0.430799991        -7.44141864E-19
 -0.418799996        -1.01894765E-18
 -0.406800002        -1.34006527E-18
 -0.394800007        -1.73795444E-18
 -0.382800013        -2.25423509E-18
 -0.370799989        -2.92298911E-18
 -0.358799994        -3.77005845E-18
 -0.346799999        -4.86658851E-18
 -0.334800005        -6.45114561E-18
 -0.322800010        -9.07446497E-18
 -0.310799986        -1.36454717E-17
 -0.298799992        -2.12226719E-17
 -0.286799997        -3.24675934E-17
 -0.274800003        -4.68858280E-17
 -0.262800008        -6.22679926E-17
 -0.250800014        -7.49452237E-17
 -0.238800004        -8.13745479E-17
 -0.226799995        -8.10192639E-17
 -0.214800000        -7.95543072E-17
 -0.202800006        -9.04850953E-17
 -0.190799996        -1.32943489E-16
 -0.178800002        -2.24331885E-16
 -0.166800007        -3.68826944E-16
 -0.154799998        -5.45957098E-16
 -0.142800003        -7.06104347E-16
 -0.130799994        -7.79947355E-16
 -0.118799999        -7.05068002E-16
 -0.106799997        -4.65146449E-16
  -9.48000029E-02    -1.27585052E-16
  -8.28000009E-02     1.41665083E-16
  -7.07999989E-02     1.06734708E-16
  -5.88000007E-02    -4.57133729E-16
  -4.67999987E-02    -1.64346372E-15
  -3.48000005E-02    -3.29509665E-15
  -2.28000004E-02    -4.94454932E-15
  -1.08000003E-02    -5.87282544E-15
   1.20000006E-03    -5.31641542E-15
   1.31999999E-02    -2.79632003E-15
   2.52000000E-02     1.52515884E-15
   3.72000001E-02     6.60809408E-15
   4.91999984E-02     1.05770419E-14
   6.12000003E-02     1.11433613E-14
   7.32000023E-02     6.38682748E-15
   8.51999968E-02    -4.28530443E-15
   9.71999988E-02    -1.93283923E-14
  0.109200001        -3.47885681E-14
  0.121200003        -4.48835068E-14
  0.133200005        -4.35237377E-14
  0.145199999        -2.65239270E-14
  0.157199994         6.09873717E-15
  0.169200003         4.85764823E-14
  0.181199998         8.94212818E-14
  0.193200007         1.13540599E-13
  0.205200002         1.06342628E-13
  0.217199996         5.89912776E-14
  0.229200006        -2.66820325E-14
  0.241200000        -1.35408950E-13
  0.253199995        -2.39418863E-13
  0.265199989        -3.03801716E-13
  0.277200013        -2.95727337E-13
  0.289200008        -1.95523421E-13
  0.301200002        -6.50595377E-15
  0.313199997         2.39895262E-13
  0.325199991         4.86483521E-13
  0.337199986         6.61151038E-13
  0.349200010         6.94842133E-13
  0.361200005         5.42711763E-13
  0.373199999         2.02759914E-13
  0.385199994        -2.74175214E-13
  0.397199988        -7.87783521E-13
  0.409200013        -1.20662323E-12
  0.421200007        -1.39890183E-12
  0.433200002        -1.26904585E-12
  0.445199996        -7.90580546E-13
  0.457199991        -2.53636986E-14
  0.469199985         8.78407752E-13
  0.481200010         1.71205563E-12
  0.493200004         2.25239510E-12
  0.505200028         2.31794206E-12
  0.517199993         1.82143732E-12
  0.529200017         8.04251576E-13
  0.541199982        -5.58254994E-13
  0.553200006        -1.98446728E-12
  0.565199971        -3.14289718E-12
  0.577199996        -3.72501075E-12
  0.589200020        -3.51755972E-12
  0.601199985        -2.45724643E-12
  0.613200009        -6.54922080E-13
  0.625199974         1.61579051E-12
  0.637199998         3.96193842E-12
  0.649200022         5.93627491E-12
  0.661199987         7.11013236E-12
  0.673200011         7.14129407E-12
  0.685199976         5.82820988E-12
  0.697200000         3.14705401E-12
  0.709200025        -7.28146113E-13
  0.721199989        -5.42148357E-12
  0.733200014        -1.03689305E-11
  0.745199978        -1.48552837E-11
  0.757200003        -1.80816143E-11
  0.769200027        -1.92677697E-11
  0.781199992        -1.77857798E-11
  0.793200016        -1.33071575E-11
  0.805199981        -5.93429385E-12
  0.817200005         3.72041113E-12
  0.829200029         1.45389560E-11
  0.841199994         2.49986178E-11
  0.853200018         3.33530703E-11
  0.865199983         3.78462123E-11
  0.877200007         3.68894741E-11
  0.889199972         2.91315999E-11
  0.901199996         1.33763825E-11
  0.913200021        -1.16458405E-11
  0.925199986        -4.75818794E-11
  0.937200010        -9.67048733E-11
  0.949199975        -1.61945263E-10
  0.961199999        -2.46550613E-10
  0.973200023        -3.53277130E-10
  0.985199988        -4.83115714E-10
  0.997200012        -6.33662345E-10
   1.00919998        -7.97335364E-10
   1.02119994        -9.59691104E-10
   1.03320003        -1.09804810E-09
   1.04519999        -1.18052501E-09
   1.05719995        -1.16541687E-09
   1.06920004        -1.00061093E-09
   1.08120000        -6.22504048E-10
   1.09319997         4.63382527E-11
   1.10520005         1.10174891E-09
   1.11720002         2.66591949E-09
   1.12919998         4.90014607E-09
   1.14119995         8.02400368E-09
   1.15320003         1.23428876E-08
   1.16520000         1.82863769E-08
   1.17719996         2.64600839E-08
   1.18920004         3.77141696E-08
   1.20120001         5.32319042E-08
   1.21319997         7.46415978E-08
   1.22520006         1.04154807E-07
   1.23720002         1.44733235E-07
   1.24919999         2.00285015E-07
   1.26119995         2.75889619E-07
   1.27320004         3.78049151E-07
   1.28520000         5.14959311E-07
   1.29719996         6.96793791E-07
   1.30920005         9.35987600E-07
   1.32120001         1.24750807E-06
   1.33319998         1.64909227E-06
   1.34519994         2.16143258E-06
   1.35720003         2.80828613E-06
   1.36919999         3.61648267E-06
   1.38119996         4.61580976E-06
   1.39320004         5.83874635E-06
   1.40520000         7.32002991E-06
   1.41719997         9.09604205E-06
   1.42920005         1.12039970E-05
   1.44120002         1.36809513E-05
   1.45319998         1.65626152E-05
   1.46519995         1.98820253E-05
   1.47720003         2.36680808E-05
   1.48920000         2.79439955E-05
   1.50119996         3.27257476E-05
   1.51320004         3.80205274E-05
   1.52520001         4.38253446E-05
   1.53719997         5.01257819E-05
   1.54920006         5.68950163E-05
   1.56120002         6.40931685E-05
   1.57319999         7.16670984E-05
   1.58519995         7.95505548E-05
   1.59720004         8.76648919E-05
   1.60920000         9.59202662E-05
   1.62119997         1.04217354E-04
   1.63320005         1.12449474E-04
   1.64520001         1.20505218E-04
   1.65719998         1.28271407E-04
   1.66919994         1.35636277E-04
   1.68120003         1.42492747E-04
   1.69319999         1.48741907E-04
   1.70519996         1.54296140E-04
   1.71720004         1.59082148E-04
   1.72920001         1.63043602E-04
   1.74119997         1.66143014E-04
   1.75320005         1.68363418E-04
   1.76520002         1.69709019E-04
   1.77719998         1.70205254E-04
   1.78919995         1.69897990E-04
   1.80120003         1.68852115E-04
   1.81320000         1.67149221E-04
   1.82519996         1.64884899E-04
   1.83720005         1.62165306E-04
   1.84920001         1.59103554E-04
   1.86119998         1.55815796E-04
   1.87320006         1.52417313E-04
   1.88520002         1.49018699E-04
   1.89719999         1.45722413E-04
   1.90919995         1.42619712E-04
   1.92120004         1.39788142E-04
   1.93320000         1.37289913E-04
   1.94519997         1.35170718E-04
   1.95720005         1.33459529E-04
   1.96920002         1.32169094E-04
   1.98119998         1.31297100E-04
   1.99319994         1.30827946E-04
   2.00519991         1.30735090E-04
   2.01719999         1.30983564E-04
   2.02920008         1.31532957E-04
   2.04119992         1.32340036E-04
   2.05320001         1.33361653E-04
   2.06520009         1.34557034E-04
   2.07719994         1.35889888E-04
   2.08920002         1.37329887E-04
   2.10120010         1.38853706E-04
   2.11319995         1.40445336E-04
   2.12520003         1.42096018E-04
   2.13720012         1.43803467E-04
   2.14919996         1.45570884E-04
   2.16120005         1.47405401E-04
   2.17319989         1.49316489E-04
   2.18519998         1.51314278E-04
   2.19720006         1.53407804E-04
   2.20919991         1.55603688E-04
   2.22119999         1.57904811E-04
   2.23320007         1.60309704E-04
   2.24519992         1.62811979E-04
   2.25720000         1.65400445E-04
   2.26920009         1.68059632E-04
   2.28119993         1.70770581E-04
   2.29320002         1.73512075E-04
   2.30520010         1.76262009E-04
   2.31719995         1.78998933E-04
   2.32920003         1.81703595E-04
   2.34120011         1.84360339E-04
   2.35319996         1.86958423E-04
   2.36520004         1.89492857E-04
   2.37719989         1.91965053E-04
   2.38919997         1.94382956E-04
   2.40120006         1.96760811E-04
   2.41319990         1.99118469E-04
   2.42519999         2.01480245E-04
   2.43720007         2.03873497E-04
   2.44919991         2.06326935E-04
   2.46120000         2.08868776E-04
   2.47320008         2.11524573E-04
   2.48519993         2.14315383E-04
   2.49720001         2.17255714E-04
   2.50920010         2.20351882E-04
   2.52119994         2.23600378E-04
   2.53320003         2.26986784E-04
   2.54520011         2.30484846E-04
   2.55719995         2.34056090E-04
   2.56920004         2.37649743E-04
   2.58119988         2.41203175E-04
   2.59319997         2.44642637E-04
   2.60520005         2.47884309E-04
   2.61719990         2.50836019E-04
   2.62919998         2.53398815E-04
   2.64120007         2.55469116E-04
   2.65319991         2.56940926E-04
   2.66520000         2.57708249E-04
   2.67720008         2.57667562E-04
   2.68919992         2.56720377E-04
   2.70120001         2.54775892E-04
   2.71320009         2.51753343E-04
   2.72519994         2.47584627E-04
   2.73720002         2.42216556E-04
   2.74920011         2.35612984E-04
   2.76119995         2.27756813E-04
   2.77320004         2.18651607E-04
   2.78520012         2.08322992E-04
   2.79719996         1.96819470E-04
   2.80920005         1.84213146E-04
   2.82119989         1.70599626E-04
   2.83319998         1.56097609E-04
   2.84520006         1.40847857E-04
   2.85719991         1.25011458E-04
   2.86919999         1.08767650E-04
   2.88120008         9.23108310E-05
   2.89319992         7.58471724E-05
   2.90520000         5.95906386E-05
   2.91720009         4.37585586E-05
   2.92919993         2.85668575E-05
   2.94120002         1.42251019E-05
   2.95320010         9.31452519E-07
   2.96519995        -1.11322797E-05
   2.97720003        -2.18053228E-05
   2.98920012        -3.09522075E-05
   3.00119996        -3.84664199E-05
   3.01320004        -4.42733653E-05
   3.02519989        -4.83324111E-05
   3.03719997        -5.06380275E-05
   3.04920006        -5.12198931E-05
   3.06119990        -5.01420000E-05
   3.07319999        -4.75007437E-05
   3.08520007        -4.34220710E-05
   3.09719992        -3.80577767E-05
   3.10920000        -3.15811303E-05
   3.12120008        -2.41819253E-05
   3.13319993        -1.60611362E-05
   3.14520001        -7.42538668E-06
   3.15720010         1.51858467E-06
   3.16919994         1.05692943E-05
   3.18120003         1.95355315E-05
   3.19320011         2.82408655E-05
   3.20519996         3.65275228E-05
   3.21720004         4.42595228E-05
   3.22919989         5.13249579E-05
   3.24119997         5.76374805E-05
   3.25320005         6.31368894E-05
   3.26519990         6.77888820E-05
   3.27719998         7.15840288E-05
   3.28920007         7.45360594E-05
   3.30119991         7.66794765E-05
   3.31320000         7.80667469E-05
   3.32520008         7.87650570E-05
   3.33719993         7.88528341E-05
   3.34920001         7.84161675E-05
   3.36120009         7.75452718E-05
   3.37319994         7.63310018E-05
   3.38520002         7.48617240E-05
   3.39720011         7.32204280E-05
   3.40919995         7.14823473E-05
   3.42120004         6.97129944E-05
   3.43319988         6.79667210E-05
   3.44519997         6.62858292E-05
   3.45720005         6.47002162E-05
   3.46919990         6.32274459E-05
   3.48119998         6.18734121E-05
   3.49320006         6.06333087E-05
   3.50519991         5.94930061E-05
   3.51719999         5.84307199E-05
   3.52920008         5.74188416E-05
   3.54119992         5.64258953E-05
   3.55320001         5.54185317E-05
   3.56520009         5.43634887E-05
   3.57719994         5.32294143E-05
   3.58920002         5.19885252E-05
   3.60120010         5.06180622E-05
   3.61319995         4.91014653E-05
   3.62520003         4.74292901E-05
   3.63720012         4.55998306E-05
   3.64919996         4.36194241E-05
   3.66120005         4.15024952E-05
   3.67319989         3.92712791E-05
   3.68519998         3.69552436E-05
   3.69720006         3.45903100E-05
   3.70919991         3.22177511E-05
   3.72119999         2.98829291E-05
   3.73320007         2.76338233E-05
   3.74519992         2.55193972E-05
   3.75720000         2.35878560E-05
   3.76920009         2.18848490E-05
   3.78119993         2.04516346E-05
   3.79320002         1.93233082E-05
   3.80520010         1.85271183E-05
   3.81719995         1.80809748E-05
   3.82920003         1.79921954E-05
   3.84120011         1.82565691E-05
   3.85319996         1.88578288E-05
   3.86520004         1.97675290E-05
   3.87719989         2.09454356E-05
   3.88919997         2.23403949E-05
   3.90120006         2.38917000E-05
   3.91319990         2.55309242E-05
   3.92519999         2.71841509E-05
   3.93720007         2.87745424E-05
   3.94919991         3.02251301E-05
   3.96120000         3.14617027E-05
   3.97320008         3.24156899E-05
   3.98519993         3.30268558E-05
   3.99720001         3.32457494E-05
   4.00920010         3.30357070E-05
   4.02120018         3.23743589E-05
   4.03319979         3.12545635E-05
   4.04519987         2.96846993E-05
   4.05719995         2.76883438E-05
   4.06920004         2.53033359E-05
   4.08120012         2.25803069E-05
   4.09320021         1.95807424E-05
   4.10519981         1.63746899E-05
   4.11719990         1.30382305E-05
   4.12919998         9.65083200E-06
   4.14120007         6.29269516E-06
   4.15320015         3.04219679E-06
   4.16520023        -2.64650861E-08
   4.17719984        -2.84535690E-06
   4.18919992        -5.35456638E-06
   4.20120001        -7.50359368E-06
   4.21320009        -9.25235872E-06
   4.22520018        -1.05718209E-05
   4.23719978        -1.14442309E-05
   4.24919987        -1.18630314E-05
   4.26119995        -1.18324679E-05
   4.27320004        -1.13669057E-05
   4.28520012        -1.04899427E-05
   4.29720020        -9.23331936E-06
   4.30919981        -7.63568642E-06
   4.32119989        -5.74125170E-06
   4.33319998        -3.59835599E-06
   4.34520006        -1.25799852E-06
   4.35720015         1.22763674E-06
   4.36920023         3.80662800E-06
   4.38119984         6.42868144E-06
   4.39319992         9.04637454E-06
   4.40520000         1.16162400E-05
   4.41720009         1.40996335E-05
   4.42920017         1.64633857E-05
   4.44119978         1.86801844E-05
   4.45319986         2.07286976E-05
   4.46519995         2.25934509E-05
   4.47720003         2.42644601E-05
   4.48920012         2.57366955E-05
   4.50120020         2.70093824E-05
   4.51319981         2.80852400E-05
   4.52519989         2.89697182E-05
   4.53719997         2.96702674E-05
   4.54920006         3.01957480E-05
   4.56120014         3.05560170E-05
   4.57320023         3.07616756E-05
   4.58519983         3.08240960E-05
   4.59719992         3.07556038E-05
   4.60920000         3.05698450E-05
   4.62120008         3.02822973E-05
   4.63320017         2.99108287E-05
   4.64519978         2.94762049E-05
   4.65719986         2.90025146E-05
   4.66919994         2.85174010E-05
   4.68120003         2.80520362E-05
   4.69320011         2.76407609E-05
   4.70520020         2.73204259E-05
   4.71719980         2.71293629E-05
   4.72919989         2.71060835E-05
   4.74119997         2.72876987E-05
   4.75320005         2.77081908E-05
   4.76520014         2.83966256E-05
   4.77720022         2.93754019E-05
   4.78919983         3.06586735E-05
   4.80119991         3.22510423E-05
   4.81320000         3.41466257E-05
   4.82520008         3.63285835E-05
   4.83720016         3.87691071E-05
   4.84919977         4.14299866E-05
   4.86119986         4.42636483E-05
   4.87319994         4.72146494E-05
   4.88520002         5.02215989E-05
   4.89720011         5.32193553E-05
   4.90920019         5.61414417E-05
   4.92119980         5.89224692E-05
   4.93319988         6.15005192E-05
   4.94519997         6.38193887E-05
   4.95720005         6.58304198E-05
   4.96920013         6.74940384E-05
   4.98120022         6.87807842E-05
   4.99319983         6.96718926E-05
   5.00519991         7.01593381E-05
   5.01719999         7.02454126E-05
   5.02920008         6.99418815E-05
   5.04120016         6.92687463E-05
   5.05319977         6.82528262E-05
   5.06519985         6.69260116E-05
   5.07719994         6.53235911E-05
   5.08920002         6.34825119E-05
   5.10120010         6.14398232E-05
   5.11320019         5.92312717E-05
   5.12519979         5.68902324E-05
   5.13719988         5.44468930E-05
   5.14919996         5.19278401E-05
   5.16120005         4.93559201E-05
   5.17320013         4.67504215E-05
   5.18520021         4.41275370E-05
   5.19719982         4.15009927E-05
   5.20919991         3.88828230E-05
   5.22119999         3.62841929E-05
   5.23320007         3.37162128E-05
   5.24520016         3.11906806E-05
   5.25719976         2.87206894E-05
   5.26919985         2.63210459E-05
   5.28119993         2.40085101E-05
   5.29320002         2.18018104E-05
   5.30520010         1.97214795E-05
   5.31720018         1.77894872E-05
   5.32919979         1.60287236E-05
   5.34119987         1.44623846E-05
   5.35319996         1.31132756E-05
   5.36520004         1.20031036E-05
   5.37720013         1.11517702E-05
   5.38920021         1.05767231E-05
   5.40119982         1.02923677E-05
   5.41319990         1.03095563E-05
   5.42519999         1.06351672E-05
   5.43720007         1.12717398E-05
   5.44920015         1.22171950E-05
   5.46120024         1.34646079E-05
   5.47319984         1.50020460E-05
   5.48519993         1.68124534E-05
   5.49720001         1.88736267E-05
   5.50920010         2.11582683E-05
   5.52120018         2.36341530E-05
   5.53319979         2.62644462E-05
   5.54519987         2.90081589E-05
   5.55719995         3.18208185E-05
   5.56920004         3.46552806E-05
   5.58120012         3.74627889E-05
   5.59320021         4.01941688E-05
   5.60519981         4.28011808E-05
   5.61719990         4.52379900E-05
   5.62919998         4.74626868E-05
   5.64120007         4.94387532E-05
   5.65320015         5.11364779E-05
   5.66520023         5.25341311E-05
   5.67719984         5.36188963E-05
   5.68919992         5.43874630E-05
   5.70120001         5.48462049E-05
   5.71320009         5.50109435E-05
   5.72520018         5.49062679E-05
   5.73719978         5.45644252E-05
   5.74919987         5.40238798E-05
   5.76119995         5.33275779E-05
   5.77320004         5.25209944E-05
   5.78520012         5.16501750E-05
   5.79720020         5.07597433E-05
   5.80919981         4.98910704E-05
   5.82119989         4.90807106E-05
   5.83319998         4.83591139E-05
   5.84520006         4.77497306E-05
   5.85720015         4.72684915E-05
   5.86920023         4.69237530E-05
   5.88119984         4.67165446E-05
   5.89319992         4.66412203E-05
   5.90520000         4.66863821E-05
   5.91720009         4.68359940E-05
   5.92920017         4.70706436E-05
   5.94119978         4.73688378E-05
   5.95319986         4.77082795E-05
   5.96519995         4.80670424E-05
   5.97720003         4.84245684E-05
   5.98920012         4.87625221E-05
   6.00120020         4.90653947E-05
   6.01319981         4.93209336E-05
   6.02519989         4.95203603E-05
   6.03719997         4.96584398E-05
   6.04920006         4.97333822E-05
   6.06120014         4.97466499E-05
   6.07320023         4.97026776E-05
   6.08519983         4.96085486E-05
   6.09719992         4.94736050E-05
   6.10920000         4.93090520E-05
   6.12120008         4.91275750E-05
   6.13320017         4.89428749E-05
   6.14519978         4.87692450E-05
   6.15719986         4.86211247E-05
   6.16919994         4.85125965E-05
   6.18120003         4.84569173E-05
   6.19320011         4.84659831E-05
   6.20520020         4.85498422E-05
   6.21719980         4.87161742E-05
   6.22919989         4.89698541E-05
   6.24119997         4.93125299E-05
   6.25320005         4.97423462E-05
   6.26520014         5.02537368E-05
   6.27720022         5.08374251E-05
   6.28919983         5.14805361E-05
   6.30119991         5.21669244E-05
   6.31320000         5.28776945E-05
   6.32520008         5.35918334E-05
   6.33720016         5.42870584E-05
   6.34919977         5.49407268E-05
   6.36119986         5.55308252E-05
   6.37319994         5.60369954E-05
   6.38520002         5.64414986E-05
   6.39720011         5.67300740E-05
   6.40920019         5.68927062E-05
   6.42119980         5.69241383E-05
   6.43319988         5.68242103E-05
   6.44519997         5.65979462E-05
   6.45720005         5.62554051E-05
   6.46920013         5.58112879E-05
   6.48120022         5.52843339E-05
   6.49319983         5.46965421E-05
   6.50519991         5.40722758E-05
   6.51719999         5.34372557E-05
   6.52920008         5.28175624E-05
   6.54120016         5.22386144E-05
   6.55319977         5.17242479E-05
   6.56519985         5.12958941E-05
   6.57719994         5.09718666E-05
   6.58920002         5.07668192E-05
   6.60120010         5.06913348E-05
   6.61320019         5.07516779E-05
   6.62519979         5.09496786E-05
   6.63719988         5.12827573E-05
   6.64919996         5.17440385E-05
   6.66120005         5.23225790E-05
   6.67320013         5.30036923E-05
   6.68520021         5.37693159E-05
   6.69719982         5.45984876E-05
   6.70919991         5.54678409E-05
   6.72119999         5.63522226E-05
   6.73320007         5.72253230E-05
   6.74520016         5.80604028E-05
   6.75719976         5.88310431E-05
   6.76919985         5.95119927E-05
   6.78119993         6.00799503E-05
   6.79320002         6.05144523E-05
   6.80520010         6.07986221E-05
   6.81720018         6.09199160E-05
   6.82919979         6.08707523E-05
   6.84119987         6.06489411E-05
   6.85319996         6.02580003E-05
   6.86520004         5.97071667E-05
   6.87720013         5.90112395E-05
   6.88920021         5.81901586E-05
   6.90119982         5.72683202E-05
   6.91319990         5.62737077E-05
   6.92519999         5.52368401E-05
   6.93720007         5.41895679E-05
   6.94920015         5.31638289E-05
   6.96120024         5.21903567E-05
   6.97319984         5.12975166E-05
   6.98519993         5.05102034E-05
   6.99720001         4.98489426E-05
   7.00920010         4.93292646E-05
   7.02120018         4.89612539E-05
   7.03319979         4.87494508E-05
   7.04519987         4.86929966E-05
   7.05719995         4.87860198E-05
   7.06920004         4.90182611E-05
   7.08120012         4.93758562E-05
   7.09320021         4.98422523E-05
   7.10519981         5.03991505E-05
   7.11719990         5.10274658E-05
   7.12919998         5.17082008E-05
   7.14120007         5.24232419E-05
   7.15320015         5.31559490E-05
   7.16520023         5.38916065E-05
   7.17719984         5.46176743E-05
   7.18919992         5.53238497E-05
   7.20120001         5.60019253E-05
   7.21320009         5.66455565E-05
   7.22520018         5.72498830E-05
   7.23719978         5.78111067E-05
   7.24919987         5.83260589E-05
   7.26119995         5.87917457E-05
   7.27320004         5.92050237E-05
   7.28520012         5.95622842E-05
   7.29720020         5.98593288E-05
   7.30919981         6.00912645E-05
   7.32119989         6.02526234E-05
   7.33319998         6.03374901E-05
   7.34520006         6.03397748E-05
   7.35720015         6.02535474E-05
   7.36920023         6.00734493E-05
   7.38119984         5.97949984E-05
   7.39319992         5.94150079E-05
   7.40520000         5.89318879E-05
   7.41720009         5.83458932E-05
   7.42920017         5.76592865E-05
   7.44119978         5.68764044E-05
   7.45319986         5.60036424E-05
   7.46519995         5.50493533E-05
   7.47720003         5.40236833E-05
   7.48920012         5.29383542E-05
   7.50120020         5.18064189E-05
   7.51319981         5.06419819E-05
   7.52519989         4.94599262E-05
   7.53719997         4.82756659E-05
   7.54920006         4.71048879E-05
   7.56120014         4.59633266E-05
   7.57320023         4.48665523E-05
   7.58519983         4.38298011E-05
   7.59719992         4.28677777E-05
   7.60920000         4.19945100E-05
   7.62120008         4.12231457E-05
   7.63320017         4.05657920E-05
   7.64519978         4.00332938E-05
   7.65719986         3.96350151E-05
   7.66919994         3.93785958E-05
   7.68120003         3.92696820E-05
   7.69320011         3.93116861E-05
   7.70520020         3.95055140E-05
   7.71719980         3.98493612E-05
   7.72919989         4.03385638E-05
   7.74119997         4.09654822E-05
   7.75320005         4.17195297E-05
   7.76520014         4.25872749E-05
   7.77720022         4.35526890E-05
   7.78919983         4.45974911E-05
   7.80119991         4.57016213E-05
   7.81320000         4.68438193E-05
   7.82520008         4.80022682E-05
   7.83720016         4.91552855E-05
   7.84919977         5.02820440E-05
   7.86119986         5.13632331E-05
   7.87319994         5.23816780E-05
   7.88520002         5.33228340E-05
   7.89720011         5.41751506E-05
   7.90920019         5.49302858E-05
   7.92119980         5.55831139E-05
   7.93319988         5.61315828E-05
   7.94519997         5.65763949E-05
   7.95720005         5.69205113E-05
   7.96920013         5.71685741E-05
   7.98120022         5.73262041E-05
   7.99319983         5.73993202E-05
   8.00520039         5.73934485E-05
   8.01720047         5.73131256E-05
   8.02919960         5.71614146E-05
   8.04119968         5.69396179E-05
   8.05319977         5.66471426E-05
   8.06519985         5.62816313E-05
   8.07719994         5.58392530E-05
   8.08920002         5.53151986E-05
   8.10120010         5.47043601E-05
   8.11320019         5.40021101E-05
   8.12520027         5.32051563E-05
   8.13720036         5.23123890E-05
   8.14920044         5.13257073E-05
   8.16119957         5.02506955E-05
   8.17319965         4.90971652E-05
   8.18519974         4.78794318E-05
   8.19719982         4.66163692E-05
   8.20919991         4.53311623E-05
   8.22119999         4.40507865E-05
   8.23320007         4.28052117E-05
   8.24520016         4.16264156E-05
   8.25720024         4.05471947E-05
   8.26920033         3.95998832E-05
   8.28120041         3.88150402E-05
   8.29319954         3.82201360E-05
   8.30519962         3.78383920E-05
   8.31719971         3.76877433E-05
   8.32919979         3.77799988E-05
   8.34119987         3.81202808E-05
   8.35319996         3.87067157E-05
   8.36520004         3.95303978E-05
   8.37720013         4.05756800E-05
   8.38920021         4.18206509E-05
   8.40120029         4.32378911E-05
   8.41320038         4.47953789E-05
   8.42520046         4.64575678E-05
   8.43719959         4.81864590E-05
   8.44919968         4.99427515E-05
   8.46119976         5.16868859E-05
   8.47319984         5.33800594E-05
   8.48519993         5.49850884E-05
   8.49720001         5.64671645E-05
   8.50920010         5.77944884E-05
   8.52120018         5.89387673E-05
   8.53320026         5.98756451E-05
   8.54520035         6.05849928E-05
   8.55720043         6.10511852E-05
   8.56919956         6.12632793E-05
   8.58119965         6.12151707E-05
   8.59319973         6.09056879E-05
   8.60519981         6.03386834E-05
   8.61719990         5.95231031E-05
   8.62919998         5.84729751E-05
   8.64120007         5.72073914E-05
   8.65320015         5.57503881E-05
   8.66520023         5.41307381E-05
   8.67720032         5.23815943E-05
   8.68920040         5.05399985E-05
   8.70119953         4.86462050E-05
   8.71319962         4.67428290E-05
   8.72519970         4.48738319E-05
   8.73719978         4.30833679E-05
   8.74919987         4.14144888E-05
   8.76119995         3.99078672E-05
   8.77320004         3.86004940E-05
   8.78520012         3.75244126E-05
   8.79720020         3.67056418E-05
   8.80920029         3.61632119E-05
   8.82120037         3.59084734E-05
   8.83320045         3.59446349E-05
   8.84519958         3.62666106E-05
   8.85719967         3.68611763E-05
   8.86919975         3.77074102E-05
   8.88119984         3.87774562E-05
   8.89319992         4.00375538E-05
   8.90520000         4.14492497E-05
   8.91720009         4.29708343E-05
   8.92920017         4.45588448E-05
   8.94120026         4.61696000E-05
   8.95320034         4.77607100E-05
   8.96520042         4.92924919E-05
   8.97719955         5.07291697E-05
   8.98919964         5.20399444E-05
   9.00119972         5.31997903E-05
   9.01319981         5.41899608E-05
   9.02519989         5.49983015E-05
   9.03719997         5.56192135E-05
   9.04920006         5.60533954E-05
   9.06120014         5.63073409E-05
   9.07320023         5.63926114E-05
   9.08520031         5.63249523E-05