 -0.622799993       0.00000000    
 -0.610800028       0.00000000    
 -0.598800004       0.00000000    
 -0.586799979       0.00000000    
 -0.574800014      -4.37791454E-24
 -0.562799990      -3.81433338E-23
 -0.550800025      -1.81114247E-22
 -0.538800001      -5.90293382E-22
 -0.526799977      -1.34444244E-21
 -0.514800012      -1.69568007E-21
 -0.502799988       1.83325539E-21
 -0.490799993       1.86207952E-20
 -0.478799999       6.70558810E-20
 -0.466800004       1.74224348E-19
 -0.454800010       3.67980239E-19
 -0.442799985       6.60149221E-19
 -0.430799991       1.02753286E-18
 -0.418799996       1.40735982E-18
 -0.406800002       1.72777495E-18
 -0.394800007       1.98198637E-18
 -0.382800013       2.32319155E-18
 -0.370799989       3.11784308E-18
 -0.358799994       4.87593151E-18
 -0.346799999       8.01308306E-18
 -0.334800005       1.25052214E-17
 -0.322800010       1.76402734E-17
 -0.310799986       2.21650639E-17
 -0.298799992       2.50556267E-17
 -0.286799997       2.68352330E-17
 -0.274800003       3.08839628E-17
 -0.262800008       4.37532321E-17
 -0.250800014       7.34647822E-17
 -0.238800004       1.25433245E-16
 -0.226799995       1.97018368E-16
 -0.214800000       2.73338750E-16
 -0.202800006       3.27965228E-16
 -0.190799996       3.31437004E-16
 -0.178800002       2.67623315E-16
 -0.166800007       1.53242117E-16
 -0.154799998       5.11236926E-17
 -0.142800003       6.58040111E-17
 -0.130799994       3.13353486E-16
 -0.118799999       8.66928428E-16
 -0.106799997       1.69333385E-15
  -9.48000029E-02   2.60863236E-15
  -8.28000009E-02   3.28535345E-15
  -7.07999989E-02   3.33404746E-15
  -5.88000007E-02   2.45628501E-15
  -4.67999987E-02   6.30473092E-16
  -3.48000005E-02  -1.74092662E-15
  -2.28000004E-02  -3.80736101E-15
  -1.08000003E-02  -4.43364277E-15
   1.20000006E-03  -2.55818286E-15
   1.31999999E-02   2.32845673E-15
   2.52000000E-02   9.73835389E-15
   3.72000001E-02   1.79699141E-14
   4.91999984E-02   2.42909449E-14
   6.12000003E-02   2.55894786E-14
   7.32000023E-02   1.94002732E-14
   8.51999968E-02   5.04354206E-15
   9.71999988E-02  -1.55064678E-14
  0.109200001      -3.74139806E-14
  0.121200003      -5.36959190E-14
  0.133200005      -5.68665666E-14
  0.145199999      -4.12124050E-14
  0.157199994      -5.12568647E-15
  0.169200003       4.72123290E-14
  0.181199998       1.05449178E-13
  0.193200007       1.54370684E-13
  0.205200002       1.76887164E-13
  0.217199996       1.58231704E-13
  0.229200006       9.05264972E-14
  0.241200000      -2.33416395E-14
  0.253199995      -1.67597178E-13
  0.265199989      -3.14050842E-13
  0.277200013      -4.25628147E-13
  0.289200008      -4.62879572E-13
  0.301200002      -3.92791485E-13
  0.313199997      -1.98579041E-13
  0.325199991       1.11444050E-13
  0.337199986       4.98224129E-13
  0.349200010       8.91901462E-13
  0.361200005       1.19914658E-12
  0.373199999       1.31852244E-12
  0.385199994       1.16264821E-12
  0.397199988       6.83726513E-13
  0.409200013      -1.03041504E-13
  0.421200007      -1.10480310E-12
  0.433200002      -2.15145827E-12
  0.445199996      -3.01518034E-12
  0.457199991      -3.44911426E-12
  0.469199985      -3.24030191E-12
  0.481200010      -2.26706436E-12
  0.493200004      -5.47891756E-13
  0.505200028       1.73148323E-12
  0.517199993       4.22315655E-12
  0.529200017       6.45858367E-12
  0.541199982       7.92311616E-12
  0.553200006       8.15239369E-12
  0.565199971       6.83372759E-12
  0.577199996       3.89324033E-12
  0.589200020      -4.48948252E-13
  0.601199985      -5.66843621E-12
  0.613200009      -1.09772712E-11
  0.625199974      -1.54145481E-11
  0.637199998      -1.79792067E-11
  0.649200022      -1.77919797E-11
  0.661199987      -1.42691336E-11
  0.673200011      -7.28658626E-12
  0.685199976       2.69093428E-12
  0.697200000       1.45442425E-11
  0.709200025       2.65267600E-11
  0.721199989       3.64089280E-11
  0.733200014       4.17522440E-11
  0.745199978       4.03038367E-11
  0.757200003       3.04738526E-11
  0.769200027       1.18266447E-11
  0.781199992      -1.45094926E-11
  0.793200016      -4.56210347E-11
  0.805199981      -7.68735423E-11
  0.817200005      -1.02322741E-10
  0.829200029      -1.15473707E-10
  0.841199994      -1.10315194E-10
  0.853200018      -8.24820282E-11
  0.865199983      -3.03426867E-11
  0.877200007       4.42125364E-11
  0.889199972       1.35482708E-10
  0.901199996       2.34296665E-10
  0.913200021       3.29003824E-10
  0.925199986       4.07012701E-10
  0.937200010       4.56654992E-10
  0.949199975       4.69067174E-10
  0.961199999       4.39746906E-10
  0.973200023       3.69461933E-10
  0.985199988       2.64261585E-10
  0.997200012       1.34441874E-10
   1.00919998      -7.57961402E-12
   1.02119994      -1.50446822E-10
   1.03320003      -2.88034319E-10
   1.04519999      -4.24552948E-10
   1.05719995      -5.80598902E-10
   1.06920004      -8.00227551E-10
   1.08120000      -1.15921639E-09
   1.09319997      -1.77474035E-09
   1.10520005      -2.81674151E-09
   1.11720002      -4.52136639E-09
   1.12919998      -7.20705229E-09
   1.14119995      -1.12941922E-08
   1.15320003      -1.73300148E-08
   1.16520000      -2.60212349E-08
   1.17719996      -3.82784009E-08
   1.18920004      -5.52772548E-08
   1.20120001      -7.85439482E-08
   1.21319997      -1.10072492E-07
   1.22520006      -1.52483040E-07
   1.23720002      -2.09229881E-07
   1.24919999      -2.84866559E-07
   1.26119995      -3.85372459E-07
   1.27320004      -5.18541242E-07
   1.28520000      -6.94425978E-07
   1.29719996      -9.25827806E-07
   1.30920005      -1.22881056E-06
   1.32120001      -1.62321055E-06
   1.33319998      -2.13310841E-06
   1.34519994      -2.78722200E-06
   1.35720003      -3.61916977E-06
   1.36919999      -4.66756137E-06
   1.38119996      -5.97586359E-06
   1.39320004      -7.59199520E-06
   1.40520000      -9.56762233E-06
   1.41719997      -1.19571250E-05
   1.42920005      -1.48162253E-05
   1.44120002      -1.82002932E-05
   1.45319998      -2.21623559E-05
   1.46519995      -2.67508931E-05
   1.47720003      -3.20074287E-05
   1.48920000      -3.79641206E-05
   1.50119996      -4.46413251E-05
   1.51320004      -5.20454014E-05
   1.52520001      -6.01667962E-05
   1.53719997      -6.89785084E-05
   1.54920006      -7.84351723E-05
   1.56120002      -8.84727197E-05
   1.57319999      -9.90087283E-05
   1.58519995      -1.09943561E-04
   1.59720004      -1.21162193E-04
   1.60920000      -1.32536792E-04
   1.62119997      -1.43929879E-04
   1.63320005      -1.55197980E-04
   1.64520001      -1.66195838E-04
   1.65719998      -1.76780508E-04
   1.66919994      -1.86815843E-04
   1.68120003      -1.96176581E-04
   1.69319999      -2.04752141E-04
   1.70519996      -2.12449988E-04
   1.71720004      -2.19198177E-04
   1.72920001      -2.24947376E-04
   1.74119997      -2.29671670E-04
   1.75320005      -2.33368919E-04
   1.76520002      -2.36059830E-04
   1.77719998      -2.37786575E-04
   1.78919995      -2.38610373E-04
   1.80120003      -2.38608729E-04
   1.81320000      -2.37872184E-04
   1.82519996      -2.36500680E-04
   1.83720005      -2.34600084E-04
   1.84920001      -2.32278500E-04
   1.86119998      -2.29643192E-04
   1.87320006      -2.26797652E-04
   1.88520002      -2.23839234E-04
   1.89719999      -2.20857328E-04
   1.90919995      -2.17932276E-04
   1.92120004      -2.15134714E-04
   1.93320000      -2.12525498E-04
   1.94519997      -2.10156140E-04
   1.95720005      -2.08069585E-04
   1.96920002      -2.06301323E-04
   1.98119998      -2.04880387E-04
   1.99319994      -2.03830627E-04
   2.00519991      -2.03171730E-04
   2.01719999      -2.02919968E-04
   2.02920008      -2.03088843E-04
   2.04119992      -2.03689211E-04
   2.05320001      -2.04729120E-04
   2.06520009      -2.06213503E-04
   2.07719994      -2.08143247E-04
   2.08920002      -2.10514409E-04
   2.10120010      -2.13317137E-04
   2.11319995      -2.16534667E-04
   2.12520003      -2.20142421E-04
   2.13720012      -2.24107440E-04
   2.14919996      -2.28388017E-04
   2.16120005      -2.32933919E-04
   2.17319989      -2.37686967E-04
   2.18519998      -2.42582304E-04
   2.19720006      -2.47550110E-04
   2.20919991      -2.52517697E-04
   2.22119999      -2.57412205E-04
   2.23320007      -2.62163405E-04
   2.24519992      -2.66706804E-04
   2.25720000      -2.70986638E-04
   2.26920009      -2.74958787E-04
   2.28119993      -2.78593332E-04
   2.29320002      -2.81876506E-04
   2.30520010      -2.84812297E-04
   2.31719995      -2.87423143E-04
   2.32920003      -2.89749907E-04
   2.34120011      -2.91850913E-04
   2.35319996      -2.93800578E-04
   2.36520004      -2.95686827E-04
   2.37719989      -2.97608349E-04
   2.38919997      -2.99671112E-04
   2.40120006      -3.01984604E-04
   2.41319990      -3.04657849E-04
   2.42519999      -3.07795592E-04
   2.43720007      -3.11494368E-04
   2.44919991      -3.15839250E-04
   2.46120000      -3.20900639E-04
   2.47320008      -3.26731766E-04
   2.48519993      -3.33366625E-04
   2.49720001      -3.40818398E-04
   2.50920010      -3.49078444E-04
   2.52119994      -3.58115969E-04
   2.53320003      -3.67877627E-04
   2.54520011      -3.78288009E-04
   2.55719995      -3.89249995E-04
   2.56920004      -4.00645775E-04
   2.58119988      -4.12337627E-04
   2.59319997      -4.24169470E-04
   2.60520005      -4.35968075E-04
   2.61719990      -4.47545142E-04
   2.62919998      -4.58699215E-04
   2.64120007      -4.69218445E-04
   2.65319991      -4.78883303E-04
   2.66520000      -4.87470359E-04
   2.67720008      -4.94756154E-04
   2.68919992      -5.00521623E-04
   2.70120001      -5.04557160E-04
   2.71320009      -5.06668061E-04
   2.72519994      -5.06679353E-04
   2.73720002      -5.04442200E-04
   2.74920011      -4.99838439E-04
   2.76119995      -4.92785766E-04
   2.77320004      -4.83241805E-04
   2.78520012      -4.71207459E-04
   2.79719996      -4.56729118E-04
   2.80920005      -4.39899508E-04
   2.82119989      -4.20857337E-04
   2.83319998      -3.99785436E-04
   2.84520006      -3.76907585E-04
   2.85719991      -3.52483970E-04
   2.86919999      -3.26805603E-04
   2.88120008      -3.00187647E-04
   2.89319992      -2.72962236E-04
   2.90520000      -2.45470699E-04
   2.91720009      -2.18055633E-04
   2.92919993      -1.91053376E-04
   2.94120002      -1.64786499E-04
   2.95320010      -1.39557247E-04
   2.96519995      -1.15641567E-04
   2.97720003      -9.32842086E-05
   2.98920012      -7.26948056E-05
   3.00119996      -5.40451001E-05
   3.01320004      -3.74670963E-05
   3.02519989      -2.30523819E-05
   3.03719997      -1.08522754E-05
   3.04920006      -8.78893331E-07
   3.06119990       6.89309763E-06
   3.07319999       1.25240822E-05
   3.08520007       1.61065782E-05
   3.09719992       1.77619004E-05
   3.10920000       1.76364665E-05
   3.12120008       1.58978419E-05
   3.13319993       1.27305548E-05
   3.14520001       8.33176000E-06
   3.15720010       2.90678167E-06
   3.16919994      -3.33538514E-06
   3.18120003      -1.01865808E-05
   3.19320011      -1.74438828E-05
   3.20519996      -2.49138611E-05
   3.21720004      -3.24165303E-05
   3.22919989      -3.97889416E-05
   3.24119997      -4.68882390E-05
   3.25320005      -5.35941399E-05
   3.26519990      -5.98106562E-05
   3.27719998      -6.54670221E-05
   3.28920007      -7.05177590E-05
   3.30119991      -7.49418832E-05
   3.31320000      -7.87411554E-05
   3.32520008      -8.19376728E-05
   3.33719993      -8.45706236E-05
   3.34920001      -8.66926057E-05
   3.36120009      -8.83655157E-05
   3.37319994      -8.96563288E-05
   3.38520002      -9.06329005E-05
   3.39720011      -9.13600597E-05
   3.40919995      -9.18962469E-05
   3.42120004      -9.22906984E-05
   3.43319988      -9.25815111E-05
   3.44519997      -9.27945512E-05
   3.45720005      -9.29432790E-05
   3.46919990      -9.30294264E-05
   3.48119998      -9.30444876E-05
   3.49320006      -9.29718881E-05
   3.50519991      -9.27896690E-05
   3.51719999      -9.24733758E-05
   3.52920008      -9.19991508E-05
   3.54119992      -9.13466793E-05
   3.55320001      -9.05017441E-05
   3.56520009      -8.94583936E-05
   3.57719994      -8.82203967E-05
   3.58920002      -8.68021016E-05
   3.60120010      -8.52284356E-05
   3.61319995      -8.35342507E-05
   3.62520003      -8.17630280E-05
   3.63720012      -7.99649060E-05
   3.64919996      -7.81944327E-05
   3.66120005      -7.65079749E-05
   3.67319989      -7.49610335E-05
   3.68519998      -7.36056681E-05
   3.69720006      -7.24881393E-05
   3.70919991      -7.16469076E-05
   3.72119999      -7.11110770E-05
   3.73320007      -7.08994121E-05
   3.74519992      -7.10198801E-05
   3.75720000      -7.14697235E-05
   3.76920009      -7.22360783E-05
   3.78119993      -7.32969274E-05
   3.79320002      -7.46225123E-05
   3.80520010      -7.61768169E-05
   3.81719995      -7.79192924E-05
   3.82920003      -7.98064939E-05
   3.84120011      -8.17936962E-05
   3.85319996      -8.38363121E-05
   3.86520004      -8.58910862E-05
   3.87719989      -8.79171348E-05
   3.88919997      -8.98765575E-05
   3.90120006      -9.17349971E-05
   3.91319990      -9.34618001E-05
   3.92519999      -9.50301546E-05
   3.93720007      -9.64169158E-05
   3.94919991      -9.76024385E-05
   3.96120000      -9.85703009E-05
   3.97320008      -9.93069989E-05
   3.98519993      -9.98016476E-05
   3.99720001      -1.00045734E-04
   4.00920010      -1.00032914E-04
   4.02120018      -9.97588868E-05
   4.03319979      -9.92213900E-05
   4.04519987      -9.84202561E-05
   4.05719995      -9.73576389E-05
   4.06920004      -9.60383040E-05
   4.08120012      -9.44701023E-05
   4.09320021      -9.26645444E-05
   4.10519981      -9.06374626E-05
   4.11719990      -8.84097826E-05
   4.12919998      -8.60082655E-05
   4.14120007      -8.34662642E-05
   4.15320015      -8.08243785E-05
   4.16520023      -7.81308554E-05
   4.17719984      -7.54417706E-05
   4.18919992      -7.28207742E-05
   4.20120001      -7.03384358E-05
   4.21320009      -6.80710000E-05
   4.22520018      -6.60987207E-05
   4.23719978      -6.45035252E-05
   4.24919987      -6.33662712E-05
   4.26119995      -6.27635891E-05
   4.27320004      -6.27644331E-05
   4.28520012      -6.34265234E-05
   4.29720020      -6.47929628E-05
   4.30919981      -6.68890571E-05
   4.32119989      -6.97197174E-05
   4.33319998      -7.32675835E-05
   4.34520006      -7.74920409E-05
   4.35720015      -8.23292503E-05
   4.36920023      -8.76932536E-05
   4.38119984      -9.34782656E-05
   4.39319992      -9.95618466E-05
   4.40520000      -1.05809129E-04
   4.41720009      -1.12077687E-04
   4.42920017      -1.18222910E-04
   4.44119978      -1.24103579E-04
   4.45319986      -1.29587337E-04
   4.46519995      -1.34555929E-04
   4.47720003      -1.38909672E-04
   4.48920012      -1.42571167E-04
   4.50120020      -1.45487924E-04
   4.51319981      -1.47633924E-04
   4.52519989      -1.49009924E-04
   4.53719997      -1.49642554E-04
   4.54920006      -1.49582454E-04
   4.56120014      -1.48901338E-04
   4.57320023      -1.47688290E-04
   4.58519983      -1.46045568E-04
   4.59719992      -1.44084028E-04
   4.60920000      -1.41918397E-04
   4.62120008      -1.39662719E-04
   4.63320017      -1.37426105E-04
   4.64519978      -1.35308801E-04
   4.65719986      -1.33399080E-04
   4.66919994      -1.31770532E-04
   4.68120003      -1.30480243E-04
   4.69320011      -1.29567692E-04
   4.70520020      -1.29054271E-04
   4.71719980      -1.28943677E-04
   4.72919989      -1.29222652E-04
   4.74119997      -1.29862558E-04
   4.75320005      -1.30821310E-04
   4.76520014      -1.32045621E-04
   4.77720022      -1.33473746E-04
   4.78919983      -1.35038281E-04
   4.80119991      -1.36669187E-04
   4.81320000      -1.38296746E-04
   4.82520008      -1.39854528E-04
   4.83720016      -1.41282013E-04
   4.84919977      -1.42527075E-04
   4.86119986      -1.43547892E-04
   4.87319994      -1.44314385E-04
   4.88520002      -1.44809062E-04
   4.89720011      -1.45027167E-04
   4.90920019      -1.44976046E-04
   4.92119980      -1.44674006E-04
   4.93319988      -1.44148304E-04
   4.94519997      -1.43432742E-04
   4.95720005      -1.42564735E-04
   4.96920013      -1.41582204E-04
   4.98120022      -1.40520424E-04
   4.99319983      -1.39408949E-04
   5.00519991      -1.38269053E-04
   5.01719999      -1.37111667E-04
   5.02920008      -1.35936047E-04
   5.04120016      -1.34729446E-04
   5.05319977      -1.33467518E-04
   5.06519985      -1.32115834E-04
   5.07719994      -1.30632077E-04
   5.08920002      -1.28969157E-04
   5.10120010      -1.27078747E-04
   5.11320019      -1.24915096E-04
   5.12519979      -1.22438985E-04
   5.13719988      -1.19621487E-04
   5.14919996      -1.16447081E-04
   5.16120005      -1.12916285E-04
   5.17320013      -1.09047316E-04
   5.18520021      -1.04876730E-04
   5.19719982      -1.00459096E-04
   5.20919991      -9.58655364E-05
   5.22119999      -9.11813913E-05
   5.23320007      -8.65030233E-05
   5.24520016      -8.19340494E-05
   5.25719976      -7.75811568E-05
   5.26919985      -7.35498033E-05
   5.28119993      -6.99400553E-05
   5.29320002      -6.68426655E-05
   5.30520010      -6.43357998E-05
   5.31720018      -6.24823733E-05
   5.32919979      -6.13281591E-05
   5.34119987      -6.09007438E-05
   5.35319996      -6.12092408E-05
   5.36520004      -6.22448133E-05
   5.37720013      -6.39817736E-05
   5.38920021      -6.63792744E-05
   5.40119982      -6.93833572E-05
   5.41319990      -7.29292515E-05
   5.42519999      -7.69438047E-05
   5.43720007      -8.13478473E-05
   5.44920015      -8.60585496E-05
   5.46120024      -9.09915616E-05
   5.47319984      -9.60629113E-05
   5.48519993      -1.01190759E-04
   5.49720001      -1.06296837E-04
   5.50920010      -1.11307745E-04
   5.52120018      -1.16156029E-04
   5.53319979      -1.20781056E-04
   5.54519987      -1.25129867E-04
   5.55719995      -1.29157706E-04
   5.56920004      -1.32828573E-04
   5.58120012      -1.36115603E-04
   5.59320021      -1.39001204E-04
   5.60519981      -1.41477096E-04
   5.61719990      -1.43544050E-04
   5.62919998      -1.45211467E-04
   5.64120007      -1.46496706E-04
   5.65320015      -1.47424013E-04
   5.66520023      -1.48023362E-04
   5.67719984      -1.48329040E-04
   5.68919992      -1.48377992E-04
   5.70120001      -1.48208128E-04
   5.71320009      -1.47856685E-04
   5.72520018      -1.47358573E-04
   5.73719978      -1.46744977E-04
   5.74919987      -1.46042192E-04
   5.76119995      -1.45270897E-04
   5.77320004      -1.44445745E-04
   5.78520012      -1.43575438E-04
   5.79720020      -1.42663295E-04
   5.80919981      -1.41708151E-04
   5.82119989      -1.40705699E-04
   5.83319998      -1.39650016E-04
   5.84520006      -1.38535324E-04
   5.85720015      -1.37357696E-04
   5.86920023      -1.36116709E-04
   5.88119984      -1.34816786E-04
   5.89319992      -1.33468202E-04
   5.90520000      -1.32087662E-04
   5.91720009      -1.30698361E-04
   5.92920017      -1.29329361E-04
   5.94119978      -1.28014610E-04
   5.95319986      -1.26791419E-04
   5.96519995      -1.25698556E-04
   5.97720003      -1.24774044E-04
   5.98920012      -1.24052967E-04
   6.00120020      -1.23565245E-04
   6.01319981      -1.23333593E-04
   6.02519989      -1.23371967E-04
   6.03719997      -1.23684396E-04
   6.04920006      -1.24264450E-04
   6.06120014      -1.25095277E-04
   6.07320023      -1.26150349E-04
   6.08519983      -1.27394756E-04
   6.09719992      -1.28787040E-04
   6.10920000      -1.30281347E-04
   6.12120008      -1.31829947E-04
   6.13320017      -1.33385664E-04
   6.14519978      -1.34904330E-04
   6.15719986      -1.36346905E-04
   6.16919994      -1.37681200E-04
   6.18120003      -1.38883173E-04
   6.19320011      -1.39937532E-04
   6.20520020      -1.40837757E-04
   6.21719980      -1.41585653E-04
   6.22919989      -1.42190329E-04
   6.24119997      -1.42666613E-04
   6.25320005      -1.43033452E-04
   6.26520014      -1.43311961E-04
   6.27720022      -1.43523532E-04
   6.28919983      -1.43688114E-04
   6.30119991      -1.43822719E-04
   6.31320000      -1.43940371E-04
   6.32520008      -1.44049351E-04
   6.33720016      -1.44152989E-04
   6.34919977      -1.44249847E-04
   6.36119986      -1.44334335E-04
   6.37319994      -1.44397563E-04
   6.38520002      -1.44428428E-04
   6.39720011      -1.44414909E-04
   6.40920019      -1.44345104E-04
   6.42119980      -1.44208432E-04
   6.43319988      -1.43996484E-04
   6.44519997      -1.43703597E-04
   6.45720005      -1.43327299E-04
   6.46920013      -1.42868274E-04
   6.48120022      -1.42330260E-04
   6.49319983      -1.41719516E-04
   6.50519991      -1.41044366E-04
   6.51719999      -1.40314471E-04
   6.52920008      -1.39540352E-04
   6.54120016      -1.38732750E-04
   6.55319977      -1.37902243E-04
   6.56519985      -1.37058989E-04
   6.57719994      -1.36212708E-04
   6.58920002      -1.35372655E-04
   6.60120010      -1.34547969E-04
   6.61320019      -1.33747788E-04
   6.62519979      -1.32981688E-04
   6.63719988      -1.32259884E-04
   6.64919996      -1.31593333E-04
   6.66120005      -1.30993867E-04
   6.67320013      -1.30474000E-04
   6.68520021      -1.30046654E-04
   6.69719982      -1.29724678E-04
   6.70919991      -1.29520253E-04
   6.72119999      -1.29444277E-04
   6.73320007      -1.29505643E-04
   6.74520016      -1.29710650E-04
   6.75719976      -1.30062472E-04
   6.76919985      -1.30560773E-04
   6.78119993      -1.31201537E-04
   6.79320002      -1.31977140E-04
   6.80520010      -1.32876477E-04
   6.81720018      -1.33885507E-04
   6.82919979      -1.34987669E-04
   6.84119987      -1.36164483E-04
   6.85319996      -1.37396230E-04
   6.86520004      -1.38662479E-04
   6.87720013      -1.39942655E-04
   6.88920021      -1.41216326E-04
   6.90119982      -1.42463570E-04
   6.91319990      -1.43665049E-04
   6.92519999      -1.44802034E-04
   6.93720007      -1.45856407E-04
   6.94920015      -1.46810562E-04
   6.96120024      -1.47647428E-04
   6.97319984      -1.48350460E-04
   6.98519993      -1.48903797E-04
   6.99720001      -1.49292609E-04
   7.00920010      -1.49503583E-04
   7.02120018      -1.49525484E-04
   7.03319979      -1.49350017E-04
   7.04519987      -1.48972613E-04
   7.05719995      -1.48393345E-04
   7.06920004      -1.47617684E-04
   7.08120012      -1.46657214E-04
   7.09320021      -1.45530081E-04
   7.10519981      -1.44261154E-04
   7.11719990      -1.42881836E-04
   7.12919998      -1.41429511E-04
   7.14120007      -1.39946598E-04
   7.15320015      -1.38479241E-04
   7.16520023      -1.37075680E-04
   7.17719984      -1.35784343E-04
   7.18919992      -1.34651782E-04
   7.20120001      -1.33720619E-04
   7.21320009      -1.33027526E-04
   7.22520018      -1.32601388E-04
   7.23719978      -1.32461792E-04
   7.24919987      -1.32617817E-04
   7.26119995      -1.33067515E-04
   7.27320004      -1.33797585E-04
   7.28520012      -1.34783855E-04
   7.29720020      -1.35992101E-04
   7.30919981      -1.37379437E-04
   7.32119989      -1.38896066E-04
   7.33319998      -1.40487304E-04
   7.34520006      -1.42095872E-04
   7.35720015      -1.43664249E-04
   7.36920023      -1.45137004E-04
   7.38119984      -1.46463004E-04
   7.39319992      -1.47597340E-04
   7.40520000      -1.48502950E-04
   7.41720009      -1.49151907E-04
   7.42920017      -1.49526270E-04
   7.44119978      -1.49618427E-04
   7.45319986      -1.49431129E-04
   7.46519995      -1.48977051E-04
   7.47720003      -1.48277933E-04
   7.48920012      -1.47363535E-04
   7.50120020      -1.46270235E-04
   7.51319981      -1.45039419E-04
   7.52519989      -1.43715864E-04
   7.53719997      -1.42345918E-04
   7.54920006      -1.40975739E-04
   7.56120014      -1.39649506E-04
   7.57320023      -1.38407908E-04
   7.58519983      -1.37286683E-04
   7.59719992      -1.36315313E-04
   7.60920000      -1.35516151E-04
   7.62120008      -1.34903632E-04
   7.63320017      -1.34484013E-04
   7.64519978      -1.34255242E-04
   7.65719986      -1.34207294E-04
   7.66919994      -1.34322807E-04
   7.68120003      -1.34578047E-04
   7.69320011      -1.34944057E-04
   7.70520020      -1.35388254E-04
   7.71719980      -1.35875875E-04
   7.72919989      -1.36371789E-04
   7.74119997      -1.36842107E-04
   7.75320005      -1.37255862E-04
   7.76520014      -1.37586379E-04
   7.77720022      -1.37812502E-04
   7.78919983      -1.37919502E-04
   7.80119991      -1.37899449E-04
   7.81320000      -1.37751646E-04
   7.82520008      -1.37482086E-04
   7.83720016      -1.37103110E-04
   7.84919977      -1.36632487E-04
   7.86119986      -1.36092160E-04
   7.87319994      -1.35507056E-04
   7.88520002      -1.34903647E-04
   7.89720011      -1.34308473E-04
   7.90920019      -1.33746915E-04
   7.92119980      -1.33241949E-04
   7.93319988      -1.32813220E-04
   7.94519997      -1.32476300E-04
   7.95720005      -1.32242305E-04
   7.96920013      -1.32117755E-04
   7.98120022      -1.32104717E-04
   7.99319983      -1.32201152E-04
   8.00520039      -1.32401430E-04
   8.01720047      -1.32697052E-04
   8.02919960      -1.33077338E-04
   8.04119968      -1.33530208E-04
   8.05319977      -1.34042915E-04
   8.06519985      -1.34602582E-04
   8.07719994      -1.35196911E-04
   8.08920002      -1.35814378E-04
   8.10120010      -1.36444665E-04
   8.11320019      -1.37078678E-04
   8.12520027      -1.37708703E-04
   8.13720036      -1.38328222E-04
   8.14920044      -1.38931864E-04
   8.16119957      -1.39515134E-04
   8.17319965      -1.40074306E-04
   8.18519974      -1.40606193E-04
   8.19719982      -1.41108001E-04
   8.20919991      -1.41577155E-04
   8.22119999      -1.42011137E-04
   8.23320007      -1.42407502E-04
   8.24520016      -1.42763689E-04
   8.25720024      -1.43077079E-04
   8.26920033      -1.43344907E-04
   8.28120041      -1.43564321E-04
   8.29319954      -1.43732395E-04
   8.30519962      -1.43846206E-04
   8.31719971      -1.43902900E-04
   8.32919979      -1.43899830E-04
   8.34119987      -1.43834681E-04
   8.35319996      -1.43705678E-04
   8.36520004      -1.43511759E-04
   8.37720013      -1.43252750E-04
   8.38920021      -1.42929595E-04
   8.40120029      -1.42544581E-04
   8.41320038      -1.42101417E-04
   8.42520046      -1.41605415E-04
   8.43719959      -1.41063414E-04
   8.44919968      -1.40483826E-04
   8.46119976      -1.39876400E-04
   8.47319984      -1.39252035E-04
   8.48519993      -1.38622330E-04
   8.49720001      -1.37999290E-04
   8.50920010      -1.37394672E-04
   8.52120018      -1.36819712E-04
   8.53320026      -1.36284376E-04
   8.54520035      -1.35797090E-04
   8.55720043      -1.35364317E-04
   8.56919956      -1.34990289E-04
   8.58119965      -1.34676899E-04
   8.59319973      -1.34423768E-04
   8.60519981      -1.34228350E-04
   8.61719990      -1.34086309E-04
   8.62919998      -1.33991969E-04
   8.64120007      -1.33938811E-04
   8.65320015      -1.33920141E-04
   8.66520023      -1.33929570E-04
   8.67720032      -1.33961672E-04
   8.68920040      -1.34012414E-04
   8.70119953      -1.34079572E-04
   8.71319962      -1.34162910E-04
   8.72519970      -1.34264235E-04
   8.73719978      -1.34387345E-04
   8.74919987      -1.34537695E-04
   8.76119995      -1.34722024E-04
   8.77320004      -1.34947797E-04
   8.78520012      -1.35222595E-04
   8.79720020      -1.35553419E-04
   8.80920029      -1.35945971E-04
   8.82120037      -1.36404051E-04
   8.83320045      -1.36928909E-04
   8.84519958      -1.37518757E-04
   8.85719967      -1.38168471E-04
   8.86919975      -1.38869320E-04
   8.88119984      -1.39608906E-04
   8.89319992      -1.40371354E-04
   8.90520000      -1.41137512E-04
   8.91720009      -1.41885481E-04
   8.92920017      -1.42591089E-04
   8.94120026      -1.43228768E-04
   8.95320034      -1.43772268E-04
   8.96520042      -1.44195714E-04
   8.97719955      -1.44474470E-04
   8.98919964      -1.44586331E-04
   9.00119972      -1.44512465E-04
   9.01319981      -1.44238526E-04
   9.02519989      -1.43755446E-04
   9.03719997      -1.43060257E-04
   9.04920006      -1.42156787E-04
   9.06120014      -1.41055963E-04
   9.07320023      -1.39776006E-04
   9.08520031      -1.38342308E-04
   9.09720039      -1.36787057E-04
   9.10919952      -1.35148468E-04
   9.12119961      -1.33469861E-04
   9.13319969      -1.31798384E-04
   9.14519978      -1.30183485E-04
   9.15719986      -1.28675354E-04
   9.16919994      -1.27323001E-04
   9.18120003      -1.26172585E-04
   9.19320011      -1.25265462E-04
   9.20520020      -1.24636543E-04
   9.21720028      -1.24312806E-04
   9.22920036      -1.24311919E-04
   9.24120045      -1.24641345E-04
   9.25319958      -1.25297767E-04
   9.26519966      -1.26266823E-04
   9.27719975      -1.27523352E-04
   9.28919983      -1.29032080E-04
   9.30119991      -1.30748638E-04
   9.31320000      -1.32620946E-04
   9.32520008      -1.34591013E-04
   9.33720016      -1.36596864E-04
   9.34920025      -1.38574731E-04
   9.36120033      -1.40461387E-04
   9.37320042      -1.42196295E-04
   9.38519955      -1.43723912E-04
   9.39719963      -1.44995691E-04
   9.40919971      -1.45971877E-04
   9.42119980      -1.46622988E-04
   9.43319988      -1.46930834E-04
   9.44519997      -1.46889288E-04
