 -0.622799993       0.00000000    
 -0.610800028       0.00000000    
 -0.598800004       0.00000000    
 -0.586799979       0.00000000    
 -0.574800014       2.53344677E-25
 -0.562799990       1.94523396E-24
 -0.550800025       1.63924468E-24
 -0.538800001      -4.25818818E-23
 -0.526799977      -2.98242055E-22
 -0.514800012      -1.17881659E-21
 -0.502799988      -3.38720323E-21
 -0.490799993      -7.72968294E-21
 -0.478799999      -1.46982886E-20
 -0.466800004      -2.41999039E-20
 -0.454800010      -3.61647467E-20
 -0.442799985      -5.25650112E-20
 -0.430799991      -8.01983269E-20
 -0.418799996      -1.31760256E-19
 -0.406800002      -2.21670161E-19
 -0.394800007      -3.54846291E-19
 -0.382800013      -5.12196284E-19
 -0.370799989      -6.44157855E-19
 -0.358799994      -6.87767437E-19
 -0.346799999      -6.16505000E-19
 -0.334800005      -5.12080841E-19
 -0.322800010      -6.19029710E-19
 -0.310799986      -1.32329563E-18
 -0.298799992      -3.00743887E-18
 -0.286799997      -5.79214240E-18
 -0.274800003      -9.26624928E-18
 -0.262800008      -1.23923360E-17
 -0.250800014      -1.37853438E-17
 -0.238800004      -1.24411000E-17
 -0.226799995      -8.73739714E-18
 -0.214800000      -5.22916410E-18
 -0.202800006      -6.58044263E-18
 -0.190799996      -1.81086479E-17
 -0.178800002      -4.29605582E-17
 -0.166800007      -7.87944392E-17
 -0.154799998      -1.15664572E-16
 -0.142800003      -1.37086128E-16
 -0.130799994      -1.25545834E-16
 -0.118799999      -7.19043887E-17
 -0.106799997       1.43329754E-17
  -9.48000029E-02   9.89888296E-17
  -8.28000009E-02   1.26929303E-16
  -7.07999989E-02   3.87122777E-17
  -5.88000007E-02  -2.01698675E-16
  -4.67999987E-02  -5.76467330E-16
  -3.48000005E-02  -9.94190311E-16
  -2.28000004E-02  -1.29540306E-15
  -1.08000003E-02  -1.29211117E-15
   1.20000006E-03  -8.38156465E-16
   1.31999999E-02   8.80485852E-17
   2.52000000E-02   1.31962524E-15
   3.72000001E-02   2.49094517E-15
   4.91999984E-02   3.10540532E-15
   6.12000003E-02   2.68143103E-15
   7.32000023E-02   9.44690764E-16
   8.51999968E-02  -1.99436766E-15
   9.71999988E-02  -5.55109225E-15
  0.109200001      -8.72534145E-15
  0.121200003      -1.03277194E-14
  0.133200005      -9.33443352E-15
  0.145199999      -5.27500737E-15
  0.157199994       1.47576539E-15
  0.169200003       9.62154550E-15
  0.181199998       1.71492035E-14
  0.193200007       2.17927940E-14
  0.205200002       2.16435637E-14
  0.217199996       1.57314025E-14
  0.229200006       4.39869842E-15
  0.241200000      -1.06530055E-14
  0.253199995      -2.66581919E-14
  0.265199989      -4.03282347E-14
  0.277200013      -4.84709319E-14
  0.289200008      -4.85233869E-14
  0.301200002      -3.89084754E-14
  0.313199997      -1.92393776E-14
  0.325199991       9.51114492E-15
  0.337199986       4.47529146E-14
  0.349200010       8.19151198E-14
  0.361200005       1.14156826E-13
  0.373199999       1.32528943E-13
  0.385199994       1.27043517E-13
  0.397199988       8.89570603E-14
  0.409200013       1.41594635E-14
  0.421200007      -9.30404571E-14
  0.433200002      -2.17028367E-13
  0.445199996      -3.30492740E-13
  0.457199991      -3.97885745E-13
  0.469199985      -3.83200904E-13
  0.481200010      -2.61099302E-13
  0.493200004      -2.88101384E-14
  0.505200028       2.84987881E-13
  0.517199993       6.18346791E-13
  0.529200017       8.84218534E-13
  0.541199982       9.89056927E-13
  0.553200006       8.58931632E-13
  0.565199971       4.66933133E-13
  0.577199996      -1.46444516E-13
  0.589200020      -8.68115855E-13
  0.601199985      -1.52773486E-12
  0.613200009      -1.93362318E-12
  0.625199974      -1.92295095E-12
  0.637199998      -1.41405128E-12
  0.649200022      -4.45637776E-13
  0.661199987       8.11268153E-13
  0.673200011       2.07725200E-12
  0.685199976       3.02354756E-12
  0.697200000       3.35488104E-12
  0.709200025       2.89590509E-12
  0.721199989       1.65684740E-12
  0.733200014      -1.43479412E-13
  0.745199978      -2.10981276E-12
  0.757200003      -3.75592309E-12
  0.769200027      -4.62608467E-12
  0.781199992      -4.42277291E-12
  0.793200016      -3.10558935E-12
  0.805199981      -9.30614093E-13
  0.817200005       1.58723273E-12
  0.829200029       3.78671660E-12
  0.841199994       5.02481000E-12
  0.853200018       4.85408068E-12
  0.865199983       3.16689318E-12
  0.877200007       2.65228676E-13
  0.889199972      -3.16889895E-12
  0.901199996      -6.20383432E-12
  0.913200021      -7.86541058E-12
  0.925199986      -7.37608152E-12
  0.937200010      -4.37073207E-12
  0.949199975       9.63687463E-13
  0.961199999       7.86237481E-12
  0.973200023       1.50840868E-11
  0.985199988       2.11248120E-11
  0.997200012       2.45038712E-11
   1.00919998       2.40657095E-11
   1.02119994       1.92362411E-11
   1.03320003       1.01810557E-11
   1.04519999      -2.16869057E-12
   1.05719995      -1.62321614E-11
   1.06920004      -3.00222278E-11
   1.08120000      -4.14848295E-11
   1.09319997      -4.88962551E-11
   1.10520005      -5.12855626E-11
   1.11720002      -4.88667613E-11
   1.12919998      -4.34841330E-11
   1.14119995      -3.90947066E-11
   1.15320003      -4.23146726E-11
   1.16520000      -6.30553179E-11
   1.17719996      -1.15238152E-10
   1.18920004      -2.17550838E-10
   1.20120001      -3.94164340E-10
   1.21319997      -6.75306144E-10
   1.22520006      -1.09761744E-09
   1.23720002      -1.70427261E-09
   1.24919999      -2.54497712E-09
   1.26119995      -3.67616138E-09
   1.27320004      -5.16189624E-09
   1.28520000      -7.07633818E-09
   1.29719996      -9.50885859E-09
   1.30920005      -1.25731203E-08
   1.32120001      -1.64216498E-08
   1.33319998      -2.12676241E-08
   1.34519994      -2.74155880E-08
   1.35720003      -3.53027190E-08
   1.36919999      -4.55521239E-08
   1.38119996      -5.90393228E-08
   1.39320004      -7.69722632E-08
   1.40520000      -1.00985254E-07
   1.41719997      -1.33244768E-07
   1.42920005      -1.76565578E-07
   1.44120002      -2.34533189E-07
   1.45319998      -3.11626962E-07
   1.46519995      -4.13337858E-07
   1.47720003      -5.46272588E-07
   1.48920000      -7.18234560E-07
   1.50119996      -9.38271398E-07
   1.51320004      -1.21668074E-06
   1.52520001      -1.56496128E-06
   1.53719997      -1.99570377E-06
   1.54920006      -2.52241102E-06
   1.56120002      -3.15924672E-06
   1.57319999      -3.92070660E-06
   1.58519995      -4.82121550E-06
   1.59720004      -5.87465638E-06
   1.60920000      -7.09384221E-06
   1.62119997      -8.48994387E-06
   1.63320005      -1.00718898E-05
   1.64520001      -1.18457619E-05
   1.65719998      -1.38142195E-05
   1.66919994      -1.59759566E-05
   1.68120003      -1.83252450E-05
   1.69319999      -2.08515830E-05
   1.70519996      -2.35394564E-05
   1.71720004      -2.63682741E-05
   1.72920001      -2.93124431E-05
   1.74119997      -3.23416571E-05
   1.75320005      -3.54213553E-05
   1.76520002      -3.85133717E-05
   1.77719998      -4.15767790E-05
   1.78919995      -4.45688747E-05
   1.80120003      -4.74463159E-05
   1.81320000      -5.01663853E-05
   1.82519996      -5.26882613E-05
   1.83720005      -5.49743818E-05
   1.84920001      -5.69917102E-05
   1.86119998      -5.87129653E-05
   1.87320006      -6.01176980E-05
   1.88520002      -6.11931464E-05
   1.89719999      -6.19349303E-05
   1.90919995      -6.23474189E-05
   1.92120004      -6.24437816E-05
   1.93320000      -6.22458028E-05
   1.94519997      -6.17832484E-05
   1.95720005      -6.10930001E-05
   1.96920002      -6.02178989E-05
   1.98119998      -5.92052857E-05
   1.99319994      -5.81053682E-05
   2.00519991      -5.69694603E-05
   2.01719999      -5.58481261E-05
   2.02920008      -5.47893869E-05
   2.04119992      -5.38370041E-05
   2.05320001      -5.30289326E-05
   2.06520009      -5.23960662E-05
   2.07719994      -5.19612622E-05
   2.08920002      -5.17387634E-05
   2.10120010      -5.17340086E-05
   2.11319995      -5.19438399E-05
   2.12520003      -5.23571216E-05
   2.13720012      -5.29556928E-05
   2.14919996      -5.37156848E-05
   2.16120005      -5.46090414E-05
   2.17319989      -5.56052291E-05
   2.18519998      -5.66730123E-05
   2.19720006      -5.77822102E-05
   2.20919991      -5.89053307E-05
   2.22119999      -6.00190324E-05
   2.23320007      -6.11052892E-05
   2.24519992      -6.21522122E-05
   2.25720000      -6.31545408E-05
   2.26920009      -6.41137012E-05
   2.28119993      -6.50375005E-05
   2.29320002      -6.59394573E-05
   2.30520010      -6.68378561E-05
   2.31719995      -6.77544449E-05
   2.32920003      -6.87130960E-05
   2.34120011      -6.97382420E-05
   2.35319996      -7.08533771E-05
   2.36520004      -7.20795724E-05
   2.37719989      -7.34341884E-05
   2.38919997      -7.49297033E-05
   2.40120006      -7.65729346E-05
   2.41319990      -7.83644209E-05
   2.42519999      -8.02982177E-05
   2.43720007      -8.23619484E-05
   2.44919991      -8.45371906E-05
   2.46120000      -8.68001516E-05
   2.47320008      -8.91225573E-05
   2.48519993      -9.14727134E-05
   2.49720001      -9.38168305E-05
   2.50920010      -9.61202895E-05
   2.52119994      -9.83490463E-05
   2.53320003      -1.00471007E-04
   2.54520011      -1.02457321E-04
   2.55719995      -1.04283616E-04
   2.56920004      -1.05930994E-04
   2.58119988      -1.07387030E-04
   2.59319997      -1.08646331E-04
   2.60520005      -1.09711051E-04
   2.61719990      -1.10591041E-04
   2.62919998      -1.11303736E-04
   2.64120007      -1.11873793E-04
   2.65319991      -1.12332331E-04
   2.66520000      -1.12715905E-04
   2.67720008      -1.13065209E-04
   2.68919992      -1.13423383E-04
   2.70120001      -1.13834132E-04
   2.71320009      -1.14339571E-04
   2.72519994      -1.14977905E-04
   2.73720002      -1.15780982E-04
   2.74920011      -1.16771887E-04
   2.76119995      -1.17962540E-04
   2.77320004      -1.19351469E-04
   2.78520012      -1.20922021E-04
   2.79719996      -1.22640777E-04
   2.80920005      -1.24456594E-04
   2.82119989      -1.26300190E-04
   2.83319998      -1.28084430E-04
   2.84520006      -1.29705222E-04
   2.85719991      -1.31043227E-04
   2.86919999      -1.31966284E-04
   2.88120008      -1.32332454E-04
   2.89319992      -1.31993642E-04
   2.90520000      -1.30799745E-04
   2.91720009      -1.28603206E-04
   2.92919993      -1.25263628E-04
   2.94120002      -1.20652599E-04
   2.95320010      -1.14658309E-04
   2.96519995      -1.07189888E-04
   2.97720003      -9.81813791E-05
   2.98920012      -8.75950791E-05
   3.00119996      -7.54242137E-05
   3.01320004      -6.16948309E-05
   3.02519989      -4.64668883E-05
   3.03719997      -2.98343657E-05
   3.04920006      -1.19245751E-05
   3.06119990       7.10341874E-06
   3.07319999       2.70612727E-05
   3.08520007       4.77345602E-05
   3.09719992       6.88866858E-05
   3.10920000       9.02633983E-05
   3.12120008       1.11597750E-04
   3.13319993       1.32615503E-04
   3.14520001       1.53040644E-04
   3.15720010       1.72601140E-04
   3.16919994       1.91034545E-04
   3.18120003       2.08093625E-04
   3.19320011       2.23551455E-04
   3.20519996       2.37206274E-04
   3.21720004       2.48885859E-04
   3.22919989       2.58451066E-04
   3.24119997       2.65798939E-04
   3.25320005       2.70864723E-04
   3.26519990       2.73623242E-04
   3.27719998       2.74089252E-04
   3.28920007       2.72316975E-04
   3.30119991       2.68398697E-04
   3.31320000       2.62462418E-04
   3.32520008       2.54668790E-04
   3.33719993       2.45207309E-04
   3.34920001       2.34291903E-04
   3.36120009       2.22155795E-04
   3.37319994       2.09046266E-04
   3.38520002       1.95218934E-04
   3.39720011       1.80932082E-04
   3.40919995       1.66440863E-04
   3.42120004       1.51991888E-04
   3.43319988       1.37817973E-04
   3.44519997       1.24133396E-04
   3.45720005       1.11129790E-04
   3.46919990       9.89724940E-05
   3.48119998       8.77978600E-05
   3.49320006       7.77111927E-05
   3.50519991       6.87855791E-05
   3.51719999       6.10615534E-05
   3.52920008       5.45476469E-05
   3.54119992       4.92217332E-05
   3.55320001       4.50332191E-05
   3.56520009       4.19059543E-05
   3.57719994       3.97418517E-05
   3.58920002       3.84250343E-05
   3.60120010       3.78264813E-05
   3.61319995       3.78089353E-05
   3.62520003       3.82319995E-05
   3.63720012       3.89572160E-05
   3.64919996       3.98529664E-05
   3.66120005       4.07989683E-05
   3.67319989       4.16903058E-05
   3.68519998       4.24407044E-05
   3.69720006       4.29850152E-05
   3.70919991       4.32807319E-05
   3.72119999       4.33085261E-05
   3.73320007       4.30717264E-05
   3.74519992       4.25947619E-05
   3.75720000       4.19206699E-05
   3.76920009       4.11077490E-05
   3.78119993       4.02254918E-05
   3.79320002       3.93500559E-05
   3.80520010       3.85594030E-05
   3.81719995       3.79284138E-05
   3.82920003       3.75242053E-05
   3.84120011       3.74018200E-05
   3.85319996       3.76006319E-05
   3.86520004       3.81414939E-05
   3.87719989       3.90249261E-05
   3.88919997       4.02303558E-05
   3.90120006       4.17164301E-05
   3.91319990       4.34224967E-05
   3.92519999       4.52710556E-05
   3.93720007       4.71711573E-05
   3.94919991       4.90225211E-05
   3.96120000       5.07202130E-05
   3.97320008       5.21596085E-05
   3.98519993       5.32414924E-05
   3.99720001       5.38769236E-05
   4.00920010       5.39917528E-05
   4.02120018       5.35305335E-05
   4.03319979       5.24596362E-05
   4.04519987       5.07694676E-05
   4.05719995       4.84756201E-05
   4.06920004       4.56190064E-05
   4.08120012       4.22648664E-05
   4.09320021       3.85007843E-05
   4.10519981       3.44337459E-05
   4.11719990       3.01864166E-05
   4.12919998       2.58927594E-05
   4.14120007       2.16932040E-05
   4.15320015       1.77295897E-05
   4.16520023       1.41400242E-05
   4.17719984       1.10539459E-05
   4.18919992       8.58748263E-06
   4.20120001       6.83933922E-06
   4.21320009       5.88732064E-06
   4.22520018       5.78561139E-06
   4.23719978       6.56288512E-06
   4.24919987       8.22129186E-06
   4.26119995       1.07363321E-05
   4.27320004       1.40575912E-05
   4.28520012       1.81102841E-05
   4.29720020       2.27975233E-05
   4.30919981       2.80032455E-05
   4.32119989       3.35955920E-05
   4.33319998       3.94307499E-05
   4.34520006       4.53570028E-05
   4.35720015       5.12189399E-05
   4.36920023       5.68616706E-05
   4.38119984       6.21349318E-05
   4.39319992       6.68970242E-05
   4.40520000       7.10184395E-05
   4.41720009       7.43850978E-05
   4.42920017       7.69012186E-05
   4.44119978       7.84915828E-05
   4.45319986       7.91033963E-05
   4.46519995       7.87075478E-05
   4.47720003       7.72992425E-05
   4.48920012       7.48981402E-05
   4.50120020       7.15478964E-05
   4.51319981       6.73151590E-05
   4.52519989       6.22880252E-05
   4.53719997       5.65740411E-05
   4.54920006       5.02977127E-05
   4.56120014       4.35976362E-05
   4.57320023       3.66232307E-05
   4.58519983       2.95312038E-05
   4.59719992       2.24817595E-05
   4.60920000       1.56346669E-05
   4.62120008       9.14526026E-06
   4.63320017       3.16045521E-06
   4.64519978      -2.18509581E-06
   4.65719986      -6.77261869E-06
   4.66919994      -1.05025083E-05
   4.68120003      -1.32971809E-05
   4.69320011      -1.51034073E-05
   4.70520020      -1.58940420E-05
   4.71719980      -1.56690767E-05
   4.72919989      -1.44559517E-05
   4.74119997      -1.23091177E-05
   4.75320005      -9.30878741E-06
   4.76520014      -5.55892530E-06
   4.77720022      -1.18447360E-06
   4.78919983       3.67210623E-06
   4.80119991       8.85489771E-06
   4.81320000       1.41990868E-05
   4.82520008       1.95358807E-05
   4.83720016       2.46976342E-05
   4.84919977       2.95229929E-05
   4.86119986       3.38619247E-05
   4.87319994       3.75803975E-05
   4.88520002       4.05646206E-05
   4.89720011       4.27245432E-05
   4.90920019       4.39966207E-05
   4.92119980       4.43456265E-05
   4.93319988       4.37654598E-05
   4.94519997       4.22788762E-05
   4.95720005       3.99361852E-05
   4.96920013       3.68129113E-05
   4.98120022       3.30065050E-05
   4.99319983       2.86322556E-05
   5.00519991       2.38185949E-05
   5.01719999       1.87019159E-05
   5.02920008       1.34212278E-05
   5.04120016       8.11280097E-06
   5.05319977       2.90509206E-06
   5.06519985      -2.08585811E-06
   5.07719994      -6.76033187E-06
   5.08920002      -1.10379879E-05
   5.10120010      -1.48599265E-05
   5.11320019      -1.81896794E-05
   5.12519979      -2.10131202E-05
   5.13719988      -2.33373139E-05
   5.14919996      -2.51883830E-05
   5.16120005      -2.66085481E-05
   5.17320013      -2.76525225E-05
   5.18520021      -2.83834543E-05
   5.19719982      -2.88686660E-05
   5.20919991      -2.91754332E-05
   5.22119999      -2.93670273E-05
   5.23320007      -2.94992260E-05
   5.24520016      -2.96174821E-05
   5.25719976      -2.97548886E-05
   5.26919985      -2.99310032E-05
   5.28119993      -3.01516011E-05
   5.29320002      -3.04093101E-05
   5.30520010      -3.06850670E-05
   5.31720018      -3.09502611E-05
   5.32919979      -3.11694566E-05
   5.34119987      -3.13034398E-05
   5.35319996      -3.13124619E-05
   5.36520004      -3.11594267E-05
   5.37720013      -3.08128365E-05
   5.38920021      -3.02493463E-05
   5.40119982      -2.94557703E-05
   5.41319990      -2.84304133E-05
   5.42519999      -2.71837071E-05
   5.43720007      -2.57381053E-05
   5.44920015      -2.41272737E-05
   5.46120024      -2.23946281E-05
   5.47319984      -2.05913566E-05
   5.48519993      -1.87740097E-05
   5.49720001      -1.70018338E-05
   5.50920010      -1.53340043E-05
   5.52120018      -1.38268879E-05
   5.53319979      -1.25315055E-05
   5.54519987      -1.14912909E-05
   5.55719995      -1.07402648E-05
   5.56920004      -1.03016855E-05
   5.58120012      -1.01872092E-05
   5.59320021      -1.03965813E-05
   5.60519981      -1.09178354E-05
   5.61719990      -1.17279606E-05
   5.62919998      -1.27939747E-05
   5.64120007      -1.40743341E-05
   5.65320015      -1.55206071E-05
   5.66520023      -1.70793137E-05
   5.67719984      -1.86938669E-05
   5.68919992      -2.03065192E-05
   5.70120001      -2.18602745E-05
   5.71320009      -2.33006740E-05
   5.72520018      -2.45774427E-05
   5.73719978      -2.56459225E-05
   5.74919987      -2.64682894E-05
   5.76119995      -2.70145483E-05
   5.77320004      -2.72632460E-05
   5.78520012      -2.72019479E-05
   5.79720020      -2.68274507E-05
   5.80919981      -2.61457280E-05
   5.82119989      -2.51716247E-05
   5.83319998      -2.39282981E-05
   5.84520006      -2.24464311E-05
   5.85720015      -2.07632092E-05
   5.86920023      -1.89210987E-05
   5.88119984      -1.69664436E-05
   5.89319992      -1.49479429E-05
   5.90520000      -1.29150239E-05
   5.91720009      -1.09161801E-05
   5.92920017      -8.99733823E-06
   5.94119978      -7.20031130E-06
   5.95319986      -5.56140458E-06
   5.96519995      -4.11023075E-06
   5.97720003      -2.86880299E-06
   5.98920012      -1.85093086E-06
   6.00120020      -1.06196546E-06
   6.01319981      -4.98893655E-07
   6.02519989      -1.50786605E-07
   6.03719997       4.26823271E-10
   6.04920006      -2.10939159E-08
   6.06120014      -1.86381698E-07
   6.07320023      -4.63096001E-07
   6.08519983      -8.17027797E-07
   6.09719992      -1.21359847E-06
   6.10920000      -1.61926221E-06
   6.12120008      -2.00274758E-06
   6.13320017      -2.33607125E-06
   6.14519978      -2.59528179E-06
   6.15719986      -2.76091282E-06
   6.16919994      -2.81814209E-06
   6.18120003      -2.75667503E-06
   6.19320011      -2.57039346E-06
   6.20520020      -2.25682106E-06
   6.21719980      -1.81646340E-06
   6.22919989      -1.25209760E-06
   6.24119997      -5.68069709E-07
   6.25320005       2.30332091E-07
   6.26520014       1.13738702E-06
   6.27720022       2.14728743E-06
   6.28919983       3.25430642E-06
   6.30119991       4.45278010E-06
   6.31320000       5.73691568E-06
   6.32520008       7.10046015E-06
   6.33720016       8.53626534E-06
   6.34919977       1.00358111E-05
   6.36119986       1.15887333E-05
   6.37319994       1.31824299E-05
   6.38520002       1.48017834E-05
   6.39720011       1.64290650E-05
   6.40920019       1.80440038E-05
   6.42119980       1.96241072E-05
   6.43319988       2.11451334E-05
   6.44519997       2.25817730E-05
   6.45720005       2.39084675E-05
   6.46920013       2.51003057E-05
   6.48120022       2.61339610E-05
   6.49319983       2.69886114E-05
   6.50519991       2.76467672E-05
   6.51719999       2.80949716E-05
   6.52920008       2.83243171E-05
   6.54120016       2.83307636E-05
   6.55319977       2.81152224E-05
   6.56519985       2.76834435E-05
   6.57719994       2.70456803E-05
   6.58920002       2.62161830E-05
   6.60120010       2.52125847E-05
   6.61320019       2.40551817E-05
   6.62519979       2.27662076E-05
   6.63719988       2.13691292E-05
   6.64919996       1.98879861E-05
   6.66120005       1.83468583E-05
   6.67320013       1.67694143E-05
   6.68520021       1.51785935E-05
   6.69719982       1.35964146E-05
   6.70919991       1.20438590E-05
   6.72119999       1.05408244E-05
   6.73320007       9.10613471E-06
   6.74520016       7.75752960E-06
   6.75719976       6.51164919E-06
   6.76919985       5.38394670E-06
   6.78119993       4.38852931E-06
   6.79320002       3.53791665E-06
   6.80520010       2.84271459E-06
   6.81720018       2.31122362E-06
   6.82919979       1.94901349E-06
   6.84119987       1.75849675E-06
   6.85319996       1.73855290E-06
   6.86520004       1.88424610E-06
   6.87720013       2.18667878E-06
   6.88920021       2.63302422E-06
   6.90119982       3.20674917E-06
   6.91319990       3.88804983E-06
   6.92519999       4.65448238E-06
   6.93720007       5.48177695E-06
   6.94920015       6.34479647E-06
   6.96120024       7.21859760E-06
   6.97319984       8.07952983E-06
   6.98519993       8.90631600E-06
   6.99720001       9.68106269E-06
   7.00920010       1.03901084E-05
   7.02120018       1.10246874E-05
   7.03319979       1.15813391E-05
   7.04519987       1.20620380E-05
   7.05719995       1.24740272E-05
   7.06920004       1.28293595E-05
   7.08120012       1.31441657E-05
   7.09320021       1.34376896E-05
   7.10519981       1.37311417E-05
   7.11719990       1.40464463E-05
   7.12919998       1.44049436E-05
   7.14120007       1.48261161E-05
   7.15320015       1.53264155E-05
   7.16520023       1.59182473E-05
   7.17719984       1.66091595E-05
   7.18919992       1.74012766E-05
   7.20120001       1.82910117E-05
   7.21320009       1.92690350E-05
   7.22520018       2.03205436E-05
   7.23719978       2.14257743E-05
   7.24919987       2.25607582E-05
   7.26119995       2.36982596E-05
   7.27320004       2.48088636E-05
   7.28520012       2.58621512E-05
   7.29720020       2.68279073E-05
   7.30919981       2.76773026E-05
   7.32119989       2.83840109E-05
   7.33319998       2.89251875E-05
   7.34520006       2.92823061E-05
   7.35720015       2.94418060E-05
   7.36920023       2.93955563E-05
   7.38119984       2.91411070E-05
   7.39319992       2.86817431E-05
   7.40520000       2.80263648E-05
   7.41720009       2.71891913E-05
   7.42920017       2.61892947E-05
   7.44119978       2.50500343E-05
   7.45319986       2.37983568E-05
   7.46519995       2.24640262E-05
   7.47720003       2.10787894E-05
   7.48920012       1.96755336E-05
   7.50120020       1.82874210E-05
   7.51319981       1.69470550E-05
   7.52519989       1.56856877E-05
   7.53719997       1.45324830E-05
   7.54920006       1.35138534E-05
   7.56120014       1.26528639E-05
   7.57320023       1.19687265E-05
   7.58519983       1.14763734E-05
   7.59719992       1.11861318E-05
   7.60920000       1.11034879E-05
   7.62120008       1.12289499E-05
   7.63320017       1.15580306E-05
   7.64519978       1.20813356E-05
   7.65719986       1.27847716E-05
   7.66919994       1.36498857E-05
   7.68120003       1.46543125E-05
   7.69320011       1.57723462E-05
   7.70520020       1.69756058E-05
   7.71719980       1.82338154E-05
   7.72919989       1.95156372E-05
   7.74119997       2.07895828E-05
   7.75320005       2.20249512E-05
   7.76520014       2.31927625E-05
   7.77720022       2.42666847E-05
   7.78919983       2.52238970E-05
   7.80119991       2.60458546E-05
   7.81320000       2.67189425E-05
   7.82520008       2.72349444E-05
   7.83720016       2.75913535E-05
   7.84919977       2.77914532E-05
   7.86119986       2.78441676E-05
   7.87319994       2.77636700E-05
   7.88520002       2.75687598E-05
   7.89720011       2.72820271E-05
   7.90920019       2.69288103E-05
   7.92119980       2.65359940E-05
   7.93319988       2.61307287E-05
   7.94519997       2.57390839E-05
   7.95720005       2.53847356E-05
   7.96920013       2.50877620E-05
   7.98120022       2.48636061E-05
   7.99319983       2.47222524E-05
   8.00520039       2.46677228E-05
   8.01720047       2.46978707E-05
   8.02919960       2.48045308E-05
   8.04119968       2.49740151E-05
   8.05319977       2.51879283E-05
   8.06519985       2.54242696E-05
   8.07719994       2.56587573E-05
   8.08920002       2.58662931E-05
   8.10120010       2.60224915E-05
   8.11320019       2.61051846E-05
   8.12520027       2.60957895E-05
   8.13720036       2.59804820E-05
   8.14920044       2.57510783E-05
   8.16119957       2.54055976E-05
   8.17319965       2.49484492E-05
   8.18519974       2.43902705E-05
   8.19719982       2.37473851E-05
   8.20919991       2.30409605E-05
   8.22119999       2.22959170E-05
   8.23320007       2.15396321E-05
   8.24520016       2.08005622E-05
   8.25720024       2.01068378E-05
   8.26920033       1.94849363E-05
   8.28120041       1.89584698E-05
   8.29319954       1.85472072E-05
   8.30519962       1.82662989E-05
   8.31719971       1.81258110E-05
   8.32919979       1.81305149E-05
   8.34119987       1.82799449E-05
   8.35319996       1.85687040E-05
   8.36520004       1.89869661E-05
   8.37720013       1.95211378E-05
   8.38920021       2.01546300E-05
   8.40120029       2.08686852E-05
   8.41320038       2.16432109E-05
   8.42520046       2.24575833E-05
   8.43719959       2.32913662E-05
   8.44919968       2.41249472E-05
   8.46119976       2.49400364E-05
   8.47319984       2.57200463E-05
   8.48519993       2.64503396E-05
   8.49720001       2.71183671E-05
   8.50920010       2.77136987E-05
   8.52120018       2.82279743E-05
   8.53320026       2.86548056E-05
   8.54520035       2.89896398E-05
   8.55720043       2.92295990E-05
   8.56919956       2.93733265E-05
   8.58119965       2.94208385E-05
   8.59319973       2.93733756E-05
   8.60519981       2.92332807E-05
   8.61719990       2.90038697E-05
   8.62919998       2.86893301E-05
   8.64120007       2.82946348E-05
   8.65320015       2.78254502E-05
   8.66520023       2.72880789E-05
   8.67720032       2.66894131E-05
   8.68920040       2.60369052E-05
   8.70119953       2.53385479E-05
   8.71319962       2.46028812E-05
   8.72519970       2.38390112E-05
   8.73719978       2.30566184E-05
   8.74919987       2.22659928E-05
   8.76119995       2.14780357E-05
   8.77320004       2.07042649E-05
   8.78520012       1.99567894E-05
   8.79720020       1.92482366E-05
   8.80920029       1.85916560E-05
   8.82120037       1.80003681E-05
   8.83320045       1.74877368E-05
   8.84519958       1.70669191E-05
   8.85719967       1.67505077E-05
   8.86919975       1.65501533E-05
   8.88119984       1.64761313E-05
   8.89319992       1.65368656E-05
   8.90520000       1.67384405E-05
   8.91720009       1.70841122E-05
   8.92920017       1.75738551E-05
   8.94120026       1.82039621E-05
   8.95320034       1.89667426E-05
   8.96520042       1.98503221E-05
   8.97719955       2.08386173E-05
   8.98919964       2.19114463E-05
   9.00119972       2.30448477E-05
   9.01319981       2.42115584E-05
   9.02519989       2.53816797E-05
   9.03719997       2.65234739E-05
   9.04920006       2.76043102E-05
   9.06120014       2.85916703E-05
   9.07320023       2.94542388E-05
   9.08520031       3.01629716E-05
   9.09720039       3.06921538E-05
   9.10919952       3.10203759E-05
   9.12119961       3.11314107E-05
   9.13319969       3.10149226E-05
   9.14519978       3.06669972E-05
   9.15719986       3.00904649E-05
   9.16919994       2.92949790E-05
   9.18120003       2.82968394E-05
   9.19320011       2.71185872E-05
   9.20520020       2.57883730E-05
   9.21720028       2.43391078E-05
   9.22920036       2.28074659E-05
   9.24120045       2.12327686E-05
   9.25319958       1.96557703E-05
   9.26519966       1.81174491E-05
   9.27719975       1.66577775E-05
   9.28919983       1.53145666E-05
   9.30119991       1.41223736E-05
   9.31320000       1.31115321E-05
   9.32520008       1.23073160E-05
   9.33720016       1.17292529E-05
   9.34920025       1.13906144E-05
   9.36120033       1.12980724E-05
   9.37320042       1.14515524E-05
   9.38519955       1.18442667E-05
   9.39719963       1.24629232E-05
   9.40919971       1.32881260E-05
   9.42119980       1.42949339E-05
   9.43319988       1.54535828E-05
   9.44519997       1.67303533E-05
