 -0.622799993         1.00000002E-24
 -0.610800028         1.00000002E-24
 -0.598800004         1.00000002E-24
 -0.586799979         1.00000002E-24
 -0.574800014         1.24812705E-24
 -0.562799990         3.03424185E-24
 -0.550800025         3.73443952E-24
 -0.538800001        -3.51572555E-23
 -0.526799977        -2.69991040E-22
 -0.514800012        -1.08303186E-21
 -0.502799988        -3.10256505E-21
 -0.490799993        -6.98451599E-21
 -0.478799999        -1.29696653E-20
 -0.466800004        -2.06244658E-20
 -0.454800010        -2.95215591E-20
 -0.442799985        -4.13716322E-20
 -0.430799991        -6.28742310E-20
 -0.418799996        -1.06683681E-19
 -0.406800002        -1.86883055E-19
 -0.394800007        -3.07272007E-19
 -0.382800013        -4.46567206E-19
 -0.370799989        -5.52250386E-19
 -0.358799994        -5.58663672E-19
 -0.346799999        -4.38091913E-19
 -0.334800005        -2.72843018E-19
 -0.322800010        -3.07936853E-19
 -0.310799986        -9.25249388E-19
 -0.298799992        -2.49319412E-18
 -0.286799997        -5.10475697E-18
 -0.274800003        -8.30943209E-18
 -0.262800008        -1.10271166E-17
 -0.250800014        -1.18385634E-17
 -0.238800004        -9.72316317E-18
 -0.226799995        -5.06164390E-18
 -0.214800000        -4.26385369E-19
 -0.202800006        -5.11843026E-19
 -0.190799996        -1.06934667E-17
 -0.178800002        -3.42370320E-17
 -0.166800007        -6.90094484E-17
 -0.154799998        -1.05333709E-16
 -0.142800003        -1.26902291E-16
 -0.130799994        -1.15988496E-16
 -0.118799999        -6.24731930E-17
 -0.106799997         2.61341858E-17
  -9.48000029E-02     1.18491121E-16
  -8.28000009E-02     1.62264950E-16
  -7.07999989E-02     9.91705579E-17
  -5.88000007E-02    -1.09289266E-16
  -4.67999987E-02    -4.52848272E-16
  -3.48000005E-02    -8.52663387E-16
  -2.28000004E-02    -1.16413222E-15
  -1.08000003E-02    -1.21097791E-15
   1.20000006E-03    -8.48495614E-16
   1.31999999E-02    -3.99260825E-17
   2.52000000E-02     1.08201662E-15
   3.72000001E-02     2.20038174E-15
   4.91999984E-02     2.86939357E-15
   6.12000003E-02     2.64211832E-15
   7.32000023E-02     1.24338412E-15
   8.51999968E-02    -1.26596973E-15
   9.71999988E-02    -4.40032261E-15
  0.109200001        -7.29239633E-15
  0.121200003        -8.88898652E-15
  0.133200005        -8.26689164E-15
  0.145199999        -4.98311855E-15
  0.157199994         6.59264272E-16
  0.169200003         7.54252516E-15
  0.181199998         1.39257748E-14
  0.193200007         1.78758782E-14
  0.205200002         1.78265588E-14
  0.217199996         1.30916828E-14
  0.229200006         4.15331806E-15
  0.241200000        -7.39127218E-15
  0.253199995        -1.92223235E-14
  0.265199989        -2.88986296E-14
  0.277200013        -3.44468242E-14
  0.289200008        -3.47165805E-14
  0.301200002        -2.93797884E-14
  0.313199997        -1.86256074E-14
  0.325199991        -2.78087121E-15
  0.337199986         1.78224812E-14
  0.349200010         4.24764661E-14
  0.361200005         6.92038318E-14
  0.373199999         9.36698771E-14
  0.385199994         1.08542766E-13
  0.397199988         1.04059495E-13
  0.409200013         7.03297758E-14
  0.421200007         1.31727779E-15
  0.433200002        -1.00392872E-13
  0.445199996        -2.19721756E-13
  0.457199991        -3.28185883E-13
  0.469199985        -3.87682047E-13
  0.481200010        -3.59528054E-13
  0.493200004        -2.17485643E-13
  0.505200028         3.85005070E-14
  0.517199993         3.72538697E-13
  0.529200017         7.11835376E-13
  0.541199982         9.57791463E-13
  0.553200006         1.00915457E-12
  0.565199971         7.93053719E-13
  0.577199996         2.95869666E-13
  0.589200020        -4.16225241E-13
  0.601199985        -1.19641547E-12
  0.613200009        -1.84126716E-12
  0.625199974        -2.13794824E-12
  0.637199998        -1.92509962E-12
  0.649200022        -1.15140406E-12
  0.661199987         8.66754314E-14
  0.673200011         1.54361994E-12
  0.685199976         2.86728605E-12
  0.697200000         3.68009876E-12
  0.709200025         3.68138072E-12
  0.721199989         2.74391490E-12
  0.733200014         9.75469705E-13
  0.745199978        -1.27777856E-12
  0.757200003        -3.49489903E-12
  0.769200027        -5.10130566E-12
  0.781199992        -5.61966923E-12
  0.793200016        -4.81112285E-12
  0.805199981        -2.76571973E-12
  0.817200005         8.86292857E-14
  0.829200029         3.06933255E-12
  0.841199994         5.40004846E-12
  0.853200018         6.41210305E-12
  0.865199983         5.73498323E-12
  0.877200007         3.42365567E-12
  0.889199972        -1.60661584E-14
  0.901199996        -3.71820586E-12
  0.913200021        -6.64778432E-12
  0.925199986        -7.85013894E-12
  0.937200010        -6.69934507E-12
  0.949199975        -3.08449924E-12
  0.961199999         2.51416422E-12
  0.973200023         9.08225925E-12
  0.985199988         1.52534287E-11
  0.997200012         1.95800910E-11
   1.00919998         2.08358140E-11
   1.02119994         1.82859301E-11
   1.03320003         1.18704629E-11
   1.04519999         2.26269199E-12
   1.05719995        -9.20773440E-12
   1.06920004        -2.07530278E-11
   1.08120000        -3.04146396E-11
   1.09319997        -3.64015484E-11
   1.10520005        -3.74476908E-11
   1.11720002        -3.31754346E-11
   1.12919998        -2.44767123E-11
   1.14119995        -1.39442164E-11
   1.15320003        -6.39334852E-12
   1.16520000        -9.51705728E-12
   1.17719996        -3.46788570E-11
   1.18920004        -9.78177608E-11
   1.20120001        -2.20386126E-10
   1.21319997        -4.30200681E-10
   1.22520006        -7.62107433E-10
   1.23720002        -1.25835531E-09
   1.24919999        -1.96873873E-09
   1.26119995        -2.95068570E-09
   1.27320004        -4.26974500E-09
   1.28520000        -6.00110184E-09
   1.29719996        -8.23321056E-09
   1.30920005        -1.10746647E-08
   1.32120001        -1.46658703E-08
   1.33319998        -1.91971896E-08
   1.34519994        -2.49351313E-08
   1.35720003        -3.22587006E-08
   1.36919999        -4.17069579E-08
   1.38119996        -5.40398339E-08
   1.39320004        -7.03122538E-08
   1.40520000        -9.19625620E-08
   1.41719997        -1.20913867E-07
   1.42920005        -1.59687048E-07
   1.44120002        -2.11521595E-07
   1.45319998        -2.80500018E-07
   1.46519995        -3.71670012E-07
   1.47720003        -4.91155504E-07
   1.48920000        -6.46248964E-07
   1.50119996        -8.45473892E-07
   1.51320004        -1.09860787E-06
   1.52520001        -1.41665635E-06
   1.53719997        -1.81176677E-06
   1.54920006        -2.29707689E-06
   1.56120002        -2.88648630E-06
   1.57319999        -3.59435899E-06
   1.58519995        -4.43514318E-06
   1.59720004        -5.42292628E-06
   1.60920000        -6.57092551E-06
   1.62119997        -7.89092974E-06
   1.63320005        -9.39270922E-06
   1.64520001        -1.10834126E-05
   1.65719998        -1.29669870E-05
   1.66919994        -1.50436263E-05
   1.68120003        -1.73092812E-05
   1.69319999        -1.97552836E-05
   1.70519996        -2.23680636E-05
   1.71720004        -2.51290330E-05
   1.72920001        -2.80146123E-05
   1.74119997        -3.09964453E-05
   1.75320005        -3.40417937E-05
   1.76520002        -3.71140959E-05
   1.77719998        -4.01737561E-05
   1.78919995        -4.31790468E-05
   1.80120003        -4.60871888E-05
   1.81320000        -4.88555270E-05
   1.82519996        -5.14428102E-05
   1.83720005        -5.38104650E-05
   1.84920001        -5.59239015E-05
   1.86119998        -5.77537357E-05
   1.87320006        -5.92768884E-05
   1.88520002        -6.04775378E-05
   1.89719999        -6.13478696E-05
   1.90919995        -6.18885242E-05
   1.92120004        -6.21088257E-05
   1.93320000        -6.20266364E-05
   1.94519997        -6.16679827E-05
   1.95720005        -6.10662755E-05
   1.96920002        -6.02612636E-05
   1.98119998        -5.92977740E-05
   1.99319994        -5.82241591E-05
   2.00519991        -5.70906413E-05
   2.01719999        -5.59475338E-05
   2.02920008        -5.48434618E-05
   2.04119992        -5.38236709E-05
   2.05320001        -5.29284334E-05
   2.06520009        -5.21917245E-05
   2.07719994        -5.16401378E-05
   2.08920002        -5.12921870E-05
   2.10120010        -5.11578983E-05
   2.11319995        -5.12388833E-05
   2.12520003        -5.15287102E-05
   2.13720012        -5.20136891E-05
   2.14919996        -5.26739386E-05
   2.16120005        -5.34847240E-05
   2.17319989        -5.44180039E-05
   2.18519998        -5.54440376E-05
   2.19720006        -5.65330738E-05
   2.20919991        -5.76569255E-05
   2.22119999        -5.87904178E-05
   2.23320007        -5.99126433E-05
   2.24519992        -6.10079260E-05
   2.25720000        -6.20664432E-05
   2.26920009        -6.30845752E-05
   2.28119993        -6.40648286E-05
   2.29320002        -6.50154761E-05
   2.30520010        -6.59498619E-05
   2.31719995        -6.68854263E-05
   2.32920003        -6.78426077E-05
   2.34120011        -6.88434593E-05
   2.35319996        -6.99103402E-05
   2.36520004        -7.10645108E-05
   2.37719989        -7.23248304E-05
   2.38919997        -7.37065930E-05
   2.40120006        -7.52205378E-05
   2.41319990        -7.68720856E-05
   2.42519999        -7.86608434E-05
   2.43720007        -8.05804011E-05
   2.44919991        -8.26184187E-05
   2.46120000        -8.47569390E-05
   2.47320008        -8.69730211E-05
   2.48519993        -8.92395619E-05
   2.49720001        -9.15263372E-05
   2.50920010        -9.38011872E-05
   2.52119994        -9.60312536E-05
   2.53320003        -9.81843623E-05
   2.54520011        -1.00230282E-04
   2.55719995        -1.02142047E-04
   2.56920004        -1.03897117E-04
   2.58119988        -1.05478415E-04
   2.59319997        -1.06875188E-04
   2.60520005        -1.08083623E-04
   2.61719990        -1.09107277E-04
   2.62919998        -1.09957167E-04
   2.64120007        -1.10651592E-04
   2.65319991        -1.11215675E-04
   2.66520000        -1.11680543E-04
   2.67720008        -1.12082249E-04
   2.68919992        -1.12460351E-04
   2.70120001        -1.12856229E-04
   2.71320009        -1.13311187E-04
   2.72519994        -1.13864291E-04
   2.73720002        -1.14550130E-04
   2.74920011        -1.15396520E-04
   2.76119995        -1.16422169E-04
   2.77320004        -1.17634489E-04
   2.78520012        -1.19027551E-04
   2.79719996        -1.20580502E-04
   2.80920005        -1.22256155E-04
   2.82119989        -1.24000275E-04
   2.83319998        -1.25741251E-04
   2.84520006        -1.27390565E-04
   2.85719991        -1.28843705E-04
   2.86919999        -1.29982043E-04
   2.88120008        -1.30675035E-04
   2.89319992        -1.30783330E-04
   2.90520000        -1.30162283E-04
   2.91720009        -1.28665983E-04
   2.92919993        -1.26151557E-04
   2.94120002        -1.22483747E-04
   2.95320010        -1.17539508E-04
   2.96519995        -1.11212554E-04
   2.97720003        -1.03417558E-04
   2.98920012        -9.40940372E-05
   3.00119996        -8.32096557E-05
   3.01320004        -7.07628715E-05
   3.02519989        -5.67848329E-05
   3.03719997        -4.13404050E-05
   3.04920006        -2.45283427E-05
   3.06119990        -6.48053947E-06
   3.07319999         1.26396162E-05
   3.08520007         3.26397530E-05
   3.09719992         5.33018938E-05
   3.10920000         7.43864221E-05
   3.12120008         9.56367730E-05
   3.13319993         1.16784613E-04
   3.14520001         1.37555311E-04
   3.15720010         1.57673683E-04
   3.16919994         1.76869813E-04
   3.18120003         1.94884735E-04
   3.19320011         2.11476028E-04
   3.20519996         2.26422853E-04
   3.21720004         2.39530724E-04
   3.22919989         2.50635640E-04
   3.24119997         2.59607332E-04
   3.25320005         2.66352086E-04
   3.26519990         2.70814460E-04
   3.27719998         2.72978301E-04
   3.28920007         2.72866717E-04
   3.30119991         2.70541408E-04
   3.31320000         2.66101008E-04
   3.32520008         2.59678694E-04
   3.33719993         2.51438876E-04
   3.34920001         2.41573594E-04
   3.36120009         2.30298028E-04
   3.37319994         2.17845765E-04
   3.38520002         2.04463562E-04
   3.39720011         1.90406034E-04
   3.40919995         1.75930181E-04
   3.42120004         1.61289921E-04
   3.43319988         1.46730861E-04
   3.44519997         1.32485249E-04
   3.45720005         1.18767319E-04
   3.46919990         1.05769148E-04
   3.48119998         9.36570432E-05
   3.49320006         8.25685929E-05
   3.50519991         7.26104772E-05
   3.51719999         6.38570200E-05
   3.52920008         5.63495996E-05
   3.54119992         5.00969327E-05
   3.55320001         4.50761945E-05
   3.56520009         4.12350128E-05
   3.57719994         3.84942614E-05
   3.58920002         3.67516150E-05
   3.60120010         3.58857251E-05
   3.61319995         3.57609679E-05
   3.62520003         3.62325627E-05
   3.63720012         3.71518981E-05
   3.64919996         3.83719234E-05
   3.66120005         3.97523800E-05
   3.67319989         4.11646288E-05
   3.68519998         4.24959799E-05
   3.69720006         4.36532355E-05
   3.70919991         4.45653714E-05
   3.72119999         4.51851738E-05
   3.73320007         4.54898218E-05
   3.74519992         4.54803267E-05
   3.75720000         4.51798951E-05
   3.76920009         4.46312661E-05
   3.78119993         4.38931747E-05
   3.79320002         4.30361033E-05
   3.80520010         4.21375262E-05
   3.81719995         4.12768786E-05
   3.82920003         4.05305364E-05
   3.84120011         3.99669989E-05
   3.85319996         3.96425967E-05
   3.86520004         3.95978823E-05
   3.87719989         3.98549200E-05
   3.88919997         4.04156453E-05
   3.90120006         4.12612935E-05
   3.91319990         4.23529928E-05
   3.92519999         4.36334813E-05
   3.93720007         4.50298212E-05
   3.94919991         4.64569712E-05
   3.96120000         4.78220427E-05
   3.97320008         4.90290258E-05
   3.98519993         4.99837297E-05
   3.99720001         5.05986573E-05
   4.00920010         5.07976802E-05
   4.02120018         5.05201751E-05
   4.03319979         4.97244764E-05
   4.04519987         4.83904914E-05
   4.05719995         4.65213197E-05
   4.06920004         4.41438206E-05
   4.08120012         4.13081361E-05
   4.09320021         3.80861420E-05
   4.10519981         3.45689732E-05
   4.11719990         3.08636772E-05
   4.12919998         2.70892178E-05
   4.14120007         2.33719966E-05
   4.15320015         1.98410726E-05
   4.16520023         1.66233149E-05
   4.17719984         1.38386695E-05
   4.18919992         1.15957191E-05
   4.20120001         9.98772521E-06
   4.21320009         9.08926722E-06
   4.22520018         8.95358153E-06
   4.23719978         9.61070782E-06
   4.24919987         1.10664432E-05
   4.26119995         1.33021413E-05
   4.27320004         1.62753222E-05
   4.28520012         1.99210263E-05
   4.29720020         2.41538601E-05
   4.30919981         2.88705942E-05
   4.32119989         3.39532635E-05
   4.33319998         3.92725742E-05
   4.34520006         4.46915619E-05
   4.35720015         5.00693641E-05
   4.36920023         5.52649944E-05
   4.38119984         6.01410356E-05
   4.39319992         6.45671753E-05
   4.40520000         6.84234328E-05
   4.41720009         7.16031864E-05
   4.42920017         7.40157266E-05
   4.44119978         7.55884685E-05
   4.45319986         7.62686759E-05
   4.46519995         7.60247349E-05
   4.47720003         7.48469829E-05
   4.48920012         7.27479273E-05
   4.50120020         6.97620999E-05
   4.51319981         6.59453581E-05
   4.52519989         6.13736775E-05
   4.53719997         5.61415582E-05
   4.54920006         5.03599222E-05
   4.56120014         4.41536686E-05
   4.57320023         3.76587923E-05
   4.58519983         3.10192481E-05
   4.59719992         2.43834911E-05
   4.60920000         1.79008730E-05
   4.62120008         1.17179034E-05
   4.63320017         5.97449616E-06
   4.64519978         8.00292526E-07
   4.65719986        -3.68884844E-06
   4.66919994        -7.39407824E-06
   4.68120003        -1.02364265E-05
   4.69320011        -1.21591929E-05
   4.70520020        -1.31298038E-05
   4.71719980        -1.31410416E-05
   4.72919989        -1.22116007E-05
   4.74119997        -1.03859084E-05
   4.75320005        -7.73321153E-06
   4.76520014        -4.34590902E-06
   4.77720022        -3.37160344E-07
   4.78919983         4.16218700E-06
   4.80119991         9.00726991E-06
   4.81320000         1.40433895E-05
   4.82520008         1.91105846E-05
   4.83720016         2.40484460E-05
   4.84919977         2.87010243E-05
   4.86119986         3.29216782E-05
   4.87319994         3.65776723E-05
   4.88520002         3.95543648E-05
   4.89720011         4.17588381E-05
   4.90920019         4.31228073E-05
   4.92119980         4.36046721E-05
   4.93319988         4.31906592E-05
   4.94519997         4.18949276E-05
   4.95720005         3.97586737E-05
   4.96920013         3.68482360E-05
   4.98120022         3.32522286E-05
   4.99319983         2.90778735E-05
   5.00519991         2.44466155E-05
   5.01719999         1.94892564E-05
   5.02920008         1.43407706E-05
   5.04120016         9.13504755E-06
   5.05319977         3.99981218E-06
   5.06519985        -9.48088712E-07
   5.07719994        -5.60678063E-06
   5.08920002        -9.89267483E-06
   5.10120010        -1.37428406E-05
   5.11320019        -1.71163283E-05
   5.12519979        -1.99944116E-05
   5.13719988        -2.23797397E-05
   5.14919996        -2.42944843E-05
   5.16120005        -2.57775864E-05
   5.17320013        -2.68812928E-05
   5.18520021        -2.76671744E-05
   5.19719982        -2.82018646E-05
   5.20919991        -2.85527585E-05
   5.22119999        -2.87839230E-05
   5.23320007        -2.89524251E-05
   5.24520016        -2.91052893E-05
   5.25719976        -2.92772256E-05
   5.26919985        -2.94892579E-05
   5.28119993        -2.97482784E-05
   5.29320002        -3.00475458E-05
   5.30520010        -3.03680736E-05
   5.31720018        -3.06807669E-05
   5.32919979        -3.09492025E-05
   5.34119987        -3.11328076E-05
   5.35319996        -3.11902404E-05
   5.36520004        -3.10827745E-05
   5.37720013        -3.07774390E-05
   5.38920021        -3.02497210E-05
   5.40119982        -2.94857091E-05
   5.41319990        -2.84835223E-05
   5.42519999        -2.72539655E-05
   5.43720007        -2.58204145E-05
   5.44920015        -2.42179285E-05
   5.46120024        -2.24916985E-05
   5.47319984        -2.06949044E-05
   5.48519993        -1.88861541E-05
   5.49720001        -1.71266529E-05
   5.50920010        -1.54772551E-05
   5.52120018        -1.39955982E-05
   5.53319979        -1.27334415E-05
   5.54519987        -1.17343752E-05
   5.55719995        -1.10319752E-05
   5.56920004        -1.06485049E-05
   5.58120012        -1.05941735E-05
   5.59320021        -1.08669683E-05
   5.60519981        -1.14530112E-05
   5.61719990        -1.23273967E-05
   5.62919998        -1.34554211E-05
   5.64120007        -1.47941137E-05
   5.65320015        -1.62939959E-05
   5.66520023        -1.79009530E-05
   5.67719984        -1.95581488E-05
   5.68919992        -2.12079176E-05
   5.70120001        -2.27935489E-05
   5.71320009        -2.42609422E-05
   5.72520018        -2.55600862E-05
   5.73719978        -2.66463339E-05
   5.74919987        -2.74814920E-05
   5.76119995        -2.80346885E-05
   5.77320004        -2.82830515E-05
   5.78520012        -2.82122000E-05
   5.79720020        -2.78165444E-05
   5.80919981        -2.70994096E-05
   5.82119989        -2.60729576E-05
   5.83319998        -2.47579192E-05
   5.84520006        -2.31830982E-05
   5.85720015        -2.13846597E-05
   5.86920023        -1.94051700E-05
   5.88119984        -1.72924101E-05
   5.89319992        -1.50979749E-05
   5.90520000        -1.28756737E-05
   5.91720009        -1.06797997E-05
   5.92920017        -8.56330007E-06
   5.94119978        -6.57594228E-06
   5.95319986        -4.76253035E-06
   5.96519995        -3.16126079E-06
   5.97720003        -1.80229756E-06
   5.98920012        -7.06642993E-07
   6.00120020         1.14632854E-07
   6.01319981         6.60750970E-07
   6.02519989         9.41141252E-07
   6.03719997         9.74905902E-07
   6.04920006         7.89856529E-07
   6.06120014         4.21157495E-07
   6.07320023        -9.03408619E-08
   6.08519983        -6.99996974E-07
   6.09719992        -1.36139124E-06
   6.10920000        -2.02834099E-06
   6.12120008        -2.65681274E-06
   6.13320017        -3.20662070E-06
   6.14519978        -3.64283392E-06
   6.15719986        -3.93682149E-06
   6.16919994        -4.06691015E-06
   6.18120003        -4.01863190E-06
   6.19320011        -3.78458435E-06
   6.20520020        -3.36394919E-06
   6.21719980        -2.76172318E-06
   6.22919989        -1.98774023E-06
   6.24119997        -1.05556978E-06
   6.25320005         1.86198736E-08
   6.26520014         1.21714777E-06
   6.27720022         2.52178620E-06
   6.28919983         3.91454250E-06
   6.30119991         5.37822007E-06
   6.31320000         6.89673834E-06
   6.32520008         8.45521936E-06
   6.33720016         1.00398629E-05
   6.34919977         1.16376605E-05
   6.36119986         1.32359919E-05
   6.37319994         1.48221861E-05
   6.38520002         1.63830937E-05
   6.39720011         1.79047383E-05
   6.40920019         1.93720953E-05
   6.42119980         2.07690300E-05
   6.43319988         2.20784132E-05
   6.44519997         2.32824113E-05
   6.45720005         2.43629438E-05
   6.46920013         2.53022536E-05
   6.48120022         2.60835841E-05
   6.49319983         2.66918851E-05
   6.50519991         2.71145127E-05
   6.51719999         2.73418555E-05
   6.52920008         2.73678652E-05
   6.54120016         2.71904282E-05
   6.55319977         2.68115709E-05
   6.56519985         2.62374706E-05
   6.57719994         2.54782899E-05
   6.58920002         2.45478386E-05
   6.60120010         2.34631007E-05
   6.61320019         2.22436556E-05
   6.62519979         2.09110549E-05
   6.63719988         1.94881850E-05
   6.64919996         1.79986491E-05
   6.66120005         1.64662179E-05
   6.67320013         1.49143598E-05
   6.68520021         1.33658614E-05
   6.69719982         1.18425323E-05
   6.70919991         1.03650082E-05
   6.72119999         8.95260382E-06
   6.73320007         7.62322497E-06
   6.74520016         6.39330210E-06
   6.75719976         5.27771817E-06
   6.76919985         4.28973317E-06
   6.78119993         3.44085379E-06
   6.79320002         2.74067384E-06
   6.80520010         2.19665071E-06
   6.81720018         1.81385246E-06
   6.82919979         1.59468414E-06
   6.84119987         1.53861697E-06
   6.85319996         1.64196570E-06
   6.86520004         1.89774494E-06
   6.87720013         2.29563761E-06
   6.88920021         2.82210067E-06
   6.90119982         3.46062825E-06
   6.91319990         4.19217713E-06
   6.92519999         4.99574162E-06
   6.93720007         5.84905911E-06
   6.94920015         6.72942406E-06
   6.96120024         7.61455976E-06
   6.97319984         8.48351829E-06
   6.98519993         9.31755403E-06
   6.99720001         1.01009282E-05
   7.00920010         1.08215954E-05
   7.02120018         1.14717386E-05
   7.03319979         1.20480981E-05
   7.04519987         1.25520855E-05
   7.05719995         1.29896662E-05
   7.06920004         1.33709982E-05
   7.08120012         1.37098532E-05
   7.09320021         1.40228458E-05
   7.10519981         1.43285060E-05
   7.11719990         1.46462462E-05
   7.12919998         1.49952893E-05
   7.14120007         1.53935871E-05
   7.15320015         1.58568037E-05
   7.16520023         1.63974019E-05
   7.17719984         1.70238691E-05
   7.18919992         1.77401325E-05
   7.20120001         1.85451645E-05
   7.21320009         1.94328168E-05
   7.22520018         2.03918771E-05
   7.23719978         2.14063512E-05
   7.24919987         2.24559681E-05
   7.26119995         2.35168773E-05
   7.27320004         2.45625124E-05
   7.28520012         2.55645864E-05
   7.29720020         2.64941755E-05
   7.30919981         2.73228416E-05
   7.32119989         2.80237437E-05
   7.33319998         2.85727110E-05
   7.34520006         2.89491782E-05
   7.35720015         2.91370379E-05
   7.36920023         2.91252782E-05
   7.38119984         2.89084710E-05
   7.39319992         2.84870312E-05
   7.40520000         2.78672796E-05
   7.41720009         2.70613000E-05
   7.42920017         2.60865982E-05
   7.44119978         2.49655841E-05
   7.45319986         2.37248769E-05
   7.46519995         2.23945081E-05
   7.47720003         2.10069975E-05
   7.48920012         1.95963948E-05
   7.50120020         1.81972791E-05
   7.51319981         1.68437709E-05
   7.52519989         1.55686157E-05
   7.53719997         1.44023097E-05
   7.54920006         1.33723643E-05
   7.56120014         1.25026536E-05
   7.57320023         1.18129055E-05
   7.58519983         1.13183123E-05
   7.59719992         1.10292567E-05
   7.60920000         1.09511702E-05
   7.62120008         1.10844830E-05
   7.63320017         1.14246959E-05
   7.64519978         1.19625329E-05
   7.65719986         1.26841951E-05
   7.66919994         1.35716964E-05
   7.68120003         1.46032780E-05
   7.69320011         1.57539089E-05
   7.70520020         1.69958475E-05
   7.71719980         1.82992899E-05
   7.72919989         1.96330693E-05
   7.74119997         2.09654281E-05
   7.75320005         2.22648414E-05
   7.76520014         2.35008902E-05
   7.77720022         2.46451418E-05
   7.78919983         2.56720468E-05
   7.80119991         2.65597937E-05
   7.81320000         2.72911166E-05
   7.82520008         2.78539701E-05
   7.83720016         2.82420660E-05
   7.84919977         2.84552225E-05
   7.86119986         2.84994876E-05
   7.87319994         2.83870049E-05
   7.88520002         2.81356097E-05
   7.89720011         2.77681520E-05
   7.90920019         2.73115675E-05
   7.92119980         2.67956966E-05
   7.93319988         2.62519316E-05
   7.94519997         2.57117190E-05
   7.95720005         2.52050104E-05
   7.96920013         2.47587413E-05
   7.98120022         2.43954146E-05
   7.99319983         2.41319012E-05
   8.00520039         2.39785131E-05
   8.01720047         2.39384281E-05
   8.02919960         2.40075115E-05
   8.04119968         2.41745638E-05
   8.05319977         2.44219791E-05
   8.06519985         2.47267835E-05
   8.07719994         2.50620178E-05
   8.08920002         2.53983508E-05
   8.10120010         2.57058418E-05
   8.11320019         2.59557746E-05
   8.12520027         2.61223904E-05
   8.13720036         2.61844580E-05
   8.14920044         2.61265832E-05
   8.16119957         2.59401368E-05
   8.17319965         2.56238054E-05
   8.18519974         2.51836736E-05
   8.19719982         2.46328837E-05
   8.20919991         2.39908768E-05
   8.22119999         2.32822822E-05
   8.23320007         2.25355216E-05
   8.24520016         2.17812394E-05
   8.25720024         2.10506387E-05
   8.26920033         2.03738618E-05
   8.28120041         1.97784721E-05
   8.29319954         1.92881544E-05
   8.30519962         1.89216807E-05
   8.31719971         1.86922025E-05
   8.32919979         1.86068755E-05
   8.34119987         1.86668403E-05
   8.35319996         1.88675003E-05
   8.36520004         1.91991094E-05
   8.37720013         1.96475430E-05
   8.38920021         2.01952644E-05
   8.40120029         2.08223719E-05
   8.41320038         2.15076561E-05
   8.42520046         2.22296385E-05
   8.43719959         2.29674915E-05
   8.44919968         2.37018376E-05
   8.46119976         2.44153471E-05
   8.47319984         2.50931753E-05
   8.48519993         2.57231895E-05
   8.49720001         2.62959984E-05
   8.50920010         2.68048461E-05
   8.52120018         2.72453453E-05
   8.53320026         2.76151277E-05
   8.54520035         2.79134238E-05
   8.55720043         2.81406374E-05
   8.56919956         2.82979126E-05
   8.58119965         2.83867830E-05
   8.59319973         2.84088528E-05
   8.60519981         2.83655954E-05
   8.61719990         2.82582150E-05
   8.62919998         2.80876229E-05
   8.64120007         2.78544867E-05
   8.65320015         2.75593702E-05
   8.66520023         2.72029047E-05
   8.67720032         2.67860432E-05
   8.68920040         2.63103193E-05
   8.70119953         2.57781176E-05
   8.71319962         2.51929505E-05
   8.72519970         2.45597003E-05
   8.73719978         2.38848061E-05
   8.74919987         2.31764079E-05
   8.76119995         2.24443993E-05
   8.77320004         2.17003962E-05
   8.78520012         2.09576028E-05
   8.79720020         2.02306110E-05
   8.80920029         1.95350694E-05
   8.82120037         1.88873073E-05
   8.83320045         1.83038755E-05
   8.84519958         1.78010469E-05
   8.85719967         1.73942717E-05
   8.86919975         1.70976327E-05
   8.88119984         1.69232953E-05
   8.89319992         1.68809856E-05
   8.90520000         1.69775067E-05
   8.91720009         1.72163291E-05
   8.92920017         1.75972509E-05
   8.94120026         1.81161759E-05
   8.95320034         1.87650021E-05
   8.96520042         1.95316534E-05
   8.97719955         2.04002372E-05
   8.98919964         2.13513576E-05
   9.00119972         2.23625429E-05
   9.01319981         2.34088111E-05
   9.02519989         2.44633102E-05
   9.03719997         2.54980569E-05
   9.04920006         2.64847167E-05
   9.06120014         2.73954065E-05
   9.07320023         2.82035126E-05
   9.08520031         2.88844622E-05