 -0.622799993         1.00000002E-24
 -0.610800028         1.00000002E-24
 -0.598800004         1.00000002E-24
 -0.586799979         1.00000002E-24
 -0.574800014         1.00000002E-24
 -0.562799990         1.00000002E-24
 -0.550800025         1.00000002E-24
 -0.538800001         1.00000002E-24
 -0.526799977         1.00000002E-24
 -0.514800012         1.00000012E-24
 -0.502799988         1.00000022E-24
 -0.490799993         1.00000032E-24
 -0.478799999         1.00000041E-24
 -0.466800004         1.00000041E-24
 -0.454800010         1.00000041E-24
 -0.442799985         1.00000041E-24
 -0.430799991         1.00000041E-24
 -0.418799996         1.00000032E-24
 -0.406800002         1.00000022E-24
 -0.394800007         1.00000022E-24
 -0.382800013         1.00000012E-24
 -0.370799989         1.00000002E-24
 -0.358799994         9.99999921E-25
 -0.346799999         9.99999921E-25
 -0.334800005         9.99999822E-25
 -0.322800010         9.99999822E-25
 -0.310799986         9.99999724E-25
 -0.298799992         9.99999724E-25
 -0.286799997         9.99999822E-25
 -0.274800003         9.99999822E-25
 -0.262800008         9.99999724E-25
 -0.250800014         9.99999724E-25
 -0.238800004         9.99999822E-25
 -0.226799995         1.00000012E-24
 -0.214800000         1.00000071E-24
 -0.202800006         1.00000199E-24
 -0.190799996         1.00000337E-24
 -0.178800002         1.00000436E-24
 -0.166800007         1.00000387E-24
 -0.154799998         1.00000081E-24
 -0.142800003         9.99994793E-25
 -0.130799994         9.99985919E-25
 -0.118799999         9.99973889E-25
 -0.106799997         9.99956829E-25
  -9.48000029E-02     9.99930698E-25
  -8.28000009E-02     9.99895495E-25
  -7.07999989E-02     9.99870548E-25
  -5.88000007E-02     9.99917386E-25
  -4.67999987E-02     1.00015395E-24
  -3.48000005E-02     1.00073021E-24
  -2.28000004E-02     1.00172526E-24
  -1.08000003E-02     1.00295046E-24
   1.20000006E-03     1.00370490E-24
   1.31999999E-02     1.00263127E-24
   2.52000000E-02     9.97919793E-25
   3.72000001E-02     9.88128649E-25
   4.91999984E-02     9.73725232E-25
   6.12000003E-02     9.59046601E-25
   7.32000023E-02     9.53764192E-25
   8.51999968E-02     9.72341077E-25
   9.71999988E-02     1.02979007E-24
  0.109200001         1.13276284E-24
  0.121200003         1.26699167E-24
  0.133200005         1.38523985E-24
  0.145199999         1.40333780E-24
  0.157199994         1.21384069E-24
  0.169200003         7.25026084E-25
  0.181199998        -7.46763035E-26
  0.193200007        -1.04059234E-24
  0.205200002        -1.81527366E-24
  0.217199996        -1.83722175E-24
  0.229200006        -4.62080551E-25
  0.241200000         2.77835292E-24
  0.253199995         7.80512548E-24
  0.265199989         1.36103844E-23
  0.277200013         1.80449487E-23
  0.289200008         1.80003228E-23
  0.301200002         1.01764445E-23
  0.313199997        -7.52267699E-24
  0.325199991        -3.41914878E-23
  0.337199986        -6.42857267E-23
  0.349200010        -8.69967986E-23
  0.361200005        -8.75671956E-23
  0.373199999        -5.11814754E-23
  0.385199994         3.06899109E-23
  0.397199988         1.52765754E-22
  0.409200013         2.89777716E-22
  0.421200007         3.95050182E-22
  0.433200002         4.07156357E-22
  0.445199996         2.66431902E-22
  0.457199991        -5.99838978E-23
  0.469199985        -5.50120798E-22
  0.481200010        -1.10584425E-21
  0.493200004        -1.55024401E-21
  0.505200028        -1.65448239E-21
  0.517199993        -1.19864590E-21
  0.529200017        -6.01084684E-23
  0.541199982         1.69092428E-21
  0.553200006         3.72163906E-21
  0.565199971         5.43146218E-21
  0.577199996         6.04424509E-21
  0.589200020         4.80913599E-21
  0.601199985         1.28608965E-21
  0.613200009        -4.35042193E-21
  0.625199974        -1.10925405E-20
  0.637199998        -1.70826868E-20
  0.649200022        -1.98952382E-20
  0.661199987        -1.71448401E-20
  0.673200011        -7.34410368E-21
  0.685199976         9.18922940E-21
  0.697200000         2.96773954E-20
  0.709200025         4.88169880E-20
  0.721199989         5.95685459E-20
  0.733200014         5.48722021E-20
  0.745199978         3.00615982E-20
  0.757200003        -1.45876225E-20
  0.769200027        -7.20070740E-20
  0.781199992        -1.28093661E-19
  0.793200016        -1.63776604E-19
  0.805199981        -1.59557311E-19
  0.817200005        -1.01892702E-19
  0.829200029         1.00752457E-20
  0.841199994         1.59605417E-19
  0.853200018         3.11577016E-19
  0.865199983         4.17575611E-19
  0.877200007         4.27192025E-19
  0.889199972         3.03898299E-19
  0.901199996         4.17610016E-20
  0.913200021        -3.22288178E-19
  0.925199986        -7.06171895E-19
  0.937200010        -9.94410786E-19
  0.949199975        -1.06456542E-18
  0.961199999        -8.24397977E-19
  0.973200023        -2.50987329E-19
  0.985199988         5.80330686E-19
  0.997200012         1.48970348E-18
   1.00919998         2.21805338E-18
   1.02119994         2.48517461E-18
   1.03320003         2.07163621E-18
   1.04519999         9.05213730E-19
   1.05719995        -8.74361651E-19
   1.06920004        -2.89893842E-18
   1.08120000        -4.62233241E-18
   1.09319997        -5.43991070E-18
   1.10520005        -4.85848958E-18
   1.11720002        -2.67682739E-18
   1.12919998         8.76634226E-19
   1.14119995         5.10234946E-18
   1.15320003         8.92160199E-18
   1.16520000         1.11065781E-17
   1.17719996         1.06118587E-17
   1.18920004         6.93057247E-18
   1.20120001         3.72850653E-19
   1.21319997        -7.83572147E-18
   1.22520006        -1.57064922E-17
   1.23720002        -2.09014727E-17
   1.24919999        -2.13422078E-17
   1.26119995        -1.58743073E-17
   1.27320004        -4.80155598E-18
   1.28520000         9.89675364E-18
   1.29719996         2.47956455E-17
   1.30920005         3.57253682E-17
   1.32120001         3.88317523E-17
   1.33319998         3.17552222E-17
   1.34519994         1.46042641E-17
   1.35720003        -9.60384733E-18
   1.36919999        -3.52692277E-17
   1.38119996        -5.53549861E-17
   1.39320004        -6.31730672E-17
   1.40520000        -5.44064548E-17
   1.41719997        -2.88155447E-17
   1.42920005         8.93789249E-18
   1.44120002         4.97646779E-17
   1.45319998         8.20326395E-17
   1.46519995         9.45763968E-17
   1.47720003         8.01560050E-17
   1.48920000         3.84180925E-17
   1.50119996        -2.26306094E-17
   1.51320004        -8.73853782E-17
   1.52520001        -1.35874779E-16
   1.53719997        -1.49003538E-16
   1.54920006        -1.14649575E-16
   1.56120002        -3.29565564E-17
   1.57319999         8.09501116E-17
   1.58519995         1.98203341E-16
   1.59720004         2.81882400E-16
   1.60920000         2.96416030E-16
   1.62119997         2.18703020E-16
   1.63320005         4.80117498E-17
   1.64520001        -1.88542639E-16
   1.65719998        -4.37513164E-16
   1.66919994        -6.28674365E-16
   1.68120003        -6.91519022E-16
   1.69319999        -5.75352106E-16
   1.70519996        -2.67930471E-16
   1.71720004         1.92961821E-16
   1.72920001         7.19634374E-16
   1.74119997         1.18843593E-15
   1.75320005         1.46609471E-15
   1.76520002         1.44326124E-15
   1.77719998         1.06718846E-15
   1.78919995         3.64471527E-16
   1.80120003        -5.53788764E-16
   1.81320000        -1.50819171E-15
   1.82519996        -2.28695338E-15
   1.83720005        -2.69418459E-15
   1.84920001        -2.59891181E-15
   1.86119998        -1.97179360E-15
   1.87320006        -8.98676017E-16
   1.88520002         4.34297244E-16
   1.89719999         1.78165672E-15
   1.90919995         2.89564608E-15
   1.92120004         3.58398995E-15
   1.93320000         3.75191677E-15
   1.94519997         3.41580732E-15
   1.95720005         2.68392617E-15
   1.96920002         1.70996851E-15
   1.98119998         6.34512222E-16
   1.99319994        -4.65160531E-16
   2.00519991        -1.59721784E-15
   2.01719999        -2.83727598E-15
   2.02920008        -4.27075960E-15
   2.04119992        -5.91050909E-15
   2.05320001        -7.61628987E-15
   2.06520009        -9.04782722E-15
   2.07719994        -9.67869228E-15
   2.08920002        -8.88457602E-15
   2.10120010        -6.09913189E-15
   2.11319995        -1.00849257E-15
   2.12520003         6.26189096E-15
   2.13720012         1.50219345E-14
   2.14919996         2.40009394E-14
   2.16120005         3.14693035E-14
   2.17319989         3.54968740E-14
   2.18519998         3.43140569E-14
   2.19720006         2.67132796E-14
   2.20919991         1.24114086E-14
   2.22119999        -7.70687665E-15
   2.23320007        -3.15283180E-14
   2.24519992        -5.58657362E-14
   2.25720000        -7.68224392E-14
   2.26920009        -9.03224503E-14
   2.28119993        -9.27324623E-14
   2.29320002        -8.14843391E-14
   2.30520010        -5.56064187E-14
   2.31719995        -1.60845695E-14
   2.32920003         3.40022573E-14
   2.34120011         8.95995788E-14
   2.35319996         1.44048442E-13
   2.36520004         1.89686984E-13
   2.37719989         2.18641620E-13
   2.38919997         2.23752318E-13
   2.40120006         1.99563022E-13
   2.41319990         1.43293512E-13
   2.42519999         5.56936496E-14
   2.43720007        -5.83351049E-14
   2.44919991        -1.89474074E-13
   2.46120000        -3.24197863E-13
   2.47320008        -4.45556732E-13
   2.48519993        -5.34579922E-13
   2.49720001        -5.72275571E-13
   2.50920010        -5.42113826E-13
   2.52119994        -4.32777512E-13
   2.53320003        -2.40872020E-13
   2.54520011         2.67859482E-14
   2.55719995         3.51714480E-13
   2.56920004         7.03544536E-13
   2.58119988         1.04134821E-12
   2.59319997         1.31670033E-12
   2.60520005         1.47846449E-12
   2.61719990         1.47905635E-12
   2.62919998         1.28168754E-12
   2.64120007         8.67833312E-13
   2.65319991         2.43961291E-13
   2.66520000        -5.53582787E-13
   2.67720008        -1.45665023E-12
   2.68919992        -2.36730644E-12
   2.70120001        -3.16445654E-12
   2.71320009        -3.71524035E-12
   2.72519994        -3.89070633E-12
   2.73720002        -3.58451701E-12
   2.74920011        -2.73268322E-12
   2.76119995        -1.33170796E-12
   2.77320004         5.47848442E-13
   2.78520012         2.75535324E-12
   2.79719996         5.06410105E-12
   2.80920005         7.18683576E-12
   2.82119989         8.80286122E-12
   2.83319998         9.59514933E-12
   2.84520006         9.29406205E-12
   2.85719991         7.72277468E-12
   2.86919999         4.83840051E-12
   2.88120008         7.62405438E-13
   2.89319992        -4.20556472E-12
   2.90520000        -9.59502009E-12
   2.91720009        -1.47955155E-11
   2.92919993        -1.91107408E-11
   2.94120002        -2.18323970E-11
   2.95320010        -2.23275651E-11
   2.96519995        -2.01306489E-11
   2.97720003        -1.50293146E-11
   2.98920012        -7.13309359E-12
   3.00119996         3.08617129E-12
   3.01320004         1.47911076E-11
   3.02519989         2.68189203E-11
   3.03719997         3.77668452E-11
   3.04920006         4.61201563E-11
   3.06119990         5.04146308E-11
   3.07319999         4.94201277E-11
   3.08520007         4.23271938E-11
   3.09719992         2.89152764E-11
   3.10920000         9.67933459E-12
   3.12120008        -1.41074409E-11
   3.13319993        -4.04134261E-11
   3.14520001        -6.65630537E-11
   3.15720010        -8.94483654E-11
   3.16919994        -1.05828811E-10
   3.18120003        -1.12697442E-10
   3.19320011        -1.07679615E-10
   3.20519996        -8.94205127E-11
   3.21720004        -5.79111689E-11
   3.22919989        -1.47028240E-11
   3.24119997         3.70350833E-11
   3.25320005         9.26447391E-11
   3.26519990         1.46310408E-10
   3.27719998         1.91578420E-10
   3.28920007         2.22030519E-10
   3.30119991         2.32049560E-10
   3.31320000         2.17596913E-10
   3.32520008         1.76908044E-10
   3.33719993         1.11011110E-10
   3.34920001         2.39821843E-11
   3.36120009        -7.71282135E-11
   3.37319994        -1.82731358E-10
   3.38520002        -2.81494106E-10
   3.39720011        -3.61442015E-10
   3.40919995        -4.11281315E-10
   3.42120004        -4.21811669E-10
   3.43319988        -3.87275184E-10
   3.44519997        -3.06474762E-10
   3.45720005        -1.83498411E-10
   3.46919990        -2.79114041E-11
   3.48119998         1.45681661E-10
   3.49320006         3.18742310E-10
   3.50519991         4.70538941E-10
   3.51719999         5.80412052E-10
   3.52920008         6.30378250E-10
   3.54119992         6.07819184E-10
   3.55320001         5.07958231E-10
   3.56520009         3.35804273E-10
   3.57719994         1.07261207E-10
   3.58920002        -1.50847015E-10
   3.60120010        -4.01992606E-10
   3.61319995        -6.02431327E-10
   3.62520003        -7.04840686E-10
   3.63720012        -6.62824295E-10
   3.64919996        -4.35840974E-10
   3.66120005         6.01890803E-12
   3.67319989         6.78071432E-10
   3.68519998         1.57859226E-09
   3.69720006         2.68853739E-09
   3.70919991         3.97396294E-09
   3.72119999         5.39148504E-09
   3.73320007         6.89684665E-09
   3.74519992         8.45634407E-09
   3.75720000         1.00605222E-08
   3.76920009         1.17391910E-08
   3.78119993         1.35765204E-08
   3.79320002         1.57246962E-08
   3.80520010         1.84144717E-08
   3.81719995         2.19609042E-08
   3.82920003         2.67626188E-08
   3.84120011         3.32932224E-08
   3.85319996         4.20837623E-08
   3.86520004         5.36957039E-08
   3.87719989         6.86843151E-08
   3.88919997         8.75531754E-08
   3.90120006         1.10700874E-07
   3.91319990         1.38361997E-07
   3.92519999         1.70544638E-07
   3.93720007         2.06967258E-07
   3.94919991         2.46998354E-07
   3.96120000         2.89601729E-07
   3.97320008         3.33291155E-07
   3.98519993         3.76096921E-07
   3.99720001         4.15547362E-07
   4.00920010         4.48667322E-07
   4.02120018         4.71994895E-07
   4.03319979         4.81617747E-07
   4.04519987         4.73228766E-07
   4.05719995         4.42200729E-07
   4.06920004         3.83678895E-07
   4.08120012         2.92689407E-07
   4.09320021         1.64261635E-07
   4.10519981        -6.43847820E-09
   4.11719990        -2.23967561E-07
   4.12919998        -4.92459321E-07
   4.14120007        -8.15478927E-07
   4.15320015        -1.19588071E-06
   4.16520023        -1.63567370E-06
   4.17719984        -2.13590056E-06
   4.18919992        -2.69653128E-06
   4.20120001        -3.31638057E-06
   4.21320009        -3.99304918E-06
   4.22520018        -4.72289639E-06
   4.23719978        -5.50104505E-06
   4.24919987        -6.32142383E-06
   4.26119995        -7.17684725E-06
   4.27320004        -8.05913260E-06
   4.28520012        -8.95926132E-06
   4.29720020        -9.86756731E-06
   4.30919981        -1.07739661E-05
   4.32119989        -1.16682004E-05
   4.33319998        -1.25401148E-05
   4.34520006        -1.33799285E-05
   4.35720015        -1.41785140E-05
   4.36920023        -1.49276611E-05
   4.38119984        -1.56203150E-05
   4.39319992        -1.62507895E-05
   4.40520000        -1.68149199E-05
   4.41720009        -1.73101780E-05
   4.42920017        -1.77357269E-05
   4.44119978        -1.80924035E-05
   4.45319986        -1.83826578E-05
   4.46519995        -1.86104080E-05
   4.47720003        -1.87808691E-05
   4.48920012        -1.89003167E-05
   4.50120020        -1.89758193E-05
   4.51319981        -1.90149640E-05
   4.52519989        -1.90255414E-05
   4.53719997        -1.90152768E-05
   4.54920006        -1.89915390E-05
   4.56120014        -1.89611146E-05
   4.57320023        -1.89299953E-05
   4.58519983        -1.89032326E-05
   4.59719992        -1.88848353E-05
   4.60920000        -1.88777267E-05
   4.62120008        -1.88837421E-05
   4.63320017        -1.89037037E-05
   4.64519978        -1.89375060E-05
   4.65719986        -1.89842613E-05
   4.66919994        -1.90424525E-05
   4.68120003        -1.91101153E-05
   4.69320011        -1.91850067E-05
   4.70520020        -1.92647913E-05
   4.71719980        -1.93471897E-05
   4.72919989        -1.94301247E-05
   4.74119997        -1.95118300E-05
   4.75320005        -1.95909306E-05
   4.76520014        -1.96664987E-05
   4.77720022        -1.97380632E-05
   4.78919983        -1.98056077E-05
   4.80119991        -1.98695288E-05
   4.81320000        -1.99305796E-05
   4.82520008        -1.99897895E-05
   4.83720016        -2.00483828E-05
   4.84919977        -2.01076818E-05
   4.86119986        -2.01690145E-05
   4.87319994        -2.02336287E-05
   4.88520002        -2.03026193E-05
   4.89720011        -2.03768595E-05
   4.90920019        -2.04569533E-05
   4.92119980        -2.05432243E-05
   4.93319988        -2.06356799E-05
   4.94519997        -2.07340490E-05
   4.95720005        -2.08377987E-05
   4.96920013        -2.09461759E-05
   4.98120022        -2.10582675E-05
   4.99319983        -2.11730676E-05
   5.00519991        -2.12895320E-05
   5.01719999        -2.14066640E-05
   5.02920008        -2.15235614E-05
   5.04120016        -2.16394692E-05
   5.05319977        -2.17538382E-05
   5.06519985        -2.18663172E-05
   5.07719994        -2.19767935E-05
   5.08920002        -2.20853581E-05
   5.10120010        -2.21923001E-05
   5.11320019        -2.22980580E-05
   5.12519979        -2.24031792E-05
   5.13719988        -2.25082695E-05
   5.14919996        -2.26139437E-05
   5.16120005        -2.27207711E-05
   5.17320013        -2.28292520E-05
   5.18520021        -2.29397883E-05
   5.19719982        -2.30526712E-05
   5.20919991        -2.31680988E-05
   5.22119999        -2.32861967E-05
   5.23320007        -2.34070558E-05
   5.24520016        -2.35307871E-05
   5.25719976        -2.36575706E-05
   5.26919985        -2.37877175E-05
   5.28119993        -2.39217261E-05
   5.29320002        -2.40603185E-05
   5.30520010        -2.42044644E-05
   5.31720018        -2.43553986E-05
   5.32919979        -2.45146057E-05
   5.34119987        -2.46837772E-05
   5.35319996        -2.48647611E-05
   5.36520004        -2.50594840E-05
   5.37720013        -2.52698519E-05
   5.38920021        -2.54976585E-05
   5.40119982        -2.57444717E-05
   5.41319990        -2.60115339E-05
   5.42519999        -2.62996764E-05
   5.43720007        -2.66092375E-05
   5.44920015        -2.69400171E-05
   5.46120024        -2.72912475E-05
   5.47319984        -2.76615883E-05
   5.48519993        -2.80491731E-05
   5.49720001        -2.84516482E-05
   5.50920010        -2.88662668E-05
   5.52120018        -2.92899877E-05
   5.53319979        -2.97195929E-05
   5.54519987        -3.01518212E-05
   5.55719995        -3.05834910E-05
   5.56920004        -3.10116411E-05
   5.58120012        -3.14336394E-05
   5.59320021        -3.18472921E-05
   5.60519981        -3.22509331E-05
   5.61719990        -3.26434638E-05
   5.62919998        -3.30244184E-05
   5.64120007        -3.33939424E-05
   5.65320015        -3.37527927E-05
   5.66520023        -3.41022787E-05
   5.67719984        -3.44441833E-05
   5.68919992        -3.47806927E-05
   5.70120001        -3.51142517E-05
   5.71320009        -3.54474723E-05
   5.72520018        -3.57829667E-05
   5.73719978        -3.61232233E-05
   5.74919987        -3.64704647E-05
   5.76119995        -3.68265246E-05
   5.77320004        -3.71927417E-05
   5.78520012        -3.75698401E-05
   5.79720020        -3.79578887E-05
   5.80919981        -3.83562437E-05
   5.82119989        -3.87635519E-05
   5.83319998        -3.91777576E-05
   5.84520006        -3.95961870E-05
   5.85720015        -4.00156277E-05
   5.86920023        -4.04324455E-05
   5.88119984        -4.08427513E-05
   5.89319992        -4.12425507E-05
   5.90520000        -4.16279327E-05
   5.91720009        -4.19952557E-05
   5.92920017        -4.23412930E-05
   5.94119978        -4.26634324E-05
   5.95319986        -4.29597749E-05
   5.96519995        -4.32292472E-05
   5.97720003        -4.34716676E-05
   5.98920012        -4.36877417E-05
   6.00120020        -4.38790485E-05
   6.01319981        -4.40479489E-05
   6.02519989        -4.41974698E-05
   6.03719997        -4.43311365E-05
   6.04920006        -4.44527832E-05
   6.06120014        -4.45663427E-05
   6.07320023        -4.46756167E-05
   6.08519983        -4.47840721E-05
   6.09719992        -4.48946375E-05
   6.10920000        -4.50095358E-05
   6.12120008        -4.51301348E-05
   6.13320017        -4.52568747E-05
   6.14519978        -4.53892389E-05
   6.15719986        -4.55257796E-05
   6.16919994        -4.56641901E-05
   6.18120003        -4.58014329E-05
   6.19320011        -4.59339244E-05
   6.20520020        -4.60577321E-05
   6.21719980        -4.61688069E-05
   6.22919989        -4.62632415E-05
   6.24119997        -4.63374745E-05
   6.25320005        -4.63885444E-05
   6.26520014        -4.64142577E-05
   6.27720022        -4.64133482E-05
   6.28919983        -4.63855904E-05
   6.30119991        -4.63318429E-05
   6.31320000        -4.62540593E-05
   6.32520008        -4.61552590E-05
   6.33720016        -4.60394258E-05
   6.34919977        -4.59114017E-05
   6.36119986        -4.57767201E-05
   6.37319994        -4.56414600E-05
   6.38520002        -4.55120571E-05
   6.39720011        -4.53951179E-05
   6.40920019        -4.52972636E-05
   6.42119980        -4.52249478E-05
   6.43319988        -4.51843043E-05
   6.44519997        -4.51809901E-05
   6.45720005        -4.52200438E-05
   6.46920013        -4.53057510E-05
   6.48120022        -4.54414876E-05
   6.49319983        -4.56295747E-05
   6.50519991        -4.58711220E-05
   6.51719999        -4.61658783E-05
   6.52920008        -4.65120684E-05
   6.54120016        -4.69062616E-05
   6.55319977        -4.73432519E-05
   6.56519985        -4.78159855E-05
   6.57719994        -4.83155491E-05
   6.58920002        -4.88312326E-05
   6.60120010        -4.93506850E-05
   6.61320019        -4.98601767E-05
   6.62519979        -5.03449628E-05
   6.63719988        -5.07897748E-05
   6.64919996        -5.11793987E-05
   6.66120005        -5.14993480E-05
   6.67320013        -5.17365806E-05
   6.68520021        -5.18802481E-05
   6.69719982        -5.19224341E-05
   6.70919991        -5.18587949E-05
   6.72119999        -5.16891196E-05
   6.73320007        -5.14177082E-05
   6.74520016        -5.10535465E-05
   6.75719976        -5.06102297E-05
   6.76919985        -5.01056202E-05
   6.78119993        -4.95612221E-05
   6.79320002        -4.90012571E-05
   6.80520010        -4.84514858E-05
   6.81720018        -4.79377777E-05
   6.82919979        -4.74845037E-05
   6.84119987        -4.71127423E-05
   6.85319996        -4.68384860E-05
   6.86520004        -4.66707861E-05
   6.87720013        -4.66100246E-05
   6.88920021        -4.66463207E-05
   6.90119982        -4.67581995E-05
   6.91319990        -4.69115366E-05
   6.92519999        -4.70589112E-05
   6.93720007        -4.71393396E-05
   6.94920015        -4.70784908E-05
   6.96120024        -4.67893515E-05
   6.97319984        -4.61733980E-05
   6.98519993        -4.51221931E-05
   6.99720001        -4.35194888E-05
   7.00920010        -4.12436784E-05
   7.02120018        -3.81706413E-05
   7.03319979        -3.41768537E-05
   7.04519987        -2.91427514E-05
   7.05719995        -2.29561920E-05
   7.06920004        -1.55159960E-05
   7.08120012        -6.73544037E-06
   7.09320021         3.45438343E-06
   7.10519981         1.51014337E-05
   7.11719990         2.82298970E-05
   7.12919998         4.28377716E-05
   7.14120007         5.88949224E-05
   7.15320015         7.63417193E-05
   7.16520023         9.50882677E-05
   7.17719984         1.15014242E-04
   7.18919992         1.35969589E-04
   7.20120001         1.57775721E-04
   7.21320009         1.80227653E-04
   7.22520018         2.03096584E-04
   7.23719978         2.26133387E-04
   7.24919987         2.49072560E-04
   7.26119995         2.71636614E-04
   7.27320004         2.93541205E-04
   7.28520012         3.14500066E-04
   7.29720020         3.34230775E-04
   7.30919981         3.52459931E-04
   7.32119989         3.68928857E-04
   7.33319998         3.83398583E-04
   7.34520006         3.95654730E-04
   7.35720015         4.05512081E-04
   7.36920023         4.12818161E-04
   7.38119984         4.17456526E-04
   7.39319992         4.19349089E-04
   7.40520000         4.18457581E-04
   7.41720009         4.14784357E-04
   7.42920017         4.08372143E-04
   7.44119978         3.99303128E-04
   7.45319986         3.87696957E-04
   7.46519995         3.73708317E-04
   7.47720003         3.57523677E-04
   7.48920012         3.39357386E-04
   7.50120020         3.19447543E-04
   7.51319981         2.98051076E-04
   7.52519989         2.75439088E-04
   7.53719997         2.51891674E-04
   7.54920006         2.27693046E-04
   7.56120014         2.03126445E-04
   7.57320023         1.78469592E-04
   7.58519983         1.53990302E-04
   7.59719992         1.29942448E-04
   7.60920000         1.06562431E-04
   7.62120008         8.40661451E-05
   7.63320017         6.26465044E-05
   7.64519978         4.24715472E-05
   7.65719986         2.36830638E-05
   7.66919994         6.39582504E-06
   7.68120003        -9.30262377E-06
   7.69320011        -2.33517057E-05
   7.70520020        -3.57170429E-05
   7.71719980        -4.63892502E-05
   7.72919989        -5.53824138E-05
   7.74119997        -6.27322370E-05
   7.75320005        -6.84939441E-05
   7.76520014        -7.27400111E-05
   7.77720022        -7.55577712E-05
   7.78919983        -7.70470360E-05
   7.80119991        -7.73175852E-05
   7.81320000        -7.64868892E-05
   7.82520008        -7.46777732E-05
   7.83720016        -7.20163443E-05
   7.84919977        -6.86299900E-05
   7.86119986        -6.46455810E-05
   7.87319994        -6.01879474E-05
   7.88520002        -5.53784048E-05
   7.89720011        -5.03336087E-05
   7.90920019        -4.51644810E-05
   7.92119980        -3.99753371E-05
   7.93319988        -3.48631584E-05
   7.94519997        -2.99169205E-05
   7.95720005        -2.52170703E-05
   7.96920013        -2.08350320E-05
   7.98120022        -1.68327770E-05
   7.99319983        -1.32624427E-05
   8.00520039        -1.01659734E-05
   8.01720047        -7.57482212E-06
   8.02919960        -5.50969662E-06
   8.04119968        -3.98040629E-06
   8.05319977        -2.98579766E-06
   8.06519985        -2.51384472E-06
   8.07719994        -2.54188626E-06
   8.08920002        -3.03707770E-06
   8.10120010        -3.95704865E-06
   8.11320019        -5.25079304E-06
   8.12520027        -6.85979239E-06
   8.13720036        -8.71937209E-06
   8.14920044        -1.07602646E-05
   8.16119957        -1.29103501E-05
   8.17319965        -1.50965325E-05
   8.18519974        -1.72466898E-05
   8.19719982        -1.92916577E-05
   8.20919991        -2.11671304E-05
   8.22119999        -2.28154822E-05
   8.23320007        -2.41873495E-05
   8.24520016        -2.52430073E-05
   8.25720024        -2.59534008E-05
   8.26920033        -2.63008587E-05
   8.28120041        -2.62794038E-05
   8.29319954        -2.58947002E-05
   8.30519962        -2.51636047E-05
   8.31719971        -2.41133384E-05
   8.32919979        -2.27803412E-05
   8.34119987        -2.12088053E-05
   8.35319996        -1.94489858E-05
   8.36520004        -1.75553232E-05
   8.37720013        -1.55844500E-05
   8.38920021        -1.35931596E-05
   8.40120029        -1.16364172E-05
   8.41320038        -9.76545380E-06
   8.42520046        -8.02605155E-06
   8.43719959        -6.45704540E-06
   8.44919968        -5.08911171E-06
   8.46119976        -3.94387416E-06
   8.47319984        -3.03335969E-06
   8.48519993        -2.35982043E-06
   8.49720001        -1.91592108E-06
   8.50920010        -1.68528879E-06
   8.52120018        -1.64338951E-06
   8.53320026        -1.75870150E-06
   8.54520035        -1.99413375E-06
   8.55720043        -2.30863293E-06
   8.56919956        -2.65891254E-06
   8.58119965        -3.00123088E-06
   8.59319973        -3.29315435E-06
   8.60519981        -3.49523839E-06
   8.61719990        -3.57255840E-06
   8.62919998        -3.49604670E-06
   8.64120007        -3.24358689E-06
   8.65320015        -2.80083964E-06
   8.66520023        -2.16177750E-06
   8.67720032        -1.32891921E-06
   8.68920040        -3.13274370E-07
   8.70119953         8.65991694E-07
   8.71319962         2.18214927E-06
   8.72519970         3.60172203E-06
   8.73719978         5.08549556E-06
   8.74919987         6.58968429E-06
   8.76119995         8.06721164E-06
   8.77320004         9.46907494E-06
   8.78520012         1.07457518E-05
   8.79720020         1.18486250E-05
   8.80920029         1.27313870E-05
   8.82120037         1.33513968E-05
   8.83320045         1.36709596E-05
   8.84519958         1.36585068E-05
   8.85719967         1.32896375E-05
   8.86919975         1.25480083E-05
   8.88119984         1.14260201E-05
   8.89319992         9.92530568E-06
   8.90520000         8.05697255E-06
   8.91720009         5.84159079E-06
   8.92920017         3.30891726E-06
   8.94120026         4.97349276E-07
   8.95320034        -2.54689508E-06
   8.96520042        -5.77084984E-06
   8.97719955        -9.11610550E-06
   8.98919964        -1.25203196E-05
   9.00119972        -1.59188876E-05
   9.01319981        -1.92467232E-05
   9.02519989        -2.24401028E-05
   9.03719997        -2.54384995E-05
   9.04920006        -2.81863522E-05
   9.06120014        -3.06347138E-05
   9.07320023        -3.27427006E-05
   9.08520031        -3.44787186E-05