 -0.622799993         1.00000002E-24
 -0.610800028         1.00000002E-24
 -0.598800004         1.00000002E-24
 -0.586799979         1.00000002E-24
 -0.574800014         1.00000002E-24
 -0.562799990         4.05782578E-22
 -0.550800025         3.01859551E-21
 -0.538800001         1.05264816E-20
 -0.526799977         1.97579117E-20
 -0.514800012         7.43320250E-21
 -0.502799988        -7.77972155E-20
 -0.490799993        -2.83132550E-19
 -0.478799999        -5.45781420E-19
 -0.466800004        -5.33959716E-19
 -0.454800010         4.31439287E-19
 -0.442799985         3.12749276E-18
 -0.430799991         7.62358273E-18
 -0.418799996         1.19811346E-17
 -0.406800002         1.11025596E-17
 -0.394800007        -2.98725835E-18
 -0.382800013        -3.79580014E-17
 -0.370799989        -9.44856849E-17
 -0.358799994        -1.57641222E-16
 -0.346799999        -1.90918262E-16
 -0.334800005        -1.39698272E-16
 -0.322800010         4.97448586E-17
 -0.310799986         3.94994227E-16
 -0.298799992         8.35257125E-16
 -0.286799997         1.20278191E-15
 -0.274800003         1.23518908E-15
 -0.262800008         6.50794630E-16
 -0.250800014        -7.12328345E-16
 -0.238800004        -2.72775610E-15
 -0.226799995        -4.85366650E-15
 -0.214800000        -6.13816952E-15
 -0.202800006        -5.43071320E-15
 -0.190799996        -1.80920457E-15
 -0.178800002         4.86908928E-15
 -0.166800007         1.34908327E-14
 -0.154799998         2.15424500E-14
 -0.142800003         2.55220039E-14
 -0.130799994         2.19762376E-14
 -0.118799999         8.98073797E-15
 -0.106799997        -1.23901794E-14
  -9.48000029E-02    -3.72335253E-14
  -8.28000009E-02    -5.72251732E-14
  -7.07999989E-02    -6.25617247E-14
  -5.88000007E-02    -4.52024723E-14
  -4.67999987E-02    -2.56618076E-15
  -3.48000005E-02     5.96217276E-14
  -2.28000004E-02     1.26707103E-13
  -1.08000003E-02     1.77626753E-13
   1.20000006E-03     1.90535196E-13
   1.31999999E-02     1.50308964E-13
   2.52000000E-02     5.56701529E-14
   3.72000001E-02    -7.67524472E-14
   4.91999984E-02    -2.13618538E-13
   6.12000003E-02    -3.12111339E-13
   7.32000023E-02    -3.32000378E-13
   8.51999968E-02    -2.49367286E-13
   9.71999988E-02    -6.76477104E-14
  0.109200001         1.78206408E-13
  0.121200003         4.26992724E-13
  0.133200005         6.05722503E-13
  0.145199999         6.49964403E-13
  0.157199994         5.24392324E-13
  0.169200003         2.37130140E-13
  0.181199998        -1.57204287E-13
  0.193200007        -5.67768760E-13
  0.205200002        -8.89129916E-13
  0.217199996        -1.02872875E-12
  0.229200006        -9.32629299E-13
  0.241200000        -6.02247310E-13
  0.253199995        -9.72053045E-14
  0.265199989         4.76672467E-13
  0.277200013         9.91158653E-13
  0.289200008         1.32515841E-12
  0.301200002         1.39279343E-12
  0.313199997         1.16370412E-12
  0.325199991         6.71525932E-13
  0.337199986         9.32240311E-15
  0.349200010        -6.86768838E-13
  0.361200005        -1.26276268E-12
  0.373199999        -1.57713209E-12
  0.385199994        -1.53188768E-12
  0.397199988        -1.09956402E-12
  0.409200013        -3.40594550E-13
  0.421200007         5.94703269E-13
  0.433200002         1.48427288E-12
  0.445199996         2.07422100E-12
  0.457199991         2.13676494E-12
  0.469199985         1.53591528E-12
  0.481200010         2.84787032E-13
  0.493200004        -1.42402247E-12
  0.505200028        -3.23051395E-12
  0.517199993        -4.66825276E-12
  0.529200017        -5.26708364E-12
  0.541199982        -4.67609545E-12
  0.553200006        -2.77502348E-12
  0.565199971         2.59574426E-13
  0.577199996         3.95841042E-12
  0.589200020         7.64084369E-12
  0.601199985         1.05580631E-11
  0.613200009         1.20624326E-11
  0.625199974         1.17567683E-11
  0.637199998         9.58062362E-12
  0.649200022         5.80826966E-12
  0.661199987         9.60042701E-13
  0.673200011        -4.34331304E-12
  0.685199976        -9.53417813E-12
  0.697200000        -1.42068232E-11
  0.709200025        -1.81433236E-11
  0.721199989        -2.12476928E-11
  0.733200014        -2.34136998E-11
  0.745199978        -2.43800882E-11
  0.757200003        -2.36386119E-11
  0.769200027        -2.04500444E-11
  0.781199992        -1.39927896E-11
  0.793200016        -3.62629740E-12
  0.805199981         1.07901466E-11
  0.817200005         2.86098523E-11
  0.829200029         4.82327615E-11
  0.841199994         6.71290176E-11
  0.853200018         8.20767690E-11
  0.865199983         8.95866090E-11
  0.877200007         8.64378499E-11
  0.889199972         7.02226124E-11
  0.901199996         3.97903550E-11
  0.913200021        -4.49342863E-12
  0.925199986        -6.07203454E-11
  0.937200010        -1.25644009E-10
  0.949199975        -1.95076455E-10
  0.961199999        -2.64410355E-10
  0.973200023        -3.29195504E-10
  0.985199988        -3.85707272E-10
  0.997200012        -4.31460562E-10
   1.00919998        -4.65637362E-10
   1.02119994        -4.89396634E-10
   1.03320003        -5.06023889E-10
   1.04519999        -5.20852805E-10
   1.05719995        -5.40859024E-10
   1.06920004        -5.73811054E-10
   1.08120000        -6.26857510E-10
   1.09319997        -7.04464265E-10
   1.10520005        -8.05658595E-10
   1.11720002        -9.20599319E-10
   1.12919998        -1.02653408E-09
   1.14119995        -1.08321196E-09
   1.15320003        -1.02770248E-09
   1.16520000        -7.68389741E-10
   1.17719996        -1.77528728E-10
   1.18920004         9.18752019E-10
   1.20120001         2.75480971E-09
   1.21319997         5.64673597E-09
   1.22520006         1.00239843E-08
   1.23720002         1.64755480E-08
   1.24919999         2.58156643E-08
   1.26119995         3.91744344E-08
   1.27320004         5.81189781E-08
   1.28520000         8.48099546E-08
   1.29719996         1.22197932E-07
   1.30920005         1.74261473E-07
   1.32120001         2.46287158E-07
   1.33319998         3.45187914E-07
   1.34519994         4.79852588E-07
   1.35720003         6.61515458E-07
   1.36919999         9.04128626E-07
   1.38119996         1.22471840E-06
   1.39320004         1.64369862E-06
   1.40520000         2.18511491E-06
   1.41719997         2.87678745E-06
   1.42920005         3.75032346E-06
   1.44120002         4.84096745E-06
   1.45319998         6.18726335E-06
   1.46519995         7.83050655E-06
   1.47720003         9.81397716E-06
   1.48920000         1.21819403E-05
   1.50119996         1.49784373E-05
   1.51320004         1.82458698E-05
   1.52520001         2.20234288E-05
   1.53719997         2.63453967E-05
   1.54920006         3.12394113E-05
   1.56120002         3.67247267E-05
   1.57319999         4.28105923E-05
   1.58519995         4.94947635E-05
   1.59720004         5.67623065E-05
   1.60920000         6.45847322E-05
   1.62119997         7.29195090E-05
   1.63320005         8.17100663E-05
   1.64520001         9.08862712E-05
   1.65719998         1.00365418E-04
   1.66919994         1.10053748E-04
   1.68120003         1.19848410E-04
   1.69319999         1.29639870E-04
   1.70519996         1.39314710E-04
   1.71720004         1.48758525E-04
   1.72920001         1.57859118E-04
   1.74119997         1.66509679E-04
   1.75320005         1.74611734E-04
   1.76520002         1.82078002E-04
   1.77719998         1.88834791E-04
   1.78919995         1.94824039E-04
   1.80120003         2.00004652E-04
   1.81320000         2.04353477E-04
   1.82519996         2.07865378E-04
   1.83720005         2.10552971E-04
   1.84920001         2.12445491E-04
   1.86119998         2.13587336E-04
   1.87320006         2.14036074E-04
   1.88520002         2.13860068E-04
   1.89719999         2.13135965E-04
   1.90919995         2.11945968E-04
   1.92120004         2.10375307E-04
   1.93320000         2.08509649E-04
   1.94519997         2.06432887E-04
   1.95720005         2.04225187E-04
   1.96920002         2.01961418E-04
   1.98119998         1.99710121E-04
   1.99319994         1.97532761E-04
   2.00519991         1.95483342E-04
   2.01719999         1.93608605E-04
   2.02920008         1.91948289E-04
   2.04119992         1.90535706E-04
   2.05320001         1.89398401E-04
   2.06520009         1.88558843E-04
   2.07719994         1.88035148E-04
   2.08920002         1.87841491E-04
   2.10120010         1.87988582E-04
   2.11319995         1.88483755E-04
   2.12520003         1.89330938E-04
   2.13720012         1.90530482E-04
   2.14919996         1.92078631E-04
   2.16120005         1.93967266E-04
   2.17319989         1.96183217E-04
   2.18519998         1.98707989E-04
   2.19720006         2.01517309E-04
   2.20919991         2.04581171E-04
   2.22119999         2.07863981E-04
   2.23320007         2.11324936E-04
   2.24519992         2.14918982E-04
   2.25720000         2.18597896E-04
   2.26920009         2.22311661E-04
   2.28119993         2.26010190E-04
   2.29320002         2.29645157E-04
   2.30520010         2.33171901E-04
   2.31719995         2.36551263E-04
   2.32920003         2.39751374E-04
   2.34120011         2.42749156E-04
   2.35319996         2.45531584E-04
   2.36520004         2.48096418E-04
   2.37719989         2.50452635E-04
   2.38919997         2.52620230E-04
   2.40120006         2.54629820E-04
   2.41319990         2.56521336E-04
   2.42519999         2.58342887E-04
   2.43720007         2.60148750E-04
   2.44919991         2.61997542E-04
   2.46120000         2.63949973E-04
   2.47320008         2.66066607E-04
   2.48519993         2.68405711E-04
   2.49720001         2.71021127E-04
   2.50920010         2.73960468E-04
   2.52119994         2.77263520E-04
   2.53320003         2.80960929E-04
   2.54520011         2.85073300E-04
   2.55719995         2.89610587E-04
   2.56920004         2.94571859E-04
   2.58119988         2.99945503E-04
   2.59319997         3.05709487E-04
   2.60520005         3.11832118E-04
   2.61719990         3.18273058E-04
   2.62919998         3.24984168E-04
   2.64120007         3.31910967E-04
   2.65319991         3.38993705E-04
   2.66520000         3.46168934E-04
   2.67720008         3.53370502E-04
   2.68919992         3.60530947E-04
   2.70120001         3.67582659E-04
   2.71320009         3.74458643E-04
   2.72519994         3.81093385E-04
   2.73720002         3.87423293E-04
   2.74920011         3.93386988E-04
   2.76119995         3.98925389E-04
   2.77320004         4.03981394E-04
   2.78520012         4.08499618E-04
   2.79719996         4.12425725E-04
   2.80920005         4.15705959E-04
   2.82119989         4.18286625E-04
   2.83319998         4.20113443E-04
   2.84520006         4.21131641E-04
   2.85719991         4.21285804E-04
   2.86919999         4.20520577E-04
   2.88120008         4.18781507E-04
   2.89319992         4.16016526E-04
   2.90520000         4.12177789E-04
   2.91720009         4.07224084E-04
   2.92919993         4.01123223E-04
   2.94120002         3.93855036E-04
   2.95320010         3.85413936E-04
   2.96519995         3.75811593E-04
   2.97720003         3.65079235E-04
   2.98920012         3.53269075E-04
   3.00119996         3.40455532E-04
   3.01320004         3.26735288E-04
   3.02519989         3.12226446E-04
   3.03719997         2.97066988E-04
   3.04920006         2.81412154E-04
   3.06119990         2.65430950E-04
   3.07319999         2.49302189E-04
   3.08520007         2.33209852E-04
   3.09719992         2.17338151E-04
   3.10920000         2.01866496E-04
   3.12120008         1.86964622E-04
   3.13319993         1.72787986E-04
   3.14520001         1.59473537E-04
   3.15720010         1.47136365E-04
   3.16919994         1.35866896E-04
   3.18120003         1.25728984E-04
   3.19320011         1.16758914E-04
   3.20519996         1.08965178E-04
   3.21720004         1.02329184E-04
   3.22919989         9.68066597E-05
   3.24119997         9.23299012E-05
   3.25320005         8.88104842E-05
   3.26519990         8.61427325E-05
   3.27719998         8.42074223E-05
   3.28920007         8.28759948E-05
   3.30119991         8.20149071E-05
   3.31320000         8.14900850E-05
   3.32520008         8.11714053E-05
   3.33719993         8.09370249E-05
   3.34920001         8.06774187E-05
   3.36120009         8.02989744E-05
   3.37319994         7.97270623E-05
   3.38520002         7.89083861E-05
   3.39720011         7.78125905E-05
   3.40919995         7.64328433E-05
   3.42120004         7.47855956E-05
   3.43319988         7.29092280E-05
   3.44519997         7.08618318E-05
   3.45720005         6.87179781E-05
   3.46919990         6.65648040E-05
   3.48119998         6.44973770E-05
   3.49320006         6.26136680E-05
   3.50519991         6.10092684E-05
   3.51719999         5.97722828E-05
   3.52920008         5.89783376E-05
   3.54119992         5.86862916E-05
   3.55320001         5.89346637E-05
   3.56520009         5.97390208E-05
   3.57719994         6.10905045E-05
   3.58920002         6.29555507E-05
   3.60120010         6.52768213E-05
   3.61319995         6.79753721E-05
   3.62520003         7.09538144E-05
   3.63720012         7.41004696E-05
   3.64919996         7.72942294E-05
   3.66120005         8.04098527E-05
   3.67319989         8.33235317E-05
   3.68519998         8.59183710E-05
   3.69720006         8.80894950E-05
   3.70919991         8.97486825E-05
   3.72119999         9.08281581E-05
   3.73320007         9.12834585E-05
   3.74519992         9.10952440E-05
   3.75720000         9.02700267E-05
   3.76920009         8.88397190E-05
   3.78119993         8.68601710E-05
   3.79320002         8.44087408E-05
   3.80520010         8.15809981E-05
   3.81719995         7.84868535E-05
   3.82920003         7.52461419E-05
   3.84120011         7.19840173E-05
   3.85319996         6.88261935E-05
   3.86520004         6.58944118E-05
   3.87719989         6.33020827E-05
   3.88919997         6.11503929E-05
   3.90120006         5.95249730E-05
   3.91319990         5.84931804E-05
   3.92519999         5.81020431E-05
   3.93720007         5.83769543E-05
   3.94919991         5.93211225E-05
   3.96120000         6.09156850E-05
   3.97320008         6.31205912E-05
   3.98519993         6.58760546E-05
   3.99720001         6.91046807E-05
   4.00920010         7.27140578E-05
   4.02120018         7.65998411E-05
   4.03319979         8.06491662E-05
   4.04519987         8.47443589E-05
   4.05719995         8.87667848E-05
   4.06920004         9.26008070E-05
   4.08120012         9.61376209E-05
   4.09320021         9.92788773E-05
   4.10519981         1.01940044E-04
   4.11719990         1.04053230E-04
   4.12919998         1.05569510E-04
   4.14120007         1.06460488E-04
   4.15320015         1.06719242E-04
   4.16520023         1.06360319E-04
   4.17719984         1.05419051E-04
   4.18919992         1.03950028E-04
   4.20120001         1.02024846E-04
   4.21320009         9.97292445E-05
   4.22520018         9.71597110E-05
   4.23719978         9.44197527E-05
   4.24919987         9.16159770E-05
   4.26119995         8.88541399E-05
   4.27320004         8.62354063E-05
   4.28520012         8.38528867E-05
   4.29720020         8.17886757E-05
   4.30919981         8.01114511E-05
   4.32119989         7.88747784E-05
   4.33319998         7.81159979E-05
   4.34520006         7.78558751E-05
   4.35720015         7.80988339E-05
   4.36920023         7.88338148E-05
   4.38119984         8.00355629E-05
   4.39319992         8.16663014E-05
   4.40520000         8.36776817E-05
   4.41720009         8.60128930E-05
   4.42920017         8.86088164E-05
   4.44119978         9.13981348E-05
   4.45319986         9.43113337E-05
   4.46519995         9.72786002E-05
   4.47720003         1.00231482E-04
   4.48920012         1.03104401E-04
   4.50120020         1.05835941E-04
   4.51319981         1.08370012E-04
   4.52519989         1.10656816E-04
   4.53719997         1.12653790E-04
   4.54920006         1.14326278E-04
   4.56120014         1.15648254E-04
   4.57320023         1.16602780E-04
   4.58519983         1.17182455E-04
   4.59719992         1.17389602E-04
   4.60920000         1.17236319E-04
   4.62120008         1.16744290E-04
   4.63320017         1.15944327E-04
   4.64519978         1.14875686E-04
   4.65719986         1.13585062E-04
   4.66919994         1.12125286E-04
   4.68120003         1.10553803E-04
   4.69320011         1.08930828E-04
   4.70520020         1.07317355E-04
   4.71719980         1.05773070E-04
   4.72919989         1.04354127E-04
   4.74119997         1.03111066E-04
   4.75320005         1.02086808E-04
   4.76520014         1.01314894E-04
   4.77720022         1.00818077E-04
   4.78919983         1.00607329E-04
   4.80119991         1.00681231E-04
   4.81320000         1.01025995E-04
   4.82520008         1.01615922E-04
   4.83720016         1.02414378E-04
   4.84919977         1.03375365E-04
   4.86119986         1.04445360E-04
   4.87319994         1.05565639E-04
   4.88520002         1.06674801E-04
   4.89720011         1.07711414E-04
   4.90920019         1.08616689E-04
   4.92119980         1.09337052E-04
   4.93319988         1.09826433E-04
   4.94519997         1.10048306E-04
   4.95720005         1.09977176E-04
   4.96920013         1.09599649E-04
   4.98120022         1.08914952E-04
   4.99319983         1.07934939E-04
   5.00519991         1.06683503E-04
   5.01719999         1.05195606E-04
   5.02920008         1.03515828E-04
   5.04120016         1.01696613E-04
   5.05319977         9.97962634E-05
   5.06519985         9.78768148E-05
   5.07719994         9.60018006E-05
   5.08920002         9.42341212E-05
   5.10120010         9.26339562E-05
   5.11320019         9.12568867E-05
   5.12519979         9.01522071E-05
   5.13719988         8.93615361E-05
   5.14919996         8.89175863E-05
   5.16120005         8.88433424E-05
   5.17320013         8.91514210E-05
   5.18520021         8.98437356E-05
   5.19719982         9.09114387E-05
   5.20919991         9.23351254E-05
   5.22119999         9.40852769E-05
   5.23320007         9.61229744E-05
   5.24520016         9.84008657E-05
   5.25719976         1.00864367E-04
   5.26919985         1.03453043E-04
   5.28119993         1.06102241E-04
   5.29320002         1.08744818E-04
   5.30520010         1.11313027E-04
   5.31720018         1.13740462E-04
   5.32919979         1.15963929E-04
   5.34119987         1.17925367E-04
   5.35319996         1.19573473E-04
   5.36520004         1.20865261E-04
   5.37720013         1.21767211E-04
   5.38920021         1.22256155E-04
   5.40119982         1.22319805E-04
   5.41319990         1.21956815E-04
   5.42519999         1.21176592E-04
   5.43720007         1.19998622E-04
   5.44920015         1.18451579E-04
   5.46120024         1.16572148E-04
   5.47319984         1.14403716E-04
   5.48519993         1.11994930E-04
   5.49720001         1.09398301E-04
   5.50920010         1.06668784E-04
   5.52120018         1.03862549E-04
   5.53319979         1.01035832E-04
   5.54519987         9.82439815E-05
   5.55719995         9.55406431E-05
   5.56920004         9.29770758E-05
   5.58120012         9.06015775E-05
   5.59320021         8.84590117E-05
   5.60519981         8.65902912E-05
   5.61719990         8.50319484E-05
   5.62919998         8.38155538E-05
   5.64120007         8.29672208E-05
   5.65320015         8.25070019E-05
   5.66520023         8.24482777E-05
   5.67719984         8.27971962E-05
   5.68919992         8.35521641E-05
   5.70120001         8.47034680E-05
   5.71320009         8.62331508E-05
   5.72520018         8.81150845E-05
   5.73719978         9.03153341E-05
   5.74919987         9.27928413E-05
   5.76119995         9.55003707E-05
   5.77320004         9.83858481E-05
   5.78520012         1.01393758E-04
   5.79720020         1.04466839E-04
   5.80919981         1.07547770E-04
   5.82119989         1.10580870E-04
   5.83319998         1.13513641E-04
   5.84520006         1.16298201E-04
   5.85720015         1.18892342E-04
   5.86920023         1.21260324E-04
   5.88119984         1.23373320E-04
   5.89319992         1.25209466E-04
   5.90520000         1.26753701E-04
   5.91720009         1.27997220E-04
   5.92920017         1.28936765E-04
   5.94119978         1.29573877E-04
   5.95319986         1.29914071E-04
   5.96519995         1.29966022E-04
   5.97720003         1.29741005E-04
   5.98920012         1.29252265E-04
   6.00120020         1.28514919E-04
   6.01319981         1.27545660E-04
   6.02519989         1.26362938E-04
   6.03719997         1.24987098E-04
   6.04920006         1.23440579E-04
   6.06120014         1.21748235E-04
   6.07320023         1.19937467E-04
   6.08519983         1.18038268E-04
   6.09719992         1.16083145E-04
   6.10920000         1.14106791E-04
   6.12120008         1.12145528E-04
   6.13320017         1.10236586E-04
   6.14519978         1.08417204E-04
   6.15719986         1.06723608E-04
   6.16919994         1.05189909E-04
   6.18120003         1.03847044E-04
   6.19320011         1.02721831E-04
   6.20520020         1.01836049E-04
   6.21719980         1.01205849E-04
   6.22919989         1.00841258E-04
   6.24119997         1.00746031E-04
   6.25320005         1.00917576E-04
   6.26520014         1.01347221E-04
   6.27720022         1.02020560E-04
   6.28919983         1.02918028E-04
   6.30119991         1.04015446E-04
   6.31320000         1.05284780E-04
   6.32520008         1.06694810E-04
   6.33720016         1.08211862E-04
   6.34919977         1.09800552E-04
   6.36119986         1.11424488E-04
   6.37319994         1.13046990E-04
   6.38520002         1.14631810E-04
   6.39720011         1.16143921E-04
   6.40920019         1.17550255E-04
   6.42119980         1.18820550E-04
   6.43319988         1.19928140E-04
   6.44519997         1.20850746E-04
   6.45720005         1.21571175E-04
   6.46920013         1.22077952E-04
   6.48120022         1.22365702E-04
   6.49319983         1.22435362E-04
   6.50519991         1.22294034E-04
   6.51719999         1.21954770E-04
   6.52920008         1.21435776E-04
   6.54120016         1.20759607E-04
   6.55319977         1.19952063E-04
   6.56519985         1.19040866E-04
   6.57719994         1.18054428E-04
   6.58920002         1.17020529E-04
   6.60120010         1.15965122E-04
   6.61320019         1.14911425E-04
   6.62519979         1.13879221E-04
   6.63719988         1.12884525E-04
   6.64919996         1.11939604E-04
   6.66120005         1.11053319E-04
   6.67320013         1.10231784E-04
   6.68520021         1.09479210E-04
   6.69719982         1.08798900E-04
   6.70919991         1.08194210E-04
   6.72119999         1.07669424E-04
   6.73320007         1.07230400E-04
   6.74520016         1.06884916E-04
   6.75719976         1.06642663E-04
   6.76919985         1.06514890E-04
   6.78119993         1.06513660E-04
   6.79320002         1.06650841E-04
   6.80520010         1.06936815E-04
   6.81720018         1.07379179E-04
   6.82919979         1.07981337E-04
   6.84119987         1.08741297E-04
   6.85319996         1.09650719E-04
   6.86520004         1.10694222E-04
   6.87720013         1.11849266E-04
   6.88920021         1.13086353E-04
   6.90119982         1.14369810E-04
   6.91319990         1.15658964E-04
   6.92519999         1.16909658E-04
   6.93720007         1.18076074E-04
   6.94920015         1.19112679E-04
   6.96120024         1.19976183E-04
   6.97319984         1.20627425E-04
   6.98519993         1.21032986E-04
   6.99720001         1.21166580E-04
   7.00920010         1.21009980E-04
   7.02120018         1.20553646E-04
   7.03319979         1.19796910E-04
   7.04519987         1.18747812E-04
   7.05719995         1.17422584E-04
   7.06920004         1.15844967E-04
   7.08120012         1.14045230E-04
   7.09320021         1.12059228E-04
   7.10519981         1.09927372E-04
   7.11719990         1.07693559E-04
   7.12919998         1.05404324E-04
   7.14120007         1.03107988E-04
   7.15320015         1.00853875E-04
   7.16520023         9.86917003E-05
   7.17719984         9.66708103E-05
   7.18919992         9.48396410E-05
   7.20120001         9.32448893E-05
   7.21320009         9.19307495E-05
   7.22520018         9.09379160E-05
   7.23719978         9.03025793E-05
   7.24919987         9.00551604E-05
   7.26119995         9.02191459E-05
   7.27320004         9.08097209E-05
   7.28520012         9.18326696E-05
   7.29720020         9.32832263E-05
   7.30919981         9.51453112E-05
   7.32119989         9.73910137E-05
   7.33319998         9.99804906E-05
   7.34520006         1.02862337E-04
   7.35720015         1.05974439E-04
   7.36920023         1.09245288E-04
   7.38119984         1.12595786E-04
   7.39319992         1.15941417E-04
   7.40520000         1.19194745E-04
   7.41720009         1.22268088E-04
   7.42920017         1.25076360E-04
   7.44119978         1.27539723E-04
   7.45319986         1.29586260E-04
   7.46519995         1.31154229E-04
   7.47720003         1.32194094E-04
   7.48920012         1.32669957E-04
   7.50120020         1.32560759E-04
   7.51319981         1.31860797E-04
   7.52519989         1.30579778E-04
   7.53719997         1.28742511E-04
   7.54920006         1.26388171E-04
   7.56120014         1.23569058E-04
   7.57320023         1.20349294E-04
   7.58519983         1.16803072E-04
   7.59719992         1.13012880E-04
   7.60920000         1.09067536E-04
   7.62120008         1.05060128E-04
   7.63320017         1.01085847E-04
   7.64519978         9.72398993E-05
   7.65719986         9.36153156E-05
   7.66919994         9.03007895E-05
   7.68120003         8.73785830E-05
   7.69320011         8.49225180E-05
   7.70520020         8.29960845E-05
   7.71719980         8.16507381E-05
   7.72919989         8.09244011E-05
   7.74119997         8.08403347E-05
   7.75320005         8.14062878E-05
   7.76520014         8.26140677E-05
   7.77720022         8.44395836E-05
   7.78919983         8.68433417E-05
   7.80119991         8.97714417E-05
   7.81320000         9.31570321E-05
   7.82520008         9.69221728E-05
   7.83720016         1.00980127E-04
   7.84919977         1.05237828E-04
   7.86119986         1.09598623E-04
   7.87319994         1.13964990E-04
   7.88520002         1.18241194E-04
   7.89720011         1.22335812E-04
   7.90920019         1.26163985E-04
   7.92119980         1.29649241E-04
   7.93319988         1.32725094E-04
   7.94519997         1.35335998E-04
   7.95720005         1.37438125E-04
   7.96920013         1.38999560E-04
   7.98120022         1.40000237E-04
   7.99319983         1.40431512E-04
   8.00520039         1.40295670E-04
   8.01720047         1.39605036E-04
   8.02919960         1.38381220E-04
   8.04119968         1.36654126E-04
   8.05319977         1.34461196E-04
   8.06519985         1.31846478E-04
   8.07719994         1.28859814E-04
   8.08920002         1.25556093E-04
   8.10120010         1.21994461E-04
   8.11320019         1.18237534E-04
   8.12520027         1.14350507E-04
   8.13720036         1.10400244E-04
   8.14920044         1.06454238E-04
   8.16119957         1.02579441E-04
   8.17319965         9.88410611E-05
   8.18519974         9.53011986E-05
   8.19719982         9.20175880E-05
   8.20919991         8.90422234E-05
   8.22119999         8.64201866E-05
   8.23320007         8.41885558E-05
   8.24520016         8.23755690E-05
   8.25720024         8.10000274E-05
   8.26920033         8.00710550E-05
   8.28120041         7.95881060E-05
   8.29319954         7.95413653E-05
   8.30519962         7.99124682E-05
   8.31719971         8.06753960E-05
   8.32919979         8.17977052E-05
   8.34119987         8.32418518E-05
   8.35319996         8.49665594E-05
   8.36520004         8.69282594E-05
   8.37720013         8.90824522E-05
   8.38920021         9.13848926E-05
   8.40120029         9.37927543E-05
   8.41320038         9.62654085E-05
   8.42520046         9.87652093E-05
   8.43719959         1.01257865E-04
   8.44919968         1.03712780E-04
   8.46119976         1.06103114E-04
   8.47319984         1.08405817E-04
   8.48519993         1.10601461E-04
   8.49720001         1.12674090E-04
   8.50920010         1.14611044E-04
   8.52120018         1.16402705E-04
   8.53320026         1.18042350E-04
   8.54520035         1.19525983E-04
   8.55720043         1.20852113E-04
   8.56919956         1.22021629E-04
   8.58119965         1.23037564E-04
   8.59319973         1.23904974E-04
   8.60519981         1.24630576E-04
   8.61719990         1.25222577E-04
   8.62919998         1.25690334E-04
   8.64120007         1.26044004E-04
   8.65320015         1.26294297E-04
   8.66520023         1.26452069E-04
   8.67720032         1.26528132E-04
   8.68920040         1.26533094E-04
   8.70119953         1.26477142E-04
   8.71319962         1.26370214E-04
   8.72519970         1.26221945E-04
   8.73719978         1.26041981E-04
   8.74919987         1.25840219E-04
   8.76119995         1.25627077E-04
   8.77320004         1.25413790E-04
   8.78520012         1.25212580E-04
   8.79720020         1.25036779E-04
   8.80920029         1.24900675E-04
   8.82120037         1.24819286E-04
   8.83320045         1.24807731E-04
   8.84519958         1.24880564E-04
   8.85719967         1.25050821E-04
   8.86919975         1.25328937E-04
   8.88119984         1.25721504E-04
   8.89319992         1.26230167E-04
   8.90520000         1.26850558E-04
   8.91720009         1.27571388E-04
   8.92920017         1.28373809E-04
   8.94120026         1.29231310E-04
   8.95320034         1.30109838E-04
   8.96520042         1.30968547E-04
   8.97719955         1.31760899E-04
   8.98919964         1.32436326E-04
   9.00119972         1.32942092E-04
   9.01319981         1.33225622E-04
   9.02519989         1.33236827E-04
   9.03719997         1.32930494E-04
   9.04920006         1.32268673E-04
   9.06120014         1.31222638E-04
   9.07320023         1.29774693E-04
   9.08520031         1.27919280E-04