 -0.622799993       0.00000000    
 -0.610800028       0.00000000    
 -0.598800004       0.00000000    
 -0.586799979       0.00000000    
 -0.574800014       0.00000000    
 -0.562799990      -1.43946684E-23
 -0.550800025       2.80468609E-23
 -0.538800001       1.00085946E-21
 -0.526799977       6.39349908E-21
 -0.514800012       2.40478578E-20
 -0.502799988       6.30640819E-20
 -0.490799993       1.18461608E-19
 -0.478799999       1.40610429E-19
 -0.466800004       3.12835972E-21
 -0.454800010      -4.92071497E-19
 -0.442799985      -1.51965693E-18
 -0.430799991      -3.01872285E-18
 -0.418799996      -4.42254224E-18
 -0.406800002      -4.51583911E-18
 -0.394800007      -1.69669974E-18
 -0.382800013       5.13835911E-18
 -0.370799989       1.51646823E-17
 -0.358799994       2.42370041E-17
 -0.346799999       2.46062873E-17
 -0.334800005       6.91753155E-18
 -0.322800010      -3.49993154E-17
 -0.310799986      -9.75417797E-17
 -0.298799992      -1.61872073E-16
 -0.286799997      -1.93849234E-16
 -0.274800003      -1.53161000E-16
 -0.262800008      -1.23491092E-17
 -0.250800014       2.19011803E-16
 -0.238800004       4.75561354E-16
 -0.226799995       6.36467121E-16
 -0.214800000       5.55489342E-16
 -0.202800006       1.21075366E-16
 -0.190799996      -6.69058725E-16
 -0.178800002      -1.64968094E-15
 -0.166800007      -2.48331341E-15
 -0.154799998      -2.73636281E-15
 -0.142800003      -2.03551970E-15
 -0.130799994      -2.64455783E-16
 -0.118799999       2.27487342E-15
 -0.106799997       4.82506559E-15
  -9.48000029E-02   6.32464594E-15
  -8.28000009E-02   5.74888630E-15
  -7.07999989E-02   2.55501475E-15
  -5.88000007E-02  -2.92883135E-15
  -4.67999987E-02  -9.35823684E-15
  -3.48000005E-02  -1.46084825E-14
  -2.28000004E-02  -1.64035164E-14
  -1.08000003E-02  -1.31820951E-14
   1.20000006E-03  -4.89999116E-15
   1.31999999E-02   6.58491333E-15
   2.52000000E-02   1.78094115E-14
   3.72000001E-02   2.47229215E-14
   4.91999984E-02   2.41686045E-14
   6.12000003E-02   1.53133799E-14
   7.32000023E-02   4.17992707E-16
   8.51999968E-02  -1.55166475E-14
   9.71999988E-02  -2.63154045E-14
  0.109200001      -2.70010573E-14
  0.121200003      -1.61377310E-14
  0.133200005       2.85611272E-15
  0.145199999       2.22070914E-14
  0.157199994       3.22872222E-14
  0.169200003       2.55069098E-14
  0.181199998       2.79495965E-16
  0.193200007      -3.65856332E-14
  0.205200002      -7.04303898E-14
  0.217199996      -8.27302094E-14
  0.229200006      -5.77584990E-14
  0.241200000       1.00259233E-14
  0.253199995       1.10532080E-13
  0.265199989       2.17047639E-13
  0.277200013       2.91135958E-13
  0.289200008       2.93052176E-13
  0.301200002       1.95320797E-13
  0.313199997      -4.42258263E-15
  0.325199991      -2.75732779E-13
  0.337199986      -5.56381384E-13
  0.349200010      -7.63602560E-13
  0.361200005      -8.14178857E-13
  0.373199999      -6.49089452E-13
  0.385199994      -2.56353749E-13
  0.397199988       3.14866541E-13
  0.409200013       9.54547205E-13
  0.421200007       1.50904755E-12
  0.433200002       1.81366673E-12
  0.445199996       1.73440364E-12
  0.457199991       1.20928723E-12
  0.469199985       2.78126887E-13
  0.481200010      -9.09244739E-13
  0.493200004      -2.11206508E-12
  0.505200028      -3.04452730E-12
  0.517199993      -3.44061260E-12
  0.529200017      -3.12363958E-12
  0.541199982      -2.06280522E-12
  0.553200006      -3.99873954E-13
  0.565199971       1.56505147E-12
  0.577199996       3.42997332E-12
  0.589200020       4.77938869E-12
  0.601199985       5.28419929E-12
  0.613200009       4.78721012E-12
  0.625199974       3.34970116E-12
  0.637199998       1.24342149E-12
  0.649200022      -1.11323277E-12
  0.661199987      -3.25990125E-12
  0.673200011      -4.81174172E-12
  0.685199976      -5.55602916E-12
  0.697200000      -5.49846453E-12
  0.709200025      -4.84349626E-12
  0.721199989      -3.91243678E-12
  0.733200014      -3.02277149E-12
  0.745199978      -2.36557128E-12
  0.757200003      -1.92074004E-12
  0.769200027      -1.44055612E-12
  0.781199992      -5.12871917E-13
  0.793200016       1.30805490E-12
  0.805199981       4.33585242E-12
  0.817200005       8.59608738E-12
  0.829200029       1.37243385E-11
  0.841199994       1.89500568E-11
  0.853200018       2.31776508E-11
  0.865199983       2.51536830E-11
  0.877200007       2.36908600E-11
  0.889199972       1.79095315E-11
  0.901199996       7.45684417E-12
  0.913200021      -7.32950679E-12
  0.925199986      -2.53356155E-11
  0.937200010      -4.46766825E-11
  0.949199975      -6.27989397E-11
  0.961199999      -7.66790798E-11
  0.973200023      -8.31173116E-11
  0.985199988      -7.91121960E-11
  0.997200012      -6.22922408E-11
   1.00919998      -3.13609069E-11
   1.02119994       1.35072630E-11
   1.03320003       7.03956129E-11
   1.04519999       1.35577161E-10
   1.05719995       2.03710701E-10
   1.06920004       2.68327610E-10
   1.08120000       3.22585930E-10
   1.09319997       3.60211388E-10
   1.10520005       3.76491172E-10
   1.11720002       3.69150488E-10
   1.12919998       3.38928247E-10
   1.14119995       2.89683166E-10
   1.15320003       2.27899255E-10
   1.16520000       1.61519506E-10
   1.17719996       9.80960105E-11
   1.18920004       4.23006387E-11
   1.20120001      -7.12459475E-12
   1.21319997      -6.08957884E-11
   1.22520006      -1.43134407E-10
   1.23720002      -2.95744984E-10
   1.24919999      -5.83328941E-10
   1.26119995      -1.09888343E-09
   1.27320004      -1.97067496E-09
   1.28520000      -3.37085537E-09
   1.29719996      -5.52653789E-09
   1.30920005      -8.73425332E-09
   1.32120001      -1.33787719E-08
   1.33319998      -1.99574082E-08
   1.34519994      -2.91108719E-08
   1.35720003      -4.16617247E-08
   1.36919999      -5.86610689E-08
   1.38119996      -8.14439147E-08
   1.39320004      -1.11692714E-07
   1.40520000      -1.51508360E-07
   1.41719997      -2.03486408E-07
   1.42920005      -2.70796079E-07
   1.44120002      -3.57257818E-07
   1.45319998      -4.67415191E-07
   1.46519995      -6.06595620E-07
   1.47720003      -7.80954622E-07
   1.48920000      -9.97497750E-07
   1.50119996      -1.26407372E-06
   1.51320004      -1.58933562E-06
   1.52520001      -1.98266457E-06
   1.53719997      -2.45405454E-06
   1.54920006      -3.01395539E-06
   1.56120002      -3.67307644E-06
   1.57319999      -4.44215311E-06
   1.58519995      -5.33168122E-06
   1.59720004      -6.35162496E-06
   1.60920000      -7.51111111E-06
   1.62119997      -8.81811866E-06
   1.63320005      -1.02791728E-05
   1.64520001      -1.18990656E-05
   1.65719998      -1.36806066E-05
   1.66919994      -1.56244150E-05
   1.68120003      -1.77287820E-05
   1.69319999      -1.99895876E-05
   1.70519996      -2.24002870E-05
   1.71720004      -2.49519762E-05
   1.72920001      -2.76335450E-05
   1.74119997      -3.04318673E-05
   1.75320005      -3.33320895E-05
   1.76520002      -3.63179388E-05
   1.77719998      -3.93721166E-05
   1.78919995      -4.24766768E-05
   1.80120003      -4.56134403E-05
   1.81320000      -4.87643993E-05
   1.82519996      -5.19121240E-05
   1.83720005      -5.50400910E-05
   1.84920001      -5.81330205E-05
   1.86119998      -6.11771247E-05
   1.87320006      -6.41603183E-05
   1.88520002      -6.70723457E-05
   1.89719999      -6.99048760E-05
   1.90919995      -7.26515063E-05
   1.92120004      -7.53077329E-05
   1.93320000      -7.78708636E-05
   1.94519997      -8.03399162E-05
   1.95720005      -8.27154290E-05
   1.96920002      -8.49993012E-05
   1.98119998      -8.71946395E-05
   1.99319994      -8.93054894E-05
   2.00519991      -9.13367621E-05
   2.01719999      -9.32939438E-05
   2.02920008      -9.51830298E-05
   2.04119992      -9.70103647E-05
   2.05320001      -9.87825260E-05
   2.06520009      -1.00506230E-04
   2.07719994      -1.02188293E-04
   2.08920002      -1.03835569E-04
   2.10120010      -1.05454892E-04
   2.11319995      -1.07053093E-04
   2.12520003      -1.08636952E-04
   2.13720012      -1.10213135E-04
   2.14919996      -1.11788206E-04
   2.16120005      -1.13368536E-04
   2.17319989      -1.14960247E-04
   2.18519998      -1.16569070E-04
   2.19720006      -1.18200274E-04
   2.20919991      -1.19858523E-04
   2.22119999      -1.21547688E-04
   2.23320007      -1.23270700E-04
   2.24519992      -1.25029401E-04
   2.25720000      -1.26824438E-04
   2.26920009      -1.28655083E-04
   2.28119993      -1.30519285E-04
   2.29320002      -1.32413654E-04
   2.30520010      -1.34333546E-04
   2.31719995      -1.36273375E-04
   2.32920003      -1.38226838E-04
   2.34120011      -1.40187403E-04
   2.35319996      -1.42148812E-04
   2.36520004      -1.44105608E-04
   2.37719989      -1.46053804E-04
   2.38919997      -1.47991479E-04
   2.40120006      -1.49919317E-04
   2.41319990      -1.51841028E-04
   2.42519999      -1.53763700E-04
   2.43720007      -1.55697926E-04
   2.44919991      -1.57657501E-04
   2.46120000      -1.59659248E-04
   2.47320008      -1.61722128E-04
   2.48519993      -1.63866338E-04
   2.49720001      -1.66112048E-04
   2.50920010      -1.68477884E-04
   2.52119994      -1.70979154E-04
   2.53320003      -1.73626075E-04
   2.54520011      -1.76421730E-04
   2.55719995      -1.79360140E-04
   2.56920004      -1.82424337E-04
   2.58119988      -1.85584664E-04
   2.59319997      -1.88797130E-04
   2.60520005      -1.92002190E-04
   2.61719990      -1.95123823E-04
   2.62919998      -1.98068883E-04
   2.64120007      -2.00726950E-04
   2.65319991      -2.02970608E-04
   2.66520000      -2.04656186E-04
   2.67720008      -2.05624863E-04
   2.68919992      -2.05704389E-04
   2.70120001      -2.04711207E-04
   2.71320009      -2.02453113E-04
   2.72519994      -1.98732378E-04
   2.73720002      -1.93349348E-04
   2.74920011      -1.86106481E-04
   2.76119995      -1.76812813E-04
   2.77320004      -1.65288802E-04
   2.78520012      -1.51371365E-04
   2.79719996      -1.34919246E-04
   2.80920005      -1.15818199E-04
   2.82119989      -9.39863821E-05
   2.83319998      -6.93792535E-05
   2.84520006      -4.19942589E-05
   2.85719991      -1.18747657E-05
   2.86919999       2.08866531E-05
   2.88120008       5.61458692E-05
   2.89319992       9.37059885E-05
   2.90520000       1.33317226E-04
   2.91720009       1.74678105E-04
   2.92919993       2.17438064E-04
   2.94120002       2.61201058E-04
   2.95320010       3.05530819E-04
   2.96519995       3.49957030E-04
   2.97720003       3.93982598E-04
   2.98920012       4.37092123E-04
   3.00119996       4.78760572E-04
   3.01320004       5.18463086E-04
   3.02519989       5.55684557E-04
   3.03719997       5.89929870E-04
   3.04920006       6.20733423E-04
   3.06119990       6.47668843E-04
   3.07319999       6.70357782E-04
   3.08520007       6.88478292E-04
   3.09719992       7.01771758E-04
   3.10920000       7.10049120E-04
   3.12120008       7.13195826E-04
   3.13319993       7.11174682E-04
   3.14520001       7.04028120E-04
   3.15720010       6.91878144E-04
   3.16919994       6.74924871E-04
   3.18120003       6.53443218E-04
   3.19320011       6.27778063E-04
   3.20519996       5.98337559E-04
   3.21720004       5.65585156E-04
   3.22919989       5.30030404E-04
   3.24119997       4.92217892E-04
   3.25320005       4.52716544E-04
   3.26519990       4.12107067E-04
   3.27719998       3.70970200E-04
   3.28920007       3.29874281E-04
   3.30119991       2.89363903E-04
   3.31320000       2.49948789E-04
   3.32520008       2.12094266E-04
   3.33719993       1.76212736E-04
   3.34920001       1.42656980E-04
   3.36120009       1.11715162E-04
   3.37319994       8.36076506E-05
   3.38520002       5.84858608E-05
   3.39720011       3.64328625E-05
   3.40919995       1.74658835E-05
   3.42120004       1.54036718E-06
   3.43319988      -1.14444674E-05
   3.44519997      -2.16389253E-05
   3.45720005      -2.92351597E-05
   3.46919990      -3.44587606E-05
   3.48119998      -3.75601157E-05
   3.49320006      -3.88055705E-05
   3.50519991      -3.84687482E-05
   3.51719999      -3.68223227E-05
   3.52920008      -3.41304476E-05
   3.54119992      -3.06419606E-05
   3.55320001      -2.65846829E-05
   3.56520009      -2.21607825E-05
   3.57719994      -1.75434525E-05
   3.58920002      -1.28748316E-05
   3.60120010      -8.26529049E-06
   3.61319995      -3.79400831E-06
   3.62520003       4.89207935E-07
   3.63720012       4.56097132E-06
   3.64919996       8.42038116E-06
   3.66120005       1.20842906E-05
   3.67319989       1.55820144E-05
   3.68519998       1.89497223E-05
   3.69720006       2.22248054E-05
   3.70919991       2.54404731E-05
   3.72119999       2.86209051E-05
   3.73320007       3.17771592E-05
   3.74519992       3.49041111E-05
   3.75720000       3.79785561E-05
   3.76920009       4.09586464E-05
   3.78119993       4.37846247E-05
   3.79320002       4.63809374E-05
   3.80520010       4.86595491E-05
   3.81719995       5.05243042E-05
   3.82920003       5.18761699E-05
   3.84120011       5.26189760E-05
   3.85319996       5.26654694E-05
   3.86520004       5.19432324E-05
   3.87719989       5.04002091E-05
   3.88919997       4.80095223E-05
   3.90120006       4.47732891E-05
   3.91319990       4.07252192E-05
   3.92519999       3.59318401E-05
   3.93720007       3.04922305E-05
   3.94919991       2.45362899E-05
   3.96120000       1.82215408E-05
   3.97320008       1.17286045E-05
   3.98519993       5.25553469E-06
   3.99720001      -9.88791612E-07
   4.00920010      -6.79193636E-06
   4.02120018      -1.19455372E-05
   4.03319979      -1.62530050E-05
   4.04519987      -1.95369921E-05
   4.05719995      -2.16463141E-05
   4.06920004      -2.24620671E-05
   4.08120012      -2.19026933E-05
   4.09320021      -1.99278275E-05
   4.10519981      -1.65407328E-05
   4.11719990      -1.17892750E-05
   4.12919998      -5.76538378E-06
   4.14120007       1.39699443E-06
   4.15320015       9.52535083E-06
   4.16520023       1.84133696E-05
   4.17719984       2.78268399E-05
   4.18919992       3.75105046E-05
   4.20120001       4.71956300E-05
   4.21320009       5.66080198E-05
   4.22520018       6.54763135E-05
   4.23719978       7.35401627E-05
   4.24919987       8.05581440E-05
   4.26119995       8.63151654E-05
   4.27320004       9.06290661E-05
   4.28520012       9.33563060E-05
   4.29720020       9.43965715E-05
   4.30919981       9.36961296E-05
   4.32119989       9.12498654E-05
   4.33319998       8.71019947E-05
   4.34520006       8.13453662E-05
   4.35720015       7.41193508E-05
   4.36920023       6.56064731E-05
   4.38119984       5.60277258E-05
   4.39319992       4.56367452E-05
   4.40520000       3.47129826E-05
   4.41720009       2.35540028E-05
   4.42920017       1.24671251E-05
   4.44119978       1.76061781E-06
   4.45319986      -8.26531323E-06
   4.46519995      -1.73274839E-05
   4.47720003      -2.51683596E-05
   4.48920012      -3.15641082E-05
   4.50120020      -3.63317704E-05
   4.51319981      -3.93352966E-05
   4.52519989      -4.04902457E-05
   4.53719997      -3.97669137E-05
   4.54920006      -3.71917304E-05
   4.56120014      -3.28468777E-05
   4.57320023      -2.68680305E-05
   4.58519983      -1.94403183E-05
   4.59719992      -1.07925589E-05
   4.60920000      -1.19000595E-06
   4.62120008       9.07420690E-06
   4.63320017       1.96885685E-05
   4.64519978       3.03333400E-05
   4.65719986       4.06909203E-05
   4.66919994       5.04561031E-05
   4.68120003       5.93457989E-05
   4.69320011       6.71078888E-05
   4.70520020       7.35288486E-05
   4.71719980       7.84399163E-05
   4.72919989       8.17215841E-05
   4.74119997       8.33062659E-05
   4.75320005       8.31791185E-05
   4.76520014       8.13770457E-05
   4.77720022       7.79859547E-05
   4.78919983       7.31364999E-05
   4.80119991       6.69985093E-05
   4.81320000       5.97743128E-05
   4.82520008       5.16913933E-05
   4.83720016       4.29945867E-05
   4.84919977       3.39381113E-05
   4.86119986       2.47777880E-05
   4.87319994       1.57636841E-05
   4.88520002       7.13331701E-06
   4.89720011      -8.94310517E-07
   4.90920019      -8.12376766E-06
   4.92119980      -1.43873121E-05
   4.93319988      -1.95479934E-05
   4.94519997      -2.35017887E-05
   4.95720005      -2.61788045E-05
   4.96920013      -2.75436360E-05
   4.98120022      -2.75949169E-05
   4.99319983      -2.63641759E-05
   5.00519991      -2.39140663E-05
   5.01719999      -2.03360087E-05
   5.02920008      -1.57473132E-05
   5.04120016      -1.02878430E-05
   5.05319977      -4.11622432E-06
   5.06519985       2.59429635E-06
   5.07719994       9.66036350E-06
   5.08920002       1.68932493E-05
   5.10120010       2.41037633E-05
   5.11320019       3.11072254E-05
   5.12519979       3.77283468E-05
   5.13719988       4.38058814E-05
   5.14919996       4.91969040E-05
   5.16120005       5.37805172E-05
   5.17320013       5.74608748E-05
   5.18520021       6.01693609E-05
   5.19719982       6.18658451E-05
   5.20919991       6.25389293E-05
   5.22119999       6.22052175E-05
   5.23320007       6.09076305E-05
   5.24520016       5.87128307E-05
   5.25719976       5.57079547E-05
   5.26919985       5.19968307E-05
   5.28119993       4.76958085E-05
   5.29320002       4.29295069E-05
   5.30520010       3.78266741E-05
   5.31720018       3.25162800E-05
   5.32919979       2.71241188E-05
   5.34119987       2.17698998E-05
   5.35319996       1.65650199E-05
   5.36520004       1.16109504E-05
   5.37720013       6.99822658E-06
   5.38920021       2.80599215E-06
   5.40119982      -8.98071960E-07
   5.41319990      -4.05751143E-06
   5.42519999      -6.62671300E-06
   5.43720007      -8.57051782E-06
   5.44920015      -9.86391751E-06
   5.46120024      -1.04919227E-05
   5.47319984      -1.04496521E-05
   5.48519993      -9.74262366E-06
   5.49720001      -8.38721644E-06
   5.50920010      -6.41122961E-06
   5.52120018      -3.85441535E-06
   5.53319979      -7.68889208E-07
   5.54519987       2.78071821E-06
   5.55719995       6.71748512E-06
   5.56920004       1.09528710E-05
   5.58120012       1.53879337E-05
   5.59320021       1.99150945E-05
   5.60519981       2.44204530E-05
   5.61719990       2.87865878E-05
   5.62919998       3.28957722E-05
   5.64120007       3.66334461E-05
   5.65320015       3.98918164E-05
   5.66520023       4.25734070E-05
   5.67719984       4.45943697E-05
   5.68919992       4.58874056E-05
   5.70120001       4.64041586E-05
   5.71320009       4.61169366E-05
   5.72520018       4.50196858E-05
   5.73719978       4.31282133E-05
   5.74919987       4.04795901E-05
   5.76119995       3.71308779E-05
   5.77320004       3.31571282E-05
   5.78520012       2.86489012E-05
   5.79720020       2.37093209E-05
   5.80919981       1.84508572E-05
   5.82119989       1.29919845E-05
   5.83319998       7.45382022E-06
   5.84520006       1.95691632E-06
   5.85720015      -3.38171844E-06
   5.86920023      -8.45129853E-06
   5.88119984      -1.31495308E-05
   5.89319992      -1.73844910E-05
   5.90520000      -2.10760973E-05
   5.91720009      -2.41571724E-05
   5.92920017      -2.65741583E-05
   5.94119978      -2.82874989E-05
   5.95319986      -2.92717814E-05
   5.96519995      -2.95156333E-05
   5.97720003      -2.90214666E-05
   5.98920012      -2.78050848E-05
   6.00120020      -2.58951750E-05
   6.01319981      -2.33327119E-05
   6.02519989      -2.01702569E-05
   6.03719997      -1.64711601E-05
   6.04920006      -1.23086256E-05
   6.06120014      -7.76462821E-06
   6.07320023      -2.92865434E-06
   6.08519983       2.10378948E-06
   6.09719992       7.23287849E-06
   6.10920000       1.23564141E-05
   6.12120008       1.73719964E-05
   6.13320017       2.21793853E-05
   6.14519978       2.66830120E-05
   6.15719986       3.07945520E-05
   6.16919994       3.44354703E-05
   6.18120003       3.75394593E-05
   6.19320011       4.00545905E-05
   6.20520020       4.19451062E-05
   6.21719980       4.31927547E-05
   6.22919989       4.37974741E-05
   6.24119997       4.37774725E-05
   6.25320005       4.31685621E-05
   6.26520014       4.20227771E-05
   6.27720022       4.04063139E-05
   6.28919983       3.83968545E-05
   6.30119991       3.60804188E-05
   6.31320000       3.35478362E-05
   6.32520008       3.08911331E-05
   6.33720016       2.81998837E-05
   6.34919977       2.55578161E-05
   6.36119986       2.30398582E-05
   6.37319994       2.07096982E-05
   6.38520002       1.86180569E-05
   6.39720011       1.68017068E-05
   6.40920019       1.52832818E-05
   6.42119980       1.40718093E-05
   6.43319988       1.31639417E-05
   6.44519997       1.25457200E-05
   6.45720005       1.21947478E-05
   6.46920013       1.20825625E-05
   6.48120022       1.21770399E-05
   6.49319983       1.24446606E-05
   6.50519991       1.28524543E-05
   6.51719999       1.33695321E-05
   6.52920008       1.39681224E-05
   6.54120016       1.46240609E-05
   6.55319977       1.53168094E-05
   6.56519985       1.60290292E-05
   6.57719994       1.67458220E-05
   6.58920002       1.74537927E-05
   6.60120010       1.81400392E-05
   6.61320019       1.87912447E-05
   6.62519979       1.93929754E-05
   6.63719988       1.99292863E-05
   6.64919996       2.03826985E-05
   6.66120005       2.07345947E-05
   6.67320013       2.09659920E-05
   6.68520021       2.10586531E-05
   6.69719982       2.09964419E-05
   6.70919991       2.07668054E-05
   6.72119999       2.03622603E-05
   6.73320007       1.97817153E-05
   6.74520016       1.90315477E-05
   6.75719976       1.81262621E-05
   6.76919985       1.70887142E-05
   6.78119993       1.59498031E-05
   6.79320002       1.47476485E-05
   6.80520010       1.35263017E-05
   6.81720018       1.23340324E-05
   6.82919979       1.12213156E-05
   6.84119987       1.02386366E-05
   6.85319996       9.43424675E-06
   6.86520004       8.85201189E-06
   6.87720013       8.52947142E-06
   6.88920021       8.49623848E-06
   6.90119982       8.77281036E-06
   6.91319990       9.36984907E-06
   6.92519999       1.02879658E-05
   6.93720007       1.15179537E-05
   6.94920015       1.30414855E-05
   6.96120024       1.48321351E-05
   6.97319984       1.68566785E-05
   6.98519993       1.90765422E-05
   6.99720001       2.14493066E-05
   7.00920010       2.39301644E-05
   7.02120018       2.64732644E-05
   7.03319979       2.90328589E-05
   7.04519987       3.15642646E-05
   7.05719995       3.40245824E-05
   7.06920004       3.63732215E-05
   7.08120012       3.85722742E-05
   7.09320021       4.05867613E-05
   7.10519981       4.23848251E-05
   7.11719990       4.39379437E-05
   7.12919998       4.52211716E-05
   7.14120007       4.62135176E-05
   7.15320015       4.68983853E-05
   7.16520023       4.72641404E-05
   7.17719984       4.73047548E-05
   7.18919992       4.70204686E-05
   7.20120001       4.64184086E-05
   7.21320009       4.55130830E-05
   7.22520018       4.43266872E-05
   7.23719978       4.28891362E-05
   7.24919987       4.12377631E-05
   7.26119995       3.94166600E-05
   7.27320004       3.74756528E-05
   7.28520012       3.54689219E-05
   7.29720020       3.34533142E-05
   7.30919981       3.14864083E-05
   7.32119989       2.96244689E-05
   7.33319998       2.79203341E-05
   7.34520006       2.64214068E-05
   7.35720015       2.51678593E-05
   7.36920023       2.41911184E-05
   7.38119984       2.35127700E-05
   7.39319992       2.31439244E-05
   7.40520000       2.30850528E-05
   7.41720009       2.33263490E-05
   7.42920017       2.38485100E-05
   7.44119978       2.46239360E-05
   7.45319986       2.56182357E-05
   7.46519995       2.67919313E-05
   7.47720003       2.81022785E-05
   7.48920012       2.95050850E-05
   7.50120020       3.09564275E-05
   7.51319981       3.24142093E-05
   7.52519989       3.38394784E-05
   7.53719997       3.51974777E-05
   7.54920006       3.64584121E-05
   7.56120014       3.75979143E-05
   7.57320023       3.85972962E-05
   7.58519983       3.94435301E-05
   7.59719992       4.01290708E-05
   7.60920000       4.06515501E-05
   7.62120008       4.10134089E-05
   7.63320017       4.12214395E-05
   7.64519978       4.12863410E-05
   7.65719986       4.12223017E-05
   7.66919994       4.10465036E-05
   7.68120003       4.07787011E-05
   7.69320011       4.04407256E-05
   7.70520020       4.00559620E-05
   7.71719980       3.96487885E-05
   7.72919989       3.92438997E-05
   7.74119997       3.88655972E-05
   7.75320005       3.85369749E-05
   7.76520014       3.82790786E-05
   7.77720022       3.81100181E-05
   7.78919983       3.80441015E-05
   7.80119991       3.80910242E-05
   7.81320000       3.82551843E-05
   7.82520008       3.85351377E-05
   7.83720016       3.89232773E-05
   7.84919977       3.94057934E-05
   7.86119986       3.99629062E-05
   7.87319994       4.05693863E-05
   7.88520002       4.11954243E-05
   7.89720011       4.18077288E-05
   7.90920019       4.23708989E-05
   7.92119980       4.28489475E-05
   7.93319988       4.32069319E-05
   7.94519997       4.34126159E-05
   7.95720005       4.34380636E-05
   7.96920013       4.32610832E-05
   7.98120022       4.28664898E-05
   7.99319983       4.22470148E-05
   8.00520039       4.14039641E-05
   8.01720047       4.03474114E-05
   8.02919960       3.90960995E-05
   8.04119968       3.76768694E-05
   8.05319977       3.61237690E-05
   8.06519985       3.44768196E-05
   8.07719994       3.27804883E-05
   8.08920002       3.10819887E-05
   8.10120010       2.94294259E-05
   8.11320019       2.78699117E-05
   8.12520027       2.64477239E-05
   8.13720036       2.52025875E-05
   8.14920044       2.41681864E-05
   8.16119957       2.33709452E-05
   8.17319965       2.28291628E-05
   8.18519974       2.25525164E-05
   8.19719982       2.25419990E-05
   8.20919991       2.27902565E-05
   8.22119999       2.32823113E-05
   8.23320007       2.39966503E-05
   8.24520016       2.49065815E-05
   8.25720024       2.59817625E-05
   8.26920033       2.71898534E-05
   8.28120041       2.84981234E-05
   8.29319954       2.98749437E-05
   8.30519962       3.12910597E-05
   8.31719971       3.27205562E-05
   8.32919979       3.41414634E-05
   8.34119987       3.55359807E-05
   8.35319996       3.68902947E-05
   8.36520004       3.81940663E-05
   8.37720013       3.94395902E-05
   8.38920021       4.06207655E-05
   8.40120029       4.17319643E-05
   8.41320038       4.27669111E-05
   8.42520046       4.37177005E-05
   8.43719959       4.45740516E-05
   8.44919968       4.53229441E-05
   8.46119976       4.59486146E-05
   8.47319984       4.64330187E-05
   8.48519993       4.67567406E-05
   8.49720001       4.69002116E-05
   8.50920010       4.68452599E-05
   8.52120018       4.65768026E-05
   8.53320026       4.60845440E-05
   8.54520035       4.53645735E-05
   8.55720043       4.44206307E-05
   8.56919956       4.32650231E-05
   8.58119965       4.19189637E-05
   8.59319973       4.04124075E-05
   8.60519981       3.87832188E-05
   8.61719990       3.70758171E-05
   8.62919998       3.53392788E-05
   8.64120007       3.36250669E-05
   8.65320015       3.19845312E-05
   8.66520023       3.04662735E-05
   8.67720032       2.91136730E-05
   8.68920040       2.79626711E-05
   8.70119953       2.70399851E-05
   8.71319962       2.63618876E-05
   8.72519970       2.59336393E-05
   8.73719978       2.57495722E-05
   8.74919987       2.57938500E-05
   8.76119995       2.60417928E-05
   8.77320004       2.64616774E-05
   8.78520012       2.70168566E-05
   8.79720020       2.76680184E-05
   8.80920029       2.83754289E-05
   8.82120037       2.91009746E-05
   8.83320045       2.98098621E-05
   8.84519958       3.04718633E-05
   8.85719967       3.10620380E-05
   8.86919975       3.15609032E-05
   8.88119984       3.19540995E-05
   8.89319992       3.22316118E-05
   8.90520000       3.23866589E-05
   8.91720009       3.24144276E-05
   8.92920017       3.23107743E-05
   8.94120026       3.20710969E-05
   8.95320034       3.16894620E-05
   8.96520042       3.11581935E-05
   8.97719955       3.04679088E-05
   8.98919964       2.96080725E-05
   9.00119972       2.85680617E-05
   9.01319981       2.73386304E-05
   9.02519989       2.59136468E-05
   9.03719997       2.42919941E-05
   9.04920006       2.24794112E-05
   9.06120014       2.04901025E-05
   9.07320023       1.83479424E-05
   9.08520031       1.60871205E-05
   9.09720039       1.37520974E-05
   9.10919952       1.13968472E-05
   9.12119961       9.08333823E-06
   9.13319969       6.87933789E-06
   9.14519978       4.85564260E-06
   9.15719986       3.08289623E-06
   9.16919994       1.62819788E-06
   9.18120003       5.51717903E-07
   9.19320011      -9.64526947E-08
   9.20520020      -2.79007196E-07
   9.21720028       2.64979221E-08
   9.22920036       8.26327721E-07
   9.24120045       2.11010365E-06
   9.25319958       3.85120666E-06
   9.26519966       6.00801195E-06
   9.27719975       8.52586345E-06
   9.28919983       1.13396345E-05
   9.30119991       1.43766993E-05
   9.31320000       1.75601072E-05
   9.32520008       2.08117617E-05
   9.33720016       2.40553964E-05
   9.34920025       2.72192137E-05
   9.36120033       3.02380031E-05
   9.37320042       3.30547446E-05
   9.38519955       3.56215787E-05
   9.39719963       3.79002449E-05
   9.40919971       3.98620323E-05
   9.42119980       4.14872884E-05
   9.43319988       4.27647174E-05
   9.44519997       4.36904957E-05
