 -0.622799993         1.00000002E-24
 -0.610800028         1.00000002E-24
 -0.598800004         1.00000002E-24
 -0.586799979         1.00000002E-24
 -0.574800014         1.00000012E-24
 -0.562799990         1.95427226E-22
 -0.550800025         1.14816971E-21
 -0.538800001         1.90544588E-21
 -0.526799977        -7.32146769E-21
 -0.514800012        -5.66565858E-20
 -0.502799988        -1.96624787E-19
 -0.490799993        -4.54442585E-19
 -0.478799999        -7.18732375E-19
 -0.466800004        -5.79191762E-19
 -0.454800010         7.45120263E-19
 -0.442799985         4.15164059E-18
 -0.430799991         9.85705806E-18
 -0.418799996         1.61110315E-17
 -0.406800002         1.80177805E-17
 -0.394800007         7.66946148E-18
 -0.382800013        -2.29936209E-17
 -0.370799989        -7.59165190E-17
 -0.358799994        -1.38539954E-16
 -0.346799999        -1.77345697E-16
 -0.334800005        -1.39651844E-16
 -0.322800010         3.02648975E-17
 -0.310799986         3.59093795E-16
 -0.298799992         8.03665813E-16
 -0.286799997         1.21928752E-15
 -0.274800003         1.36245207E-15
 -0.262800008         9.50575525E-16
 -0.250800014        -2.15643259E-16
 -0.238800004        -2.09216227E-15
 -0.226799995        -4.25371942E-15
 -0.214800000        -5.86120118E-15
 -0.202800006        -5.81038301E-15
 -0.190799996        -3.08948491E-15
 -0.178800002         2.71357275E-15
 -0.166800007         1.09129387E-14
 -0.154799998         1.94652356E-14
 -0.142800003         2.51742596E-14
 -0.130799994         2.44775767E-14
 -0.118799999         1.47277041E-14
 -0.106799997        -4.36671912E-15
  -9.48000029E-02    -2.96710119E-14
  -8.28000009E-02    -5.44992789E-14
  -7.07999989E-02    -6.98250187E-14
  -5.88000007E-02    -6.68139182E-14
  -4.67999987E-02    -4.01372085E-14
  -3.48000005E-02     8.94890309E-15
  -2.28000004E-02     7.09825536E-14
  -1.08000003E-02     1.29151044E-13
   1.20000006E-03     1.62984399E-13
   1.31999999E-02     1.54294844E-13
   2.52000000E-02     9.38079773E-14
   3.72000001E-02    -1.36713269E-14
   4.91999984E-02    -1.47656315E-13
   6.12000003E-02    -2.75206290E-13
   7.32000023E-02    -3.58813212E-13
   8.51999968E-02    -3.67144168E-13
   9.71999988E-02    -2.85578256E-13
  0.109200001        -1.23092021E-13
  0.121200003         8.72000361E-14
  0.133200005         2.94778660E-13
  0.145199999         4.44383327E-13
  0.157199994         4.91222026E-13
  0.169200003         4.14262483E-13
  0.181199998         2.23465628E-13
  0.193200007        -4.14730709E-14
  0.205200002        -3.20734216E-13
  0.217199996        -5.49603874E-13
  0.229200006        -6.74858552E-13
  0.241200000        -6.67569570E-13
  0.253199995        -5.28856039E-13
  0.265199989        -2.87458859E-13
  0.277200013         9.43052856E-15
  0.289200008         3.08755327E-13
  0.301200002         5.63646027E-13
  0.313199997         7.41757567E-13
  0.325199991         8.28400011E-13
  0.337199986         8.24846972E-13
  0.349200010         7.43509095E-13
  0.361200005         6.01995721E-13
  0.373199999         4.17547128E-13
  0.385199994         2.02436307E-13
  0.397199988        -3.96241301E-14
  0.409200013        -3.15854168E-13
  0.421200007        -6.44487502E-13
  0.433200002        -1.05059733E-12
  0.445199996        -1.55564244E-12
  0.457199991        -2.16020496E-12
  0.469199985        -2.82244193E-12
  0.481200010        -3.43857581E-12
  0.493200004        -3.83463270E-12
  0.505200028        -3.77890557E-12
  0.517199993        -3.02102484E-12
  0.529200017        -1.35622427E-12
  0.541199982         1.29594903E-12
  0.553200006         4.81766883E-12
  0.565199971         8.84703422E-12
  0.577199996         1.27814643E-11
  0.589200020         1.58417255E-11
  0.601199985         1.71931826E-11
  0.613200009         1.61046922E-11
  0.625199974         1.21130371E-11
  0.637199998         5.15613637E-12
  0.649200022        -4.35644923E-12
  0.661199987        -1.55530883E-11
  0.673200011        -2.71880712E-11
  0.685199976        -3.77882239E-11
  0.697200000        -4.58267486E-11
  0.709200025        -4.98912509E-11
  0.721199989        -4.88217418E-11
  0.733200014        -4.18098785E-11
  0.745199978        -2.84673327E-11
  0.757200003        -8.88260646E-12
  0.769200027         1.63137542E-11
  0.781199992         4.58659118E-11
  0.793200016         7.78015846E-11
  0.805199981         1.09365565E-10
  0.817200005         1.37027778E-10
  0.829200029         1.56620911E-10
  0.841199994         1.63651440E-10
  0.853200018         1.53799251E-10
  0.865199983         1.23581506E-10
  0.877200007         7.11110823E-11
  0.889199972        -3.15724530E-12
  0.901199996        -9.58234395E-11
  0.913200021        -2.00212152E-10
  0.925199986        -3.06422082E-10
  0.937200010        -4.01814942E-10
  0.949199975        -4.71941819E-10
  0.961199999        -5.01839459E-10
  0.973200023        -4.77569095E-10
  0.985199988        -3.87831711E-10
  0.997200012        -2.25475374E-10
   1.00919998         1.12759689E-11
   1.02119994         3.18004789E-10
   1.03320003         6.83773094E-10
   1.04519999         1.09130749E-09
   1.05719995         1.51766322E-09
   1.06920004         1.93528749E-09
   1.08120000         2.31338193E-09
   1.09319997         2.61943267E-09
   1.10520005         2.82076362E-09
   1.11720002         2.88593505E-09
   1.12919998         2.78573298E-09
   1.14119995         2.49343213E-09
   1.15320003         1.98385885E-09
   1.16520000         1.23066146E-09
   1.17719996         2.01015871E-10
   1.18920004        -1.15317811E-09
   1.20120001        -2.90877211E-09
   1.21319997        -5.19084065E-09
   1.22520006        -8.19972001E-09
   1.23720002        -1.22472983E-08
   1.24919999        -1.78045880E-08
   1.26119995        -2.55626329E-08
   1.27320004        -3.65087764E-08
   1.28520000        -5.20203400E-08
   1.29719996        -7.39771764E-08
   1.30920005        -1.04894035E-07
   1.32120001        -1.48072274E-07
   1.33319998        -2.07769403E-07
   1.34519994        -2.89382797E-07
   1.35720003        -3.99641891E-07
   1.36919999        -5.46801346E-07
   1.38119996        -7.40825215E-07
   1.39320004        -9.93548383E-07
   1.40520000        -1.31880336E-06
   1.41719997        -1.73249475E-06
   1.42920005        -2.25260396E-06
   1.44120002        -2.89910895E-06
   1.45319998        -3.69380109E-06
   1.46519995        -4.65998437E-06
   1.47720003        -5.82204575E-06
   1.48920000        -7.20489106E-06
   1.50119996        -8.83324628E-06
   1.51320004        -1.07308269E-05
   1.52520001        -1.29193995E-05
   1.53719997        -1.54177505E-05
   1.54920006        -1.82406002E-05
   1.56120002        -2.13975018E-05
   1.57319999        -2.48917768E-05
   1.58519995        -2.87195198E-05
   1.59720004        -3.28687820E-05
   1.60920000        -3.73189105E-05
   1.62119997        -4.20401520E-05
   1.63320005        -4.69935658E-05
   1.64520001        -5.21312541E-05
   1.65719998        -5.73969301E-05
   1.66919994        -6.27269110E-05
   1.68120003        -6.80513913E-05
   1.69319999        -7.32961271E-05
   1.70519996        -7.83843425E-05
   1.71720004        -8.32389051E-05
   1.72920001        -8.77845960E-05
   1.74119997        -9.19505110E-05
   1.75320005        -9.56723306E-05
   1.76520002        -9.88944885E-05
   1.77719998        -1.01572063E-04
   1.78919995        -1.03672333E-04
   1.80120003        -1.05175910E-04
   1.81320000        -1.06077379E-04
   1.82519996        -1.06385356E-04
   1.83720005        -1.06122163E-04
   1.84920001        -1.05322753E-04
   1.86119998        -1.04033388E-04
   1.87320006        -1.02309699E-04
   1.88520002        -1.00214565E-04
   1.89719999        -9.78156677E-05
   1.90919995        -9.51830298E-05
   1.92120004        -9.23865227E-05
   1.93320000        -8.94935511E-05
   1.94519997        -8.65669863E-05
   1.95720005        -8.36634354E-05
   1.96920002        -8.08319674E-05
   1.98119998        -7.81133058E-05
   1.99319994        -7.55394358E-05
   2.00519991        -7.31337932E-05
   2.01719999        -7.09117885E-05
   2.02920008        -6.88816726E-05
   2.04119992        -6.70457666E-05
   2.05320001        -6.54017131E-05
   2.06520009        -6.39439168E-05
   2.07719994        -6.26648034E-05
   2.08920002        -6.15560348E-05
   2.10120010        -6.06094327E-05
   2.11319995        -5.98176630E-05
   2.12520003        -5.91745775E-05
   2.13720012        -5.86752758E-05
   2.14919996        -5.83158580E-05
   2.16120005        -5.80929482E-05
   2.17319989        -5.80030537E-05
   2.18519998        -5.80418346E-05
   2.19720006        -5.82033608E-05
   2.20919991        -5.84794689E-05
   2.22119999        -5.88592520E-05
   2.23320007        -5.93288132E-05
   2.24519992        -5.98712613E-05
   2.25720000        -6.04669913E-05
   2.26920009        -6.10942880E-05
   2.28119993        -6.17301630E-05
   2.29320002        -6.23513843E-05
   2.30520010        -6.29357455E-05
   2.31719995        -6.34632597E-05
   2.32920003        -6.39174541E-05
   2.34120011        -6.42864688E-05
   2.35319996        -6.45639957E-05
   2.36520004        -6.47499692E-05
   2.37719989        -6.48509013E-05
   2.38919997        -6.48798814E-05
   2.40120006        -6.48562491E-05
   2.41319990        -6.48048299E-05
   2.42519999        -6.47549605E-05
   2.43720007        -6.47391353E-05
   2.44919991        -6.47915440E-05
   2.46120000        -6.49464346E-05
   2.47320008        -6.52364470E-05
   2.48519993        -6.56910197E-05
   2.49720001        -6.63349419E-05
   2.50920010        -6.71870948E-05
   2.52119994        -6.82595200E-05
   2.53320003        -6.95568524E-05
   2.54520011        -7.10760796E-05
   2.55719995        -7.28067753E-05
   2.56920004        -7.47316371E-05
   2.58119988        -7.68275131E-05
   2.59319997        -7.90666600E-05
   2.60520005        -8.14183149E-05
   2.61719990        -8.38504347E-05
   2.62919998        -8.63315581E-05
   2.64120007        -8.88326904E-05
   2.65319991        -9.13291296E-05
   2.66520000        -9.38020603E-05
   2.67720008        -9.62400009E-05
   2.68919992        -9.86398300E-05
   2.70120001        -1.01007470E-04
   2.71320009        -1.03358136E-04
   2.72519994        -1.05716077E-04
   2.73720002        -1.08113862E-04
   2.74920011        -1.10591245E-04
   2.76119995        -1.13193506E-04
   2.77320004        -1.15969495E-04
   2.78520012        -1.18969350E-04
   2.79719996        -1.22242083E-04
   2.80920005        -1.25832885E-04
   2.82119989        -1.29780718E-04
   2.83319998        -1.34115762E-04
   2.84520006        -1.38857300E-04
   2.85719991        -1.44011909E-04
   2.86919999        -1.49572079E-04
   2.88120008        -1.55515401E-04
   2.89319992        -1.61804332E-04
   2.90520000        -1.68386585E-04
   2.91720009        -1.75196154E-04
   2.92919993        -1.82154879E-04
   2.94120002        -1.89174592E-04
   2.95320010        -1.96159686E-04
   2.96519995        -2.03009971E-04
   2.97720003        -2.09623759E-04
   2.98920012        -2.15901047E-04
   3.00119996        -2.21746523E-04
   3.01320004        -2.27072494E-04
   3.02519989        -2.31801358E-04
   3.03719997        -2.35867672E-04
   3.04920006        -2.39219749E-04
   3.06119990        -2.41820686E-04
   3.07319999        -2.43648683E-04
   3.08520007        -2.44696945E-04
   3.09719992        -2.44973024E-04
   3.10920000        -2.44497554E-04
   3.12120008        -2.43302813E-04
   3.13319993        -2.41430651E-04
   3.14520001        -2.38930719E-04
   3.15720010        -2.35858155E-04
   3.16919994        -2.32271559E-04
   3.18120003        -2.28231016E-04
   3.19320011        -2.23796276E-04
   3.20519996        -2.19025344E-04
   3.21720004        -2.13973050E-04
   3.22919989        -2.08690326E-04
   3.24119997        -2.03223608E-04
   3.25320005        -1.97614543E-04
   3.26519990        -1.91900079E-04
   3.27719998        -1.86112768E-04
   3.28920007        -1.80281335E-04
   3.30119991        -1.74431334E-04
   3.31320000        -1.68585946E-04
   3.32520008        -1.62766883E-04
   3.33719993        -1.56995142E-04
   3.34920001        -1.51291868E-04
   3.36120009        -1.45678874E-04
   3.37319994        -1.40179211E-04
   3.38520002        -1.34817383E-04
   3.39720011        -1.29619351E-04
   3.40919995        -1.24612372E-04
   3.42120004        -1.19824508E-04
   3.43319988        -1.15284041E-04
   3.44519997        -1.11018591E-04
   3.45720005        -1.07054177E-04
   3.46919990        -1.03414211E-04
   3.48119998        -1.00118392E-04
   3.49320006        -9.71817281E-05
   3.50519991        -9.46136133E-05
   3.51719999        -9.24170818E-05
   3.52920008        -9.05883135E-05
   3.54119992        -8.91163509E-05
   3.55320001        -8.79831059E-05
   3.56520009        -8.71636730E-05
   3.57719994        -8.66268820E-05
   3.58920002        -8.63361274E-05
   3.60120010        -8.62503948E-05
   3.61319995        -8.63253736E-05
   3.62520003        -8.65147449E-05
   3.63720012        -8.67713898E-05
   3.64919996        -8.70486401E-05
   3.66120005        -8.73013705E-05
   3.67319989        -8.74869656E-05
   3.68519998        -8.75661935E-05
   3.69720006        -8.75037877E-05
   3.70919991        -8.72689416E-05
   3.72119999        -8.68356510E-05
   3.73320007        -8.61828375E-05
   3.74519992        -8.52944795E-05
   3.75720000        -8.41595975E-05
   3.76920009        -8.27722906E-05
   3.78119993        -8.11317150E-05
   3.79320002        -7.92421924E-05
   3.80520010        -7.71132982E-05
   3.81719995        -7.47600352E-05
   3.82920003        -7.22030018E-05
   3.84120011        -6.94685878E-05
   3.85319996        -6.65890766E-05
   3.86520004        -6.36026380E-05
   3.87719989        -6.05531386E-05
   3.88919997        -5.74896803E-05
   3.90120006        -5.44659270E-05
   3.91319990        -5.15390238E-05
   3.92519999        -4.87682555E-05
   3.93720007        -4.62133721E-05
   3.94919991        -4.39326614E-05
   3.96120000        -4.19807438E-05
   3.97320008        -4.04063248E-05
   3.98519993        -3.92498914E-05
   3.99720001        -3.85415296E-05
   4.00920010        -3.82989856E-05
   4.02120018        -3.85261228E-05
   4.03319979        -3.92118527E-05
   4.04519987        -4.03296617E-05
   4.05719995        -4.18378222E-05
   4.06920004        -4.36802802E-05
   4.08120012        -4.57882488E-05
   4.09320021        -4.80824056E-05
   4.10519981        -5.04756608E-05
   4.11719990        -5.28763812E-05
   4.12919998        -5.51918274E-05
   4.14120007        -5.73317775E-05
   4.15320015        -5.92120268E-05
   4.16520023        -6.07576985E-05
   4.17719984        -6.19061175E-05
   4.18919992        -6.26091714E-05
   4.20120001        -6.28349517E-05
   4.21320009        -6.25687317E-05
   4.22520018        -6.18131016E-05
   4.23719978        -6.05873975E-05
   4.24919987        -5.89263836E-05
   4.26119995        -5.68783144E-05
   4.27320004        -5.45025068E-05
   4.28520012        -5.18665038E-05
   4.29720020        -4.90431048E-05
   4.30919981        -4.61072523E-05
   4.32119989        -4.31330700E-05
   4.33319998        -4.01911129E-05
   4.34520006        -3.73459479E-05
   4.35720015        -3.46541856E-05
   4.36920023        -3.21629996E-05
   4.38119984        -2.99091771E-05
   4.39319992        -2.79187243E-05
   4.40520000        -2.62069498E-05
   4.41720009        -2.47790358E-05
   4.42920017        -2.36310298E-05
   4.44119978        -2.27510973E-05
   4.45319986        -2.21210539E-05
   4.46519995        -2.17179877E-05
   4.47720003        -2.15159234E-05
   4.48920012        -2.14874417E-05
   4.50120020        -2.16051521E-05
   4.51319981        -2.18429614E-05
   4.52519989        -2.21771043E-05
   4.53719997        -2.25868753E-05
   4.54920006        -2.30550722E-05
   4.56120014        -2.35681146E-05
   4.57320023        -2.41158959E-05
   4.58519983        -2.46913478E-05
   4.59719992        -2.52898317E-05
   4.60920000        -2.59083299E-05
   4.62120008        -2.65445942E-05
   4.63320017        -2.71962108E-05
   4.64519978        -2.78597727E-05
   4.65719986        -2.85301139E-05
   4.66919994        -2.91997294E-05
   4.68120003        -2.98584255E-05
   4.69320011        -3.04931818E-05
   4.70520020        -3.10883152E-05
   4.71719980        -3.16258956E-05
   4.72919989        -3.20864201E-05
   4.74119997        -3.24497196E-05
   4.75320005        -3.26960217E-05
   4.76520014        -3.28071583E-05
   4.77720022        -3.27677808E-05
   4.78919983        -3.25665678E-05
   4.80119991        -3.21973057E-05
   4.81320000        -3.16597871E-05
   4.82520008        -3.09604438E-05
   4.83720016        -3.01126711E-05
   4.84919977        -2.91368087E-05
   4.86119986        -2.80597487E-05
   4.87319994        -2.69141801E-05
   4.88520002        -2.57374795E-05
   4.89720011        -2.45703231E-05
   4.90920019        -2.34550444E-05
   4.92119980        -2.24338510E-05
   4.93319988        -2.15469609E-05
   4.94519997        -2.08307829E-05
   4.95720005        -2.03162035E-05
   4.96920013        -2.00271206E-05
   4.98120022        -1.99792648E-05
   4.99319983        -2.01794028E-05
   5.00519991        -2.06249515E-05
   5.01719999        -2.13040403E-05
   5.02920008        -2.21959999E-05
   5.04120016        -2.32722778E-05
   5.05319977        -2.44976909E-05
   5.06519985        -2.58319997E-05
   5.07719994        -2.72316483E-05
   5.08920002        -2.86516333E-05
   5.10120010        -3.00473766E-05
   5.11320019        -3.13765122E-05
   5.12519979        -3.26005247E-05
   5.13719988        -3.36861085E-05
   5.14919996        -3.46062989E-05
   5.16120005        -3.53412725E-05
   5.17320013        -3.58787947E-05
   5.18520021        -3.62143801E-05
   5.19719982        -3.63511281E-05
   5.20919991        -3.62993196E-05
   5.22119999        -3.60757731E-05
   5.23320007        -3.57029967E-05
   5.24520016        -3.52082498E-05
   5.25719976        -3.46224879E-05
   5.26919985        -3.39792641E-05
   5.28119993        -3.33136122E-05
   5.29320002        -3.26609224E-05
   5.30520010        -3.20558865E-05
   5.31720018        -3.15314210E-05
   5.32919979        -3.11176809E-05
   5.34119987        -3.08411145E-05
   5.35319996        -3.07235932E-05
   5.36520004        -3.07816626E-05
   5.37720013        -3.10258874E-05
   5.38920021        -3.14604040E-05
   5.40119982        -3.20826257E-05
   5.41319990        -3.28832393E-05
   5.42519999        -3.38464124E-05
   5.43720007        -3.49503280E-05
   5.44920015        -3.61679631E-05
   5.46120024        -3.74681549E-05
   5.47319984        -3.88169065E-05
   5.48519993        -4.01788748E-05
   5.49720001        -4.15189752E-05
   5.50920010        -4.28040330E-05
   5.52120018        -4.40043877E-05
   5.53319979        -4.50953776E-05
   5.54519987        -4.60585397E-05
   5.55719995        -4.68825565E-05
   5.56920004        -4.75637898E-05
   5.58120012        -4.81063507E-05
   5.59320021        -4.85217861E-05
   5.60519981        -4.88282749E-05
   5.61719990        -4.90494422E-05
   5.62919998        -4.92128456E-05
   5.64120007        -4.93482366E-05
   5.65320015        -4.94856649E-05
   5.66520023        -4.96536159E-05
   5.67719984        -4.98772170E-05
   5.68919992        -5.01766663E-05
   5.70120001        -5.05659882E-05
   5.71320009        -5.10521204E-05
   5.72520018        -5.16344735E-05
   5.73719978        -5.23048948E-05
   5.74919987        -5.30480902E-05
   5.76119995        -5.38424392E-05
   5.77320004        -5.46611627E-05
   5.78520012        -5.54737344E-05
   5.79720020        -5.62475070E-05
   5.80919981        -5.69493968E-05
   5.82119989        -5.75475860E-05
   5.83319998        -5.80130873E-05
   5.84520006        -5.83211695E-05
   5.85720015        -5.84525624E-05
   5.86920023        -5.83943220E-05
   5.88119984        -5.81404529E-05
   5.89319992        -5.76921921E-05
   5.90520000        -5.70579832E-05
   5.91720009        -5.62531277E-05
   5.92920017        -5.52992205E-05
   5.94119978        -5.42233029E-05
   5.95319986        -5.30568650E-05
   5.96519995        -5.18346678E-05
   5.97720003        -5.05934840E-05
   5.98920012        -4.93707776E-05
   6.00120020        -4.82033793E-05
   6.01319981        -4.71261847E-05
   6.02519989        -4.61709278E-05
   6.03719997        -4.53650573E-05
   6.04920006        -4.47307393E-05
   6.06120014        -4.42841047E-05
   6.07320023        -4.40346230E-05
   6.08519983        -4.39848154E-05
   6.09719992        -4.41301781E-05
   6.10920000        -4.44594334E-05
   6.12120008        -4.49550498E-05
   6.13320017        -4.55940608E-05
   6.14519978        -4.63491160E-05
   6.15719986        -4.71897838E-05
   6.16919994        -4.80839481E-05
   6.18120003        -4.89993326E-05
   6.19320011        -4.99050511E-05
   6.20520020        -5.07730219E-05
   6.21719980        -5.15793072E-05
   6.22919989        -5.23051713E-05
   6.24119997        -5.29378813E-05
   6.25320005        -5.34711435E-05
   6.26520014        -5.39051944E-05
   6.27720022        -5.42464732E-05
   6.28919983        -5.45069670E-05
   6.30119991        -5.47032250E-05
   6.31320000        -5.48551034E-05
   6.32520008        -5.49843244E-05
   6.33720016        -5.51129779E-05
   6.34919977        -5.52619967E-05
   6.36119986        -5.54497237E-05
   6.37319994        -5.56906998E-05
   6.38520002        -5.59946711E-05
   6.39720011        -5.63658905E-05
   6.40920019        -5.68028117E-05
   6.42119980        -5.72980789E-05
   6.43319988        -5.78388790E-05
   6.44519997        -5.84076042E-05
   6.45720005        -5.89827396E-05
   6.46920013        -5.95399906E-05
   6.48120022        -6.00534877E-05
   6.49319983        -6.04970191E-05
   6.50519991        -6.08452865E-05
   6.51719999        -6.10750212E-05
   6.52920008        -6.11659561E-05
   6.54120016        -6.11016803E-05
   6.55319977        -6.08702758E-05
   6.56519985        -6.04647394E-05
   6.57719994        -5.98832812E-05
   6.58920002        -5.91294229E-05
   6.60120010        -5.82119756E-05
   6.61320019        -5.71448909E-05
   6.62519979        -5.59469954E-05
   6.63719988        -5.46416522E-05
   6.64919996        -5.32563536E-05
   6.66120005        -5.18221968E-05
   6.67320013        -5.03733572E-05
   6.68520021        -4.89464001E-05
   6.69719982        -4.75795714E-05
   6.70919991        -4.63119359E-05
   6.72119999        -4.51824089E-05
   6.73320007        -4.42286982E-05
   6.74520016        -4.34860522E-05
   6.75719976        -4.29859938E-05
   6.76919985        -4.27549639E-05
   6.78119993        -4.28129315E-05
   6.79320002        -4.31721237E-05
   6.80520010        -4.38358693E-05
   6.81720018        -4.47976890E-05
   6.82919979        -4.60406955E-05
   6.84119987        -4.75374181E-05
   6.85319996        -4.92500330E-05
   6.86520004        -5.11311446E-05
   6.87720013        -5.31250407E-05
   6.88920021        -5.51694247E-05
   6.90119982        -5.71976343E-05
   6.91319990        -5.91411590E-05
   6.92519999        -6.09324670E-05
   6.93720007        -6.25079192E-05
   6.94920015        -6.38106212E-05
   6.96120024        -6.47931520E-05
   6.97319984        -6.54198884E-05
   6.98519993        -6.56688062E-05
   6.99720001        -6.55327822E-05
   7.00920010        -6.50200673E-05
   7.02120018        -6.41540755E-05
   7.03319979        -6.29724018E-05
   7.04519987        -6.15251556E-05
   7.05719995        -5.98726183E-05
   7.06920004        -5.80824380E-05
   7.08120012        -5.62264977E-05
   7.09320021        -5.43775568E-05
   7.10519981        -5.26059339E-05
   7.11719990        -5.09763886E-05
   7.12919998        -4.95453314E-05
   7.14120007        -4.83585391E-05
   7.15320015        -4.74494882E-05
   7.16520023        -4.68383296E-05
   7.17719984        -4.65315861E-05
   7.18919992        -4.65225457E-05
   7.20120001        -4.67922800E-05
   7.21320009        -4.73112050E-05
   7.22520018        -4.80410890E-05
   7.23719978        -4.89373742E-05
   7.24919987        -4.99516427E-05
   7.26119995        -5.10341233E-05
   7.27320004        -5.21360889E-05
   7.28520012        -5.32120393E-05
   7.29720020        -5.42216076E-05
   7.30919981        -5.51310368E-05
   7.32119989        -5.59143191E-05
   7.33319998        -5.65538649E-05
   7.34520006        -5.70407574E-05
   7.35720015        -5.73746220E-05
   7.36920023        -5.75631275E-05
   7.38119984        -5.76211496E-05
   7.39319992        -5.75697450E-05
   7.40520000        -5.74348705E-05
   7.41720009        -5.72459794E-05
   7.42920017        -5.70345474E-05
   7.44119978        -5.68325813E-05
   7.45319986        -5.66711278E-05
   7.46519995        -5.65788905E-05
   7.47720003        -5.65809387E-05
   7.48920012        -5.66975796E-05
   7.50120020        -5.69434305E-05
   7.51319981        -5.73266698E-05
   7.52519989        -5.78485742E-05
   7.53719997        -5.85033267E-05
   7.54920006        -5.92780489E-05
   7.56120014        -6.01531901E-05
   7.57320023        -6.11031282E-05
   7.58519983        -6.20970677E-05
   7.59719992        -6.31001385E-05
   7.60920000        -6.40747239E-05
   7.62120008        -6.49818539E-05
   7.63320017        -6.57827841E-05
   7.64519978        -6.64405088E-05
   7.65719986        -6.69212604E-05
   7.66919994        -6.71959569E-05
   7.68120003        -6.72414535E-05
   7.69320011        -6.70415466E-05
   7.70520020        -6.65878033E-05
   7.71719980        -6.58800345E-05
   7.72919989        -6.49264912E-05
   7.74119997        -6.37437479E-05
   7.75320005        -6.23562300E-05
   7.76520014        -6.07955371E-05
   7.77720022        -5.90994605E-05
   7.78919983        -5.73108300E-05
   7.80119991        -5.54761609E-05
   7.81320000        -5.36442458E-05
   7.82520008        -5.18646411E-05
   7.83720016        -5.01861614E-05
   7.84919977        -4.86553981E-05
   7.86119986        -4.73153195E-05
   7.87319994        -4.62039789E-05
   7.88520002        -4.53533830E-05
   7.89720011        -4.47884922E-05
   7.90920019        -4.45264704E-05
   7.92119980        -4.45761070E-05
   7.93319988        -4.49374820E-05
   7.94519997        -4.56018461E-05
   7.95720005        -4.65517624E-05
   7.96920013        -4.77614485E-05
   7.98120022        -4.91973769E-05
   7.99319983        -5.08190969E-05
   8.00520039        -5.25802643E-05
   8.01720047        -5.44298746E-05
   8.02919960        -5.63136382E-05
   8.04119968        -5.81755594E-05
   8.05319977        -5.99595660E-05
   8.06519985        -6.16112156E-05
   8.07719994        -6.30794239E-05
   8.08920002        -6.43180902E-05
   8.10120010        -6.52876988E-05
   8.11320019        -6.59566722E-05
   8.12520027        -6.63025348E-05
   8.13720036        -6.63127576E-05
   8.14920044        -6.59852813E-05
   8.16119957        -6.53286770E-05
   8.17319965        -6.43618114E-05
   8.18519974        -6.31132280E-05
   8.19719982        -6.16200414E-05
   8.20919991        -5.99265113E-05
   8.22119999        -5.80823653E-05
   8.23320007        -5.61408306E-05
   8.24520016        -5.41566442E-05
   8.25720024        -5.21839647E-05
   8.26920033        -5.02744115E-05
   8.28120041        -4.84752672E-05
   8.29319954        -4.68279322E-05
   8.30519962        -4.53666980E-05
   8.31719971        -4.41179182E-05
   8.32919979        -4.30995569E-05
   8.34119987        -4.23211859E-05
   8.35319996        -4.17843257E-05
   8.36520004        -4.14832102E-05
   8.37720013        -4.14057940E-05
   8.38920021        -4.15350078E-05
   8.40120029        -4.18501659E-05
   8.41320038        -4.23283745E-05
   8.42520046        -4.29459287E-05
   8.43719959        -4.36795526E-05
   8.44919968        -4.45074620E-05
   8.46119976        -4.54101937E-05
   8.47319984        -4.63711294E-05
   8.48519993        -4.73767941E-05
   8.49720001        -4.84168559E-05
   8.50920010        -4.94839005E-05
   8.52120018        -5.05729913E-05
   8.53320026        -5.16810869E-05
   8.54520035        -5.28063283E-05
   8.55720043        -5.39472858E-05
   8.56919956        -5.51021876E-05
   8.58119965        -5.62681998E-05
   8.59319973        -5.74407895E-05
   8.60519981        -5.86132555E-05
   8.61719990        -5.97763283E-05
   8.62919998        -6.09180497E-05
   8.64120007        -6.20237843E-05
   8.65320015        -6.30764334E-05
   8.66520023        -6.40568323E-05
   8.67720032        -6.49442736E-05
   8.68920040        -6.57172423E-05
   8.70119953        -6.63542451E-05
   8.71319962        -6.68346838E-05
   8.72519970        -6.71398739E-05
   8.73719978        -6.72540482E-05
   8.74919987        -6.71652961E-05
   8.76119995        -6.68665598E-05
   8.77320004        -6.63564206E-05
   8.78520012        -6.56397751E-05
   8.79720020        -6.47283377E-05
   8.80920029        -6.36408440E-05
   8.82120037        -6.24030727E-05
   8.83320045        -6.10474817E-05
   8.84519958        -5.96126374E-05
   8.85719967        -5.81422682E-05
   8.86919975        -5.66840863E-05
   8.88119984        -5.52883466E-05
   8.89319992        -5.40062356E-05
   8.90520000        -5.28880882E-05
   8.91720009        -5.19815512E-05
   8.92920017        -5.13297782E-05
   8.94120026        -5.09696947E-05
   8.95320034        -5.09304555E-05
   8.96520042        -5.12321458E-05
   8.97719955        -5.18847919E-05
   8.98919964        -5.28877499E-05
   9.00119972        -5.42295056E-05
   9.01319981        -5.58878710E-05
   9.02519989        -5.78306281E-05
   9.03719997        -6.00165877E-05
   9.04920006        -6.23969681E-05
   9.06120014        -6.49170906E-05
   9.07320023        -6.75182819E-05
   9.08520031        -7.01399258E-05