 -0.622799993       0.00000000    
 -0.610800028       0.00000000    
 -0.598800004       0.00000000    
 -0.586799979       0.00000000    
 -0.574800014       0.00000000    
 -0.562799990       3.94202958E-22
 -0.550800025       2.93398419E-21
 -0.538800001       1.02096746E-20
 -0.526799977       1.90836125E-20
 -0.514800012       6.96494315E-21
 -0.502799988      -7.53928923E-20
 -0.490799993      -2.71454905E-19
 -0.478799999      -5.14845485E-19
 -0.466800004      -4.75396001E-19
 -0.454800010       5.11603764E-19
 -0.442799985       3.19055329E-18
 -0.430799991       7.58492610E-18
 -0.418799996       1.17210806E-17
 -0.406800002       1.05208961E-17
 -0.394800007      -3.86919398E-18
 -0.382800013      -3.88784649E-17
 -0.370799989      -9.48801243E-17
 -0.358799994      -1.56733852E-16
 -0.346799999      -1.88037992E-16
 -0.334800005      -1.34790881E-16
 -0.322800010       5.55892966E-17
 -0.310799986       3.99320580E-16
 -0.298799992       8.34680507E-16
 -0.286799997       1.19425049E-15
 -0.274800003       1.21785180E-15
 -0.262800008       6.27760787E-16
 -0.250800014      -7.33392201E-16
 -0.238800004      -2.73614279E-15
 -0.226799995      -4.83950411E-15
 -0.214800000      -6.09768219E-15
 -0.202800006      -5.37066111E-15
 -0.190799996      -1.74772257E-15
 -0.178800002       4.90727056E-15
 -0.166800007       1.34845536E-14
 -0.154799998       2.14863307E-14
 -0.142800003       2.54347443E-14
 -0.130799994       2.18987477E-14
 -0.118799999       8.96085049E-15
 -0.106799997      -1.23233604E-14
  -9.48000029E-02  -3.70953539E-14
  -8.28000009E-02  -5.70863547E-14
  -7.07999989E-02  -6.25311435E-14
  -5.88000007E-02  -4.53785264E-14
  -4.67999987E-02  -2.96931148E-15
  -3.48000005E-02   5.91064131E-14
  -2.28000004E-02   1.26340426E-13
  -1.08000003E-02   1.77750636E-13
   1.20000006E-03   1.91430625E-13
   1.31999999E-02   1.52014008E-13
   2.52000000E-02   5.78314726E-14
   3.72000001E-02  -7.49059221E-14
   4.91999984E-02  -2.13113557E-13
   6.12000003E-02  -3.13876610E-13
   7.32000023E-02  -3.36406006E-13
   8.51999968E-02  -2.55824089E-13
   9.71999988E-02  -7.44677147E-14
  0.109200001       1.73529729E-13
  0.121200003       4.27055038E-13
  0.133200005       6.12183589E-13
  0.145199999       6.62556761E-13
  0.157199994       5.40382680E-13
  0.169200003       2.51592909E-13
  0.181199998      -1.50169753E-13
  0.193200007      -5.73088289E-13
  0.205200002      -9.08634116E-13
  0.217199996      -1.05963795E-12
  0.229200006      -9.67379388E-13
  0.241200000      -6.30047555E-13
  0.253199995      -1.07146049E-13
  0.265199989       4.91778330E-13
  0.277200013       1.03146734E-12
  0.289200008       1.38234563E-12
  0.301200002       1.45135650E-12
  0.313199997       1.20504930E-12
  0.325199991       6.79853580E-13
  0.337199986      -2.25093551E-14
  0.349200010      -7.53512324E-13
  0.361200005      -1.34684223E-12
  0.373199999      -1.65303177E-12
  0.385199994      -1.57390008E-12
  0.397199988      -1.09059560E-12
  0.409200013      -2.79035502E-13
  0.421200007       6.92701267E-13
  0.433200002       1.58844010E-12
  0.445199996       2.14908820E-12
  0.457199991       2.15326086E-12
  0.469199985       1.48184037E-12
  0.481200010       1.70401779E-13
  0.493200004      -1.56763437E-12
  0.505200028      -3.36027517E-12
  0.517199993      -4.74252755E-12
  0.529200017      -5.25931035E-12
  0.541199982      -4.58386801E-12
  0.553200006      -2.62124133E-12
  0.565199971       4.34206626E-13
  0.577199996       4.10911799E-12
  0.589200020       7.73395757E-12
  0.601199985       1.05820491E-11
  0.613200009       1.20304704E-11
  0.625199974       1.16995198E-11
  0.637199998       9.53151186E-12
  0.649200022       5.78664330E-12
  0.661199987       9.58862655E-13
  0.673200011      -4.35972135E-12
  0.685199976      -9.62004695E-12
  0.697200000      -1.44146257E-11
  0.709200025      -1.84993583E-11
  0.721199989      -2.17318403E-11
  0.733200014      -2.39511258E-11
  0.745199978      -2.48494784E-11
  0.757200003      -2.38965236E-11
  0.769200027      -2.03658566E-11
  0.781199992      -1.34850429E-11
  0.793200016      -2.69026338E-12
  0.805199981       1.20716206E-11
  0.817200005       3.00756781E-11
  0.829200029       4.96708681E-11
  0.841199994       6.83144305E-11
  0.853200018       8.28105848E-11
  0.865199983       8.97261432E-11
  0.877200007       8.59113752E-11
  0.889199972       6.90270480E-11
  0.901199996       3.79753520E-11
  0.913200021      -6.84752038E-12
  0.925199986      -6.35218614E-11
  0.937200010      -1.28799374E-10
  0.949199975      -1.98485894E-10
  0.961199999      -2.67951911E-10
  0.973200023      -3.32703615E-10
  0.985199988      -3.88955840E-10
  0.997200012      -4.34160680E-10
   1.00919998      -4.67457184E-10
   1.02119994      -4.90006036E-10
   1.03320003      -5.05156805E-10
   1.04519999      -5.18371845E-10
   1.05719995      -5.36802491E-10
   1.06920004      -5.68397773E-10
   1.08120000      -6.20430374E-10
   1.09319997      -6.97359837E-10
   1.10520005      -7.98003497E-10
   1.11720002      -9.12039944E-10
   1.12919998      -1.01592823E-09
   1.14119995      -1.06829290E-09
   1.15320003      -1.00474262E-09
   1.16520000      -7.31848304E-10
   1.17719996      -1.19652871E-10
   1.18920004       1.00842845E-09
   1.20120001       2.89014923E-09
   1.21319997       5.84601123E-09
   1.22520006       1.03113456E-08
   1.23720002       1.68831100E-08
   1.24919999       2.63864059E-08
   1.26119995       3.99660856E-08
   1.27320004       5.92090004E-08
   1.28520000       8.63018883E-08
   1.29719996       1.24229118E-07
   1.30920005       1.77012240E-07
   1.32120001       2.49991388E-07
   1.33319998       3.50144887E-07
   1.34519994       4.86440001E-07
   1.35720003       6.70202269E-07
   1.36919999       9.15488442E-07
   1.38119996       1.23944108E-06
   1.39320004       1.66259963E-06
   1.40520000       2.20914171E-06
   1.41719997       2.90701996E-06
   1.42920005       3.78796926E-06
   1.44120002       4.88735031E-06
   1.45319998       6.24380164E-06
   1.46519995       7.89868591E-06
   1.47720003       9.89531145E-06
   1.48920000       1.22779265E-05
   1.50119996       1.50904971E-05
   1.51320004       1.83752927E-05
   1.52520001       2.21713017E-05
   1.53719997       2.65125436E-05
   1.54920006       3.14263161E-05
   1.56120002       3.69314766E-05
   1.57319999       4.30368054E-05
   1.58519995       4.97395486E-05
   1.59720004       5.70242446E-05
   1.60920000       6.48618370E-05
   1.62119997       7.32092522E-05
   1.63320005       8.20093846E-05
   1.64520001       9.11916213E-05
   1.65719998       1.00672834E-04
   1.66919994       1.10358931E-04
   1.68120003       1.20146840E-04
   1.69319999       1.29926921E-04
   1.70519996       1.39585754E-04
   1.71720004       1.49009080E-04
   1.72920001       1.58085022E-04
   1.74119997       1.66707148E-04
   1.75320005       1.74777524E-04
   1.76520002       1.82209507E-04
   1.77719998       1.88930120E-04
   1.78919995       1.94882072E-04
   1.80120003       2.00025082E-04
   1.81320000       2.04336742E-04
   1.82519996       2.07812744E-04
   1.83720005       2.10466344E-04
   1.84920001       2.12327446E-04
   1.86119998       2.13440988E-04
   1.87320006       2.13864914E-04
   1.88520002       2.13667925E-04
   1.89719999       2.12926840E-04
   1.90919995       2.11723906E-04
   1.92120004       2.10144281E-04
   1.93320000       2.08273443E-04
   1.94519997       2.06195007E-04
   1.95720005       2.03988791E-04
   1.96920002       2.01729330E-04
   1.98119998       1.99484697E-04
   1.99319994       1.97315952E-04
   2.00519991       1.95276749E-04
   2.01719999       1.93413434E-04
   2.02920008       1.91765430E-04
   2.04119992       1.90365783E-04
   2.05320001       1.89241793E-04
   2.06520009       1.88415826E-04
   2.07719994       1.87905840E-04
   2.08920002       1.87725993E-04
   2.10120010       1.87886908E-04
   2.11319995       1.88395963E-04
   2.12520003       1.89257073E-04
   2.13720012       1.90470499E-04
   2.14919996       1.92032487E-04
   2.16120005       1.93934757E-04
   2.17319989       1.96164008E-04
   2.18519998       1.98701528E-04
   2.19720006       2.01522795E-04
   2.20919991       2.04597542E-04
   2.22119999       2.07889840E-04
   2.23320007       2.11358652E-04
   2.24519992       2.14958593E-04
   2.25720000       2.18641217E-04
   2.26920009       2.22356321E-04
   2.28119993       2.26053686E-04
   2.29320002       2.29684956E-04
   2.30520010       2.33205530E-04
   2.31719995       2.36576467E-04
   2.32920003       2.39766188E-04
   2.34120011       2.42752052E-04
   2.35319996       2.45521485E-04
   2.36520004       2.48072785E-04
   2.37719989       2.50415527E-04
   2.38919997       2.52570317E-04
   2.40120006       2.54568236E-04
   2.41319990       2.56449828E-04
   2.42519999       2.58263637E-04
   2.43720007       2.60064407E-04
   2.44919991       2.61911016E-04
   2.46120000       2.63864407E-04
   2.47320008       2.65985203E-04
   2.48519993       2.68331671E-04
   2.49720001       2.70957535E-04
   2.50920010       2.73910118E-04
   2.52119994       2.77228944E-04
   2.53320003       2.80944165E-04
   2.54520011       2.85075890E-04
   2.55719995       2.89633492E-04
   2.56920004       2.94615369E-04
   2.58119988       3.00009240E-04
   2.59319997       3.05792317E-04
   2.60520005       3.11932206E-04
   2.61719990       3.18387727E-04
   2.62919998       3.25110072E-04
   2.64120007       3.32044059E-04
   2.65319991       3.39129358E-04
   2.66520000       3.46301938E-04
   2.67720008       3.53495387E-04
   2.68919992       3.60642065E-04
   2.70120001       3.67674307E-04
   2.71320009       3.74525378E-04
   2.72519994       3.81130085E-04
   2.73720002       3.87425447E-04
   2.74920011       3.93350667E-04
   2.76119995       3.98847449E-04
   2.77320004       4.03859507E-04
   2.78520012       4.08332329E-04
   2.79719996       4.12212423E-04
   2.80920005       4.15446877E-04
   2.82119989       4.17982606E-04
   2.83319998       4.19765944E-04
   2.84520006       4.20742523E-04
   2.85719991       4.20857221E-04
   2.86919999       4.20054712E-04
   2.88120008       4.18280601E-04
   2.89319992       4.15482646E-04
   2.90520000       4.11612942E-04
   2.91720009       4.06630075E-04
   2.92919993       4.00501915E-04
   2.94120002       3.93208204E-04
   2.95320010       3.84743529E-04
   2.96519995       3.75119853E-04
   2.97720003       3.64368636E-04
   2.98920012       3.52542585E-04
   3.00119996       3.39716556E-04
   3.01320004       3.25987698E-04
   3.02519989       3.11474607E-04
   3.03719997       2.96315644E-04
   3.04920006       2.80666369E-04
   3.06119990       2.64696020E-04
   3.07319999       2.48583558E-04
   3.08520007       2.32512859E-04
   3.09719992       2.16667919E-04
   3.10920000       2.01227827E-04
   3.12120008       1.86361867E-04
   3.13319993       1.72224871E-04
   3.14520001       1.58953189E-04
   3.15720010       1.46661230E-04
   3.16919994       1.35438691E-04
   3.18120003       1.25348684E-04
   3.19320011       1.16426774E-04
   3.20519996       1.08680666E-04
   3.21720004       1.02091028E-04
   3.22919989       9.66128209E-05
   3.24119997       9.21775500E-05
   3.25320005       8.86961207E-05
   3.26519990       8.60621440E-05
   3.27719998       8.41558358E-05
   3.28920007       8.28481570E-05
   3.30119991       8.20052301E-05
   3.31320000       8.14928208E-05
   3.32520008       8.11808568E-05
   3.33719993       8.09477133E-05
   3.34920001       8.06842945E-05
   3.36120009       8.02976356E-05
   3.37319994       7.97139510E-05
   3.38520002       7.88809411E-05
   3.39720011       7.77693785E-05
   3.40919995       7.63736534E-05
   3.42120004       7.47114536E-05
   3.43319988       7.28223822E-05
   3.44519997       7.07656000E-05
   3.45720005       6.86165877E-05
   3.46919990       6.64631225E-05
   3.48119998       6.44006141E-05
   3.49320006       6.25270623E-05
   3.50519991       6.09377967E-05
   3.51719999       5.97202888E-05
   3.52920008       5.89493029E-05
   3.54119992       5.86825881E-05
   3.55320001       5.89573829E-05
   3.56520009       5.97878607E-05
   3.57719994       6.11637151E-05
   3.58920002       6.30499853E-05
   3.60120010       6.53880270E-05
   3.61319995       6.80977391E-05
   3.62520003       7.10808454E-05
   3.63720012       7.42250850E-05
   3.64919996       7.74091168E-05
   3.66120005       8.05078525E-05
   3.67319989       8.33980303E-05
   3.68519998       8.59636202E-05
   3.69720006       8.81009619E-05
   3.70919991       8.97232894E-05
   3.72119999       9.07644571E-05
   3.73320007       9.11817042E-05
   3.74519992       9.09574301E-05
   3.75720000       9.00997766E-05
   3.76920009       8.86421767E-05
   3.78119993       8.66417613E-05
   3.79320002       8.41768924E-05
   3.80520010       8.13438310E-05
   3.81719995       7.82528150E-05
   3.82920003       7.50236577E-05
   3.84120011       7.17811054E-05
   3.85319996       6.86501735E-05
   3.86520004       6.57515629E-05
   3.87719989       6.31974617E-05
   3.88919997       6.10876377E-05
   3.90120006       5.95062120E-05
   3.91319990       5.85189628E-05
   3.92519999       5.81713684E-05
   3.93720007       5.84873233E-05
   3.94919991       5.94686353E-05
   3.96120000       6.10951975E-05
   3.97320008       6.33258824E-05
   3.98519993       6.61000449E-05
   3.99720001       6.93396723E-05
   4.00920010       7.29519816E-05
   4.02120018       7.68325262E-05
   4.03319979       8.08685945E-05
   4.04519987       8.49429416E-05
   4.05719995       8.89376242E-05
   4.06920004       9.27379078E-05
   4.08120012       9.62360573E-05
   4.09320021       9.93350041E-05
   4.10519981       1.01951598E-04
   4.11719990       1.04019418E-04
   4.12919998       1.05491017E-04
   4.14120007       1.06339518E-04
   4.15320015       1.06559346E-04
   4.16520023       1.06166328E-04
   4.17719984       1.05196843E-04
   4.18919992       1.03706341E-04
   4.20120001       1.01767015E-04
   4.21320009       9.94649381E-05
   4.22520018       9.68966924E-05
   4.23719978       9.41656399E-05
   4.24919987       9.13779950E-05
   4.26119995       8.86389244E-05
   4.27320004       8.60487926E-05
   4.28520012       8.36997497E-05
   4.29720020       8.16727843E-05
   4.30919981       8.00353664E-05
   4.32119989       7.88397301E-05
   4.33319998       7.81219060E-05
   4.34520006       7.79013280E-05
   4.35720015       7.81811832E-05
   4.36920023       7.89492624E-05
   4.38119984       8.01793140E-05
   4.39319992       8.18327608E-05
   4.40520000       8.38606502E-05
   4.41720009       8.62057859E-05
   4.42920017       8.88048817E-05
   4.44119978       9.15907003E-05
   4.45319986       9.44940402E-05
   4.46519995       9.74456052E-05
   4.47720003       1.00377671E-04
   4.48920012       1.03225553E-04
   4.50120020       1.05928833E-04
   4.51319981       1.08432498E-04
   4.52519989       1.10687819E-04
   4.53719997       1.12653244E-04
   4.54920006       1.14295042E-04
   4.56120014       1.15587914E-04
   4.57320023       1.16515534E-04
   4.58519983       1.17070915E-04
   4.59719992       1.17256655E-04
   4.60920000       1.17084979E-04
   4.62120008       1.16577612E-04
   4.63320017       1.15765339E-04
   4.64519978       1.14687347E-04
   4.65719986       1.13390241E-04
   4.66919994       1.11926813E-04
   4.68120003       1.10354471E-04
   4.69320011       1.08733468E-04
   4.70520020       1.07124921E-04
   4.71719980       1.05588639E-04
   4.72919989       1.04180996E-04
   4.74119997       1.02952676E-04
   4.75320005       1.01946709E-04
   4.76520014       1.01196623E-04
   4.77720022       1.00724988E-04
   4.78919983       1.00542333E-04
   4.80119991       1.00646597E-04
   4.81320000       1.01023077E-04
   4.82520008       1.01644924E-04
   4.83720016       1.02474216E-04
   4.84919977       1.03463528E-04
   4.86119986       1.04557941E-04
   4.87319994       1.05697378E-04
   4.88520002       1.06819265E-04
   4.89720011       1.07861240E-04
   4.90920019       1.08763932E-04
   4.92119980       1.09473542E-04
   4.93319988       1.09944194E-04
   4.94519997       1.10139968E-04
   4.95720005       1.10036424E-04
   4.96920013       1.09621556E-04
   4.98120022       1.08896304E-04
   4.99319983       1.07874417E-04
   5.00519991       1.06581763E-04
   5.01719999       1.05055289E-04
   5.02920008       1.03341372E-04
   5.04120016       1.01494021E-04
   5.05319977       9.95727823E-05
   5.06519985       9.76405063E-05
   5.07719994       9.57611483E-05
   5.08920002       9.39975362E-05
   5.10120010       9.24094056E-05
   5.11320019       9.10514646E-05
   5.12519979       8.99718580E-05
   5.13719988       8.92107710E-05
   5.14919996       8.87993883E-05
   5.16120005       8.87590795E-05
   5.17320013       8.91008967E-05
   5.18520021       8.98253493E-05
   5.19719982       9.09223891E-05
   5.20919991       9.23716725E-05
   5.22119999       9.41430408E-05
   5.23320007       9.61972182E-05
   5.24520016       9.84867947E-05
   5.25719976       1.00957310E-04
   5.26919985       1.03548657E-04
   5.28119993       1.06196618E-04
   5.29320002       1.08834560E-04
   5.30520010       1.11395253E-04
   5.31720018       1.13812748E-04
   5.32919979       1.16024275E-04
   5.34119987       1.17972078E-04
   5.35319996       1.19605109E-04
   5.36520004       1.20880533E-04
   5.37720013       1.21764962E-04
   5.38920021       1.22235331E-04
   5.40119982       1.22279496E-04
   5.41319990       1.21896359E-04
   5.42519999       1.21095647E-04
   5.43720007       1.19897282E-04
   5.44920015       1.18330521E-04
   5.46120024       1.16432733E-04
   5.47319984       1.14248069E-04
   5.48519993       1.11825953E-04
   5.49720001       1.09219647E-04
   5.50920010       1.06484775E-04
   5.52120018       1.03678016E-04
   5.53319979       1.00855912E-04
   5.54519987       9.80738623E-05
   5.55719995       9.53852505E-05
   5.56920004       9.28408335E-05
   5.58120012       9.04881017E-05
   5.59320021       8.83708781E-05
   5.60519981       8.65288384E-05
   5.61719990       8.49971839E-05
   5.62919998       8.38061678E-05
   5.64120007       8.29806449E-05
   5.65320015       8.25395909E-05
   5.66520023       8.24955569E-05
   5.67719984       8.28541888E-05
   5.68919992       8.36137478E-05
   5.70120001       8.47647316E-05
   5.71320009       8.62897286E-05
   5.72520018       8.81634114E-05
   5.73719978       9.03528926E-05
   5.74919987       9.28182490E-05
   5.76119995       9.55134310E-05
   5.77320004       9.83874415E-05
   5.78520012       1.01385696E-04
   5.79720020       1.04451603E-04
   5.80919981       1.07528220E-04
   5.82119989       1.10559886E-04
   5.83319998       1.13493821E-04
   5.84520006       1.16281539E-04
   5.85720015       1.18879958E-04
   5.86920023       1.21252335E-04
   5.88119984       1.23368751E-04
   5.89319992       1.25206308E-04
   5.90520000       1.26749044E-04
   5.91720009       1.27987470E-04
   5.92920017       1.28917978E-04
   5.94119978       1.29542095E-04
   5.95319986       1.29865701E-04
   5.96519995       1.29898137E-04
   5.97720003       1.29651657E-04
   5.98920012       1.29140681E-04
   6.00120020       1.28381595E-04
   6.01319981       1.27392399E-04
   6.02519989       1.26192754E-04
   6.03719997       1.24803948E-04
   6.04920006       1.23249236E-04
   6.06120014       1.21553887E-04
   6.07320023       1.19745426E-04
   6.08519983       1.17853640E-04
   6.09719992       1.15910538E-04
   6.10920000       1.13950038E-04
   6.12120008       1.12007525E-04
   6.13320017       1.10119188E-04
   6.14519978       1.08321226E-04
   6.15719986       1.06648855E-04
   6.16919994       1.05135332E-04
   6.18120003       1.03810955E-04
   6.19320011       1.02702084E-04
   6.20520020       1.01830316E-04
   6.21719980       1.01211786E-04
   6.22919989       1.00856734E-04
   6.24119997       1.00769175E-04
   6.25320005       1.00946883E-04
   6.26520014       1.01381527E-04
   6.27720022       1.02058977E-04
   6.28919983       1.02959806E-04
   6.30119991       1.04059865E-04
   6.31320000       1.05330961E-04
   6.32520008       1.06741580E-04
   6.33720016       1.08257635E-04
   6.34919977       1.09843248E-04
   6.36119986       1.11461559E-04
   6.37319994       1.13075461E-04
   6.38520002       1.14648465E-04
   6.39720011       1.16145522E-04
   6.40920019       1.17533811E-04
   6.42119980       1.18783631E-04
   6.43319988       1.19869146E-04
   6.44519997       1.20769117E-04
   6.45720005       1.21467594E-04
   6.46920013       1.21954348E-04
   6.48120022       1.22225203E-04
   6.49319983       1.22282130E-04
   6.50519991       1.22133031E-04
   6.51719999       1.21791367E-04
   6.52920008       1.21275414E-04
   6.54120016       1.20607387E-04
   6.55319977       1.19812335E-04
   6.56519985       1.18916898E-04
   6.57719994       1.17948126E-04
   6.58920002       1.16932228E-04
   6.60120010       1.15893585E-04
   6.61320019       1.14853894E-04
   6.62519979       1.13831658E-04
   6.63719988       1.12841954E-04
   6.64919996       1.11896559E-04
   6.66120005       1.11004359E-04
   6.67320013       1.10171961E-04
   6.68520021       1.09404580E-04
   6.69719982       1.08706874E-04
   6.70919991       1.08083797E-04
   6.72119999       1.07541375E-04
   6.73320007       1.07087144E-04
   6.74520016       1.06730404E-04
   6.75719976       1.06482054E-04
   6.76919985       1.06354164E-04
   6.78119993       1.06359148E-04
   6.79320002       1.06508698E-04
   6.80520010       1.06812586E-04
   6.81720018       1.07277265E-04
   6.82919979       1.07904692E-04
   6.84119987       1.08691136E-04
   6.85319996       1.09626388E-04
   6.86520004       1.10693290E-04
   6.87720013       1.11867681E-04
   6.88920021       1.13118796E-04
   6.90119982       1.14410119E-04
   6.91319990       1.15700597E-04
   6.92519999       1.16946198E-04
   6.93720007       1.18101656E-04
   6.94920015       1.19122378E-04
   6.96120024       1.19966258E-04
   6.97319984       1.20595476E-04
   6.98519993       1.20978009E-04
   6.99720001       1.21088880E-04
   7.00920010       1.20911071E-04
   7.02120018       1.20436016E-04
   7.03319979       1.19663753E-04
   7.04519987       1.18602737E-04
   7.05719995       1.17269337E-04
   7.06920004       1.15687137E-04
   7.08120012       1.13886053E-04
   7.09320021       1.11901412E-04
   7.10519981       1.09772969E-04
   7.11719990       1.07544016E-04
   7.12919998       1.05260558E-04
   7.14120007       1.02970480E-04
   7.15320015       1.00722922E-04
   7.16520023       9.85675360E-05
   7.17719984       9.65538056E-05
   7.18919992       9.47303924E-05
   7.20120001       9.31442992E-05
   7.21320009       9.18399746E-05
   7.22520018       9.08583388E-05
   7.23719978       9.02356478E-05
   7.24919987       9.00022715E-05
   7.26119995       9.01814346E-05
   7.27320004       9.07879730E-05
   7.28520012       9.18270889E-05
   7.29720020       9.32933908E-05
   7.30919981       9.51700640E-05
   7.32119989       9.74284339E-05
   7.33319998       1.00027937E-04
   7.34520006       1.02916536E-04
   7.35720015       1.06031621E-04
   7.36920023       1.09301385E-04
   7.38119984       1.12646674E-04
   7.39319992       1.15983123E-04
   7.40520000       1.19223740E-04
   7.41720009       1.22281461E-04
   7.42920017       1.25071980E-04
   7.44119978       1.27516323E-04
   7.45319986       1.29543434E-04
   7.46519995       1.31092398E-04
   7.47720003       1.32114350E-04
   7.48920012       1.32573958E-04
   7.50120020       1.32450499E-04
   7.51319981       1.31738387E-04
   7.52519989       1.30447283E-04
   7.53719997       1.28601852E-04
   7.54920006       1.26240877E-04
   7.56120014       1.23416321E-04
   7.57320023       1.20191857E-04
   7.58519983       1.16641335E-04
   7.59719992       1.12846959E-04
   7.60920000       1.08897359E-04
   7.62120008       1.04885599E-04
   7.63320017       1.00907026E-04
   7.64519978       9.70571418E-05
   7.65719986       9.34294221E-05
   7.66919994       9.01130988E-05
   7.68120003       8.71910379E-05
   7.69320011       8.47376432E-05
   7.70520020       8.28169213E-05
   7.71719980       8.14806990E-05
   7.72919989       8.07671386E-05
   7.74119997       8.06994794E-05
   7.75320005       8.12852231E-05
   7.76520014       8.25157404E-05
   7.77720022       8.43662929E-05
   7.78919983       8.67965500E-05
   7.80119991       8.97516875E-05
   7.81320000       9.31638133E-05
   7.82520008       9.69539906E-05
   7.83720016       1.01034479E-04
   7.84919977       1.05311352E-04
   7.86119986       1.09687215E-04
   7.87319994       1.14064002E-04
   7.88520002       1.18345677E-04
   7.89720011       1.22440746E-04
   7.90920019       1.26264524E-04
   7.92119980       1.29740918E-04
   7.93319988       1.32803994E-04
   7.94519997       1.35398950E-04
   7.95720005       1.37482741E-04
   7.96920013       1.39024283E-04
   7.98120022       1.40004326E-04
   7.99319983       1.40414966E-04
   8.00520039       1.40259144E-04
   8.01720047       1.39549666E-04
   8.02919960       1.38308518E-04
   8.04119968       1.36565810E-04
   8.05319977       1.34359056E-04
   8.06519985       1.31732217E-04
   8.07719994       1.28735002E-04
   8.08920002       1.25422084E-04
   8.10120010       1.21852354E-04
   8.11320019       1.18088181E-04
   8.12520027       1.14194547E-04
   8.13720036       1.10238150E-04
   8.14920044       1.06286396E-04
   8.16119957       1.02406266E-04
   8.17319965       9.86630403E-05
   8.18519974       9.51190741E-05
   8.19719982       9.18323494E-05
   8.20919991       8.88552240E-05
   8.22119999       8.62331362E-05
   8.23320007       8.40035573E-05
   8.24520016       8.21950962E-05
   8.25720024       8.08268451E-05
   8.26920033       7.99081245E-05
   8.28120041       7.94384396E-05
   8.29319954       7.94079242E-05
   8.30519962       7.97979737E-05
   8.31719971       8.05822201E-05
   8.32919979       8.17277105E-05
   8.34119987       8.31962971E-05
   8.35319996       8.49460193E-05
   8.36520004       8.69325959E-05
   8.37720013       8.91107702E-05
   8.38920021       9.14356424E-05
   8.40120029       9.38636949E-05
   8.41320038       9.63537823E-05
   8.42520046       9.88677566E-05
   8.43719959       1.01371035E-04
   8.44919968       1.03832819E-04
   8.46119976       1.06226304E-04
   8.47319984       1.08528577E-04
   8.48519993       1.10720553E-04
   8.49720001       1.12786744E-04
   8.50920010       1.14715069E-04
   8.52120018       1.16496572E-04
   8.53320026       1.18125230E-04
   8.54520035       1.19597695E-04
   8.55720043       1.20913101E-04
   8.56919956       1.22072859E-04
   8.58119965       1.23080463E-04
   8.59319973       1.23941209E-04
   8.60519981       1.24661965E-04
   8.61719990       1.25250910E-04
   8.62919998       1.25717197E-04
   8.64120007       1.26070634E-04
   8.65320015       1.26321378E-04
   8.66520023       1.26479717E-04
   8.67720032       1.26555766E-04
   8.68920040       1.26559389E-04
   8.70119953       1.26500148E-04
   8.71319962       1.26387356E-04
   8.72519970       1.26230239E-04
   8.73719978       1.26038140E-04
   8.74919987       1.25820894E-04
   8.76119995       1.25589024E-04
   8.77320004       1.25354127E-04
   8.78520012       1.25128965E-04
   8.79720020       1.24927596E-04
   8.80920029       1.24765196E-04
   8.82120037       1.24657730E-04
   8.83320045       1.24621365E-04
   8.84519958       1.24671686E-04
   8.85719967       1.24822662E-04
   8.86919975       1.25085513E-04
   8.88119984       1.25467472E-04
   8.89319992       1.25970560E-04
   8.90520000       1.26590516E-04
   8.91720009       1.27315856E-04
   8.92920017       1.28127402E-04
   8.94120026       1.28997970E-04
   8.95320034       1.29892767E-04
   8.96520042       1.30770015E-04
   8.97719955       1.31582230E-04
   8.98919964       1.32277797E-04
   9.00119972       1.32803078E-04
   9.01319981       1.33104593E-04
   9.02519989       1.33131514E-04
   9.03719997       1.32838075E-04
   9.04920006       1.32185975E-04
   9.06120014       1.31146357E-04
   9.07320023       1.29701526E-04
   9.08520031       1.27846215E-04
   9.09720039       1.25588165E-04
   9.10919952       1.22948317E-04
   9.12119961       1.19960278E-04
   9.13319969       1.16669362E-04
   9.14519978       1.13131144E-04
   9.15719986       1.09409630E-04
   9.16919994       1.05575185E-04
   9.18120003       1.01702310E-04
   9.19320011       9.78673561E-05
   9.20520020       9.41463222E-05
   9.21720028       9.06128116E-05
   9.22920036       8.73361278E-05
   9.24120045       8.43796879E-05
   9.25319958       8.17996697E-05
   9.26519966       7.96439563E-05
   9.27719975       7.79512848E-05
   9.28919983       7.67506499E-05
   9.30119991       7.60609400E-05
   9.31320000       7.58906463E-05
   9.32520008       7.62378186E-05
   9.33720016       7.70900515E-05
   9.34920025       7.84246295E-05
   9.36120033       8.02088252E-05
   9.37320042       8.24003291E-05
   9.38519955       8.49478165E-05
   9.39719963       8.77918210E-05
   9.40919971       9.08657385E-05
   9.42119980       9.40971659E-05
   9.43319988       9.74094291E-05
   9.44519997       1.00723439E-04
