 -0.622799993         1.00000002E-24
 -0.610800028         1.00000002E-24
 -0.598800004         1.00000002E-24
 -0.586799979         1.00000002E-24
 -0.574800014         1.00000002E-24
 -0.562799990         1.00000002E-24
 -0.550800025         1.00000012E-24
 -0.538800001         1.00000022E-24
 -0.526799977         1.00000022E-24
 -0.514800012         1.00000012E-24
 -0.502799988         1.00000012E-24
 -0.490799993         1.00000012E-24
 -0.478799999         1.00000002E-24
 -0.466800004         1.00000002E-24
 -0.454800010         9.99999921E-25
 -0.442799985         9.99999921E-25
 -0.430799991         9.99999921E-25
 -0.418799996         9.99999921E-25
 -0.406800002         1.00000002E-24
 -0.394800007         1.00000012E-24
 -0.382800013         1.00000022E-24
 -0.370799989         1.00000022E-24
 -0.358799994         1.00000032E-24
 -0.346799999         1.00000032E-24
 -0.334800005         1.00000022E-24
 -0.322800010         1.00000012E-24
 -0.310799986         1.00000002E-24
 -0.298799992         9.99999921E-25
 -0.286799997         9.99999921E-25
 -0.274800003         1.00000032E-24
 -0.262800008         1.00000101E-24
 -0.250800014         1.00000189E-24
 -0.238800004         1.00000179E-24
 -0.226799995         9.99999132E-25
 -0.214800000         9.99991835E-25
 -0.202800006         9.99979509E-25
 -0.190799996         9.99966296E-25
 -0.178800002         9.99964619E-25
 -0.166800007         9.99996963E-25
 -0.154799998         1.00008956E-24
 -0.142800003         1.00025315E-24
 -0.130799994         1.00045036E-24
 -0.118799999         1.00055824E-24
 -0.106799997         1.00035333E-24
  -9.48000029E-02     9.99561413E-25
  -8.28000009E-02     9.98009526E-25
  -7.07999989E-02     9.95886504E-25
  -5.88000007E-02     9.94039682E-25
  -4.67999987E-02     9.94132867E-25
  -3.48000005E-02     9.98402675E-25
  -2.28000004E-02     1.00876387E-24
  -1.08000003E-02     1.02520452E-24
   1.20000006E-03     1.04381799E-24
   1.31999999E-02     1.05537174E-24
   2.52000000E-02     1.04578186E-24
   3.72000001E-02     9.99899538E-25
   4.91999984E-02     9.09255673E-25
   6.12000003E-02     7.82672045E-25
   7.32000023E-02     6.56195554E-25
   8.51999968E-02     5.96474740E-25
   9.71999988E-02     6.90823244E-25
  0.109200001         1.01924231E-24
  0.121200003         1.60946705E-24
  0.133200005         2.38512252E-24
  0.145199999         3.12689198E-24
  0.157199994         3.47301536E-24
  0.169200003         2.98359816E-24
  0.181199998         1.27955142E-24
  0.193200007        -1.75856660E-24
  0.205200002        -5.77901908E-24
  0.217199996        -9.81138809E-24
  0.229200006        -1.22737717E-23
  0.241200000        -1.12125502E-23
  0.253199995        -4.80776051E-24
  0.265199989         7.89622235E-24
  0.277200013         2.61642080E-23
  0.289200008         4.68641533E-23
  0.301200002         6.41614401E-23
  0.313199997         6.99153473E-23
  0.325199991         5.50397278E-23
  0.337199986         1.19654225E-23
  0.349200010        -6.18973335E-23
  0.361200005        -1.60178459E-22
  0.373199999        -2.64045982E-22
  0.385199994        -3.40745527E-22
  0.397199988        -3.46160470E-22
  0.409200013        -2.33300147E-22
  0.421200007         3.23336478E-23
  0.433200002         4.51693323E-22
  0.445199996         9.69905922E-22
  0.457199991         1.46095232E-21
  0.469199985         1.73026050E-21
  0.481200010         1.54600349E-21
  0.493200004         7.04862592E-22
  0.505200028        -8.72849424E-22
  0.517199993        -3.03933622E-21
  0.529200017        -5.34354152E-21
  0.541199982        -7.03033404E-21
  0.553200006        -7.15757445E-21
  0.565199971        -4.84973125E-21
  0.577199996         3.38522252E-22
  0.589200020         8.03368797E-21
  0.601199985         1.67684535E-20
  0.613200009         2.39834637E-20
  0.625199974         2.64397151E-20
  0.637199998         2.10786332E-20
  0.649200022         6.21042236E-21
  0.661199987        -1.72690593E-20
  0.673200011        -4.50754917E-20
  0.685199976        -6.96224545E-20
  0.697200000        -8.13348085E-20
  0.709200025        -7.12044568E-20
  0.721199989        -3.41464099E-20
  0.733200014         2.77538935E-20
  0.745199978         1.03313624E-19
  0.757200003         1.72816758E-19
  0.769200027         2.11749202E-19
  0.781199992         1.97468756E-19
  0.793200016         1.17432208E-19
  0.805199981        -2.34112130E-20
  0.817200005        -1.98916775E-19
  0.829200029        -3.64154141E-19
  0.841199994        -4.64902853E-19
  0.853200018        -4.52965758E-19
  0.865199983        -3.03602116E-19
  0.877200007        -2.96003674E-20
  0.889199972         3.13771475E-19
  0.901199996         6.36967329E-19
  0.913200021         8.37892912E-19
  0.925199986         8.32805751E-19
  0.937200010         5.87693886E-19
  0.949199975         1.39208125E-19
  0.961199999        -4.04535289E-19
  0.973200023        -8.87872198E-19
  0.985199988        -1.15283418E-18
  0.997200012        -1.09374629E-18
   1.00919998        -7.03130404E-19
   1.02119994        -9.01646707E-20
   1.03320003         5.40850803E-19
   1.04519999         9.52219302E-19
   1.05719995         9.59730412E-19
   1.06920004         5.16690201E-19
   1.08120000        -2.38159852E-19
   1.09319997        -9.95836536E-19
   1.10520005        -1.36436659E-18
   1.11720002        -1.01140180E-18
   1.12919998         1.79789671E-19
   1.14119995         1.99816706E-18
   1.15320003         3.89097282E-18
   1.16520000         5.07840796E-18
   1.17719996         4.78652694E-18
   1.18920004         2.54165264E-18
   1.20120001        -1.56629679E-18
   1.21319997        -6.75433461E-18
   1.22520006        -1.16288434E-17
   1.23720002        -1.45001221E-17
   1.24919999        -1.38724244E-17
   1.26119995        -8.98030865E-18
   1.27320004        -2.00580002E-19
   1.28520000         1.08216069E-17
   1.29719996         2.14276803E-17
   1.30920005         2.85669670E-17
   1.32120001         2.96464642E-17
   1.33319998         2.33744350E-17
   1.34519994         1.03297537E-17
   1.35720003        -6.96075381E-18
   1.36919999        -2.45255693E-17
   1.38119996        -3.79455573E-17
   1.39320004        -4.35890401E-17
   1.40520000        -3.97226291E-17
   1.41719997        -2.71353705E-17
   1.42920005        -9.03168567E-18
   1.44120002         9.84047227E-18
   1.45319998         2.46145889E-17
   1.46519995         3.18695055E-17
   1.47720003         3.08280553E-17
   1.48920000         2.37509097E-17
   1.50119996         1.52999991E-17
   1.51320004         1.09580280E-17
   1.52520001         1.49110323E-17
   1.53719997         2.80319598E-17
   1.54920006         4.66632568E-17
   1.56120002         6.27496897E-17
   1.57319999         6.55396706E-17
   1.58519995         4.46330744E-17
   1.59720004        -6.28283876E-18
   1.60920000        -8.59787278E-17
   1.62119997        -1.83566241E-16
   1.63320005        -2.78598692E-16
   1.64520001        -3.43837672E-16
   1.65719998        -3.50536724E-16
   1.66919994        -2.75442806E-16
   1.68120003        -1.08164082E-16
   1.69319999         1.42772499E-16
   1.70519996         4.46851384E-16
   1.71720004         7.52797726E-16
   1.72920001         9.94713883E-16
   1.74119997         1.10278502E-15
   1.75320005         1.01718503E-15
   1.76520002         7.02894251E-16
   1.77719998         1.62536954E-16
   1.78919995        -5.55763939E-16
   1.80120003        -1.35802728E-15
   1.81320000        -2.11297959E-15
   1.82519996        -2.66942222E-15
   1.83720005        -2.88051236E-15
   1.84920001        -2.63142093E-15
   1.86119998        -1.86568197E-15
   1.87320006        -6.05178836E-16
   1.88520002         1.04067283E-15
   1.89719999         2.87944192E-15
   1.90919995         4.65454007E-15
   1.92120004         6.07653093E-15
   1.93320000         6.86269270E-15
   1.94519997         6.77908462E-15
   1.95720005         5.67888538E-15
   1.96920002         3.53151626E-15
   1.98119998         4.38799939E-16
   1.99319994        -3.36329064E-15
   2.00519991        -7.51649499E-15
   2.01719999        -1.15634405E-14
   2.02920008        -1.49794033E-14
   2.04119992        -1.72108032E-14
   2.05320001        -1.77202088E-14
   2.06520009        -1.60393752E-14
   2.07719994        -1.18324717E-14
   2.08920002        -4.97036054E-15
   2.10120010         4.38724950E-15
   2.11319995         1.57112855E-14
   2.12520003         2.80414865E-14
   2.13720012         3.99669684E-14
   2.14919996         4.96756871E-14
   2.16120005         5.50958882E-14
   2.17319989         5.41410348E-14
   2.18519998         4.50502503E-14
   2.19720006         2.67912320E-14
   2.20919991        -5.33224075E-16
   2.22119999        -3.53543963E-14
   2.23320007        -7.44699509E-14
   2.24519992        -1.13118106E-13
   2.25720000        -1.45343793E-13
   2.26920009        -1.64662026E-13
   2.28119993        -1.64968001E-13
   2.29320002        -1.41587846E-13
   2.30520010        -9.23197540E-14
   2.31719995        -1.82929725E-14
   2.32920003         7.55221488E-14
   2.34120011         1.80284634E-13
   2.35319996         2.83806805E-13
   2.36520004         3.71630732E-13
   2.37719989         4.28581297E-13
   2.38919997         4.40652939E-13
   2.40120006         3.97038142E-13
   2.41319990         2.92075880E-13
   2.42519999         1.26889913E-13
   2.43720007        -8.95073742E-14
   2.44919991        -3.39848213E-13
   2.46120000        -5.99146980E-13
   2.47320008        -8.36255490E-13
   2.48519993        -1.01647206E-12
   2.49720001        -1.10513237E-12
   2.50920010        -1.07197107E-12
   2.52119994        -8.95890892E-13
   2.53320003        -5.69612066E-13
   2.54520011        -1.03558716E-13
   2.55719995         4.71727800E-13
   2.56920004         1.10531462E-12
   2.58119988         1.72825664E-12
   2.59319997         2.25887278E-12
   2.60520005         2.61080112E-12
   2.61719990         2.70329245E-12
   2.62919998         2.47280169E-12
   2.64120007         1.88457930E-12
   2.65319991         9.42752387E-13
   2.66520000        -3.02691547E-13
   2.67720008        -1.75346684E-12
   2.68919992        -3.26624123E-12
   2.70120001        -4.66221593E-12
   2.71320009        -5.74301674E-12
   2.72519994        -6.31210058E-12
   2.73720002        -6.20005870E-12
   2.74920011        -5.29136847E-12
   2.76119995        -3.54946432E-12
   2.77320004        -1.03654411E-12
   2.78520012         2.07553636E-12
   2.79719996         5.50652232E-12
   2.80920005         8.88343218E-12
   2.82119989         1.17713807E-11
   2.83319998         1.37183242E-11
   2.84520006         1.43103160E-11
   2.85719991         1.32317204E-11
   2.86919999         1.03231460E-11
   2.88120008         5.62894306E-12
   2.89319992        -5.73805651E-13
   2.90520000        -7.77159326E-12
   2.91720009        -1.52404634E-11
   2.92919993        -2.21027658E-11
   2.94120002        -2.74119373E-11
   2.95320010        -3.02586289E-11
   2.96519995        -2.98881475E-11
   2.97720003        -2.58164237E-11
   2.98920012        -1.79305910E-11
   3.00119996        -6.56014999E-12
   3.01320004         7.49354485E-12
   3.02519989         2.29787335E-11
   3.03719997         3.82705395E-11
   3.04920006         5.15035757E-11
   3.06119990         6.07532635E-11
   3.07319999         6.42528739E-11
   3.08520007         6.06272185E-11
   3.09719992         4.91187160E-11
   3.10920000         2.97781799E-11
   3.12120008         3.59177922E-12
   3.13319993        -2.74820947E-11
   3.14520001        -6.05861750E-11
   3.15720010        -9.21579757E-11
   3.16919994        -1.18240820E-10
   3.18120003        -1.34893721E-10
   3.19320011        -1.38665399E-10
   3.20519996        -1.27084149E-10
   3.21720004        -9.91044052E-11
   3.22919989        -5.54473308E-11
   3.24119997         1.22342306E-12
   3.25320005         6.63369498E-11
   3.26519990         1.33687561E-10
   3.27719998         1.95943192E-10
   3.28920007         2.45359205E-10
   3.30119991         2.74636092E-10
   3.31320000         2.77834589E-10
   3.32520008         2.51243470E-10
   3.33719993         1.94088315E-10
   3.34920001         1.08975225E-10
   3.36120009         1.98358235E-12
   3.37319994        -1.17647850E-10
   3.38520002        -2.38254527E-10
   3.39720011        -3.46866091E-10
   3.40919995        -4.30629782E-10
   3.42120004        -4.78408035E-10
   3.43319988        -4.82385187E-10
   3.44519997        -4.39492664E-10
   3.45720005        -3.52457424E-10
   3.46919990        -2.30290717E-10
   3.48119998        -8.80724729E-11
   3.49320006         5.40575362E-11
   3.50519991         1.72712733E-10
   3.51719999         2.43799980E-10
   3.52920008         2.45615084E-10
   3.54119992         1.62232686E-10
   3.55320001        -1.31416440E-11
   3.56520009        -2.75232420E-10
   3.57719994        -6.04544137E-10
   3.58920002        -9.66333458E-10
   3.60120010        -1.31093647E-09
   3.61319995        -1.57554114E-09
   3.62520003        -1.68730419E-09
   3.63720012        -1.56749635E-09
   3.64919996        -1.13614151E-09
   3.66120005        -3.16401294E-10
   3.67319989         9.62204205E-10
   3.68519998         2.76275736E-09
   3.69720006         5.14312815E-09
   3.70919991         8.16233392E-09
   3.72119999         1.18918528E-08
   3.73320007         1.64323701E-08
   3.74519992         2.19360281E-08
   3.75720000         2.86338189E-08
   3.76920009         3.68671813E-08
   3.78119993         4.71223487E-08
   3.79320002         6.00654246E-08
   3.80520010         7.65757875E-08
   3.81719995         9.77748087E-08
   3.82920003         1.25047038E-07
   3.84120011         1.60050476E-07
   3.85319996         2.04713061E-07
   3.86520004         2.61212762E-07
   3.87719989         3.31939191E-07
   3.88919997         4.19435224E-07
   3.90120006         5.26318843E-07
   3.91319990         6.55185659E-07
   3.92519999         8.08493837E-07
   3.93720007         9.88434863E-07
   3.94919991         1.19679476E-06
   3.96120000         1.43480975E-06
   3.97320008         1.70302417E-06
   3.98519993         2.00115528E-06
   3.99720001         2.32797379E-06
   4.00920010         2.68120539E-06
   4.02120018         3.05746130E-06
   4.03319979         3.45220224E-06
   4.04519987         3.85974363E-06
   4.05719995         4.27330042E-06
   4.06920004         4.68508142E-06
   4.08120012         5.08642688E-06
   4.09320021         5.46798856E-06
   4.10519981         5.81995937E-06
   4.11719990         6.13232942E-06
   4.12919998         6.39517702E-06
   4.14120007         6.59898160E-06
   4.15320015         6.73494196E-06
   4.16520023         6.79530012E-06
   4.17719984         6.77364824E-06
   4.18919992         6.66521328E-06
   4.20120001         6.46710578E-06
   4.21320009         6.17851447E-06
   4.22520018         5.80085270E-06
   4.23719978         5.33782486E-06
   4.24919987         4.79543087E-06
   4.26119995         4.18188529E-06
   4.27320004         3.50745768E-06
   4.28520012         2.78424227E-06
   4.29720020         2.02584829E-06
   4.30919981         1.24703422E-06
   4.32119989         4.63286767E-07
   4.33319998        -3.09634999E-07
   4.34520006        -1.05617517E-06
   4.35720015        -1.76145909E-06
   4.36920023        -2.41175394E-06
   4.38119984        -2.99489352E-06
   4.39319992        -3.50064920E-06
   4.40520000        -3.92103129E-06
   4.41720009        -4.25050712E-06
   4.42920017        -4.48612900E-06
   4.44119978        -4.62756134E-06
   4.45319986        -4.67701193E-06
   4.46519995        -4.63906326E-06
   4.47720003        -4.52042150E-06
   4.48920012        -4.32958495E-06
   4.50120020        -4.07645666E-06
   4.51319981        -3.77191373E-06
   4.52519989        -3.42735461E-06
   4.53719997        -3.05424805E-06
   4.54920006        -2.66370216E-06
   4.56120014        -2.26607176E-06
   4.57320023        -1.87062585E-06
   4.58519983        -1.48528090E-06
   4.59719992        -1.11641668E-06
   4.60920000        -7.68775180E-07
   4.62120008        -4.45443334E-07
   4.63320017        -1.47917177E-07
   4.64519978         1.23762874E-07
   4.65719986         3.70816025E-07
   4.66919994         5.95479889E-07
   4.68120003         8.00739485E-07
   4.69320011         9.90043191E-07
   4.70520020         1.16702347E-06
   4.71719980         1.33523633E-06
   4.72919989         1.49793357E-06
   4.74119997         1.65787833E-06
   4.75320005         1.81721168E-06
   4.76520014         1.97737290E-06
   4.77720022         2.13907515E-06
   4.78919983         2.30233240E-06
   4.80119991         2.46653076E-06
   4.81320000         2.63053880E-06
   4.82520008         2.79284063E-06
   4.83720016         2.95168684E-06
   4.84919977         3.10524911E-06
   4.86119986         3.25176529E-06
   4.87319994         3.38967061E-06
   4.88520002         3.51770245E-06
   4.89720011         3.63497929E-06
   4.90920019         3.74104025E-06
   4.92119980         3.83585848E-06
   4.93319988         3.91981803E-06
   4.94519997         3.99366763E-06
   4.95720005         4.05844776E-06
   4.96920013         4.11540941E-06
   4.98120022         4.16592138E-06
   4.99319983         4.21138066E-06
   5.00519991         4.25313146E-06
   5.01719999         4.29239981E-06
   5.02920008         4.33024206E-06
   5.04120016         4.36752453E-06
   5.05319977         4.40491613E-06
   5.06519985         4.44290799E-06
   5.07719994         4.48184892E-06
   5.08920002         4.52199492E-06
   5.10120010         4.56356383E-06
   5.11320019         4.60679166E-06
   5.12519979         4.65198627E-06
   5.13719988         4.69956331E-06
   5.14919996         4.75007346E-06
   5.16120005         4.80420294E-06
   5.17320013         4.86275894E-06
   5.18520021         4.92663185E-06
   5.19719982         4.99673706E-06
   5.20919991         5.07394861E-06
   5.22119999         5.15901775E-06
   5.23320007         5.25249334E-06
   5.24520016         5.35464915E-06
   5.25719976         5.46541605E-06
   5.26919985         5.58434067E-06
   5.28119993         5.71056171E-06
   5.29320002         5.84280997E-06
   5.30520010         5.97944427E-06
   5.31720018         6.11850191E-06
   5.32919979         6.25778330E-06
   5.34119987         6.39494601E-06
   5.35319996         6.52761946E-06
   5.36520004         6.65352036E-06
   5.37720013         6.77056687E-06
   5.38920021         6.87699048E-06
   5.40119982         6.97142968E-06
   5.41319990         7.05300772E-06
   5.42519999         7.12138899E-06
   5.43720007         7.17681314E-06
   5.44920015         7.22010282E-06
   5.46120024         7.25265318E-06
   5.47319984         7.27639872E-06
   5.48519993         7.29376143E-06
   5.49720001         7.30758529E-06
   5.50920010         7.32105900E-06
   5.52120018         7.33763000E-06
   5.53319979         7.36091033E-06
   5.54519987         7.39457801E-06
   5.55719995         7.44227236E-06
   5.56920004         7.50748586E-06
   5.58120012         7.59345130E-06
   5.59320021         7.70302722E-06
   5.60519981         7.83857377E-06
   5.61719990         8.00184080E-06
   5.62919998         8.19384695E-06
   5.64120007         8.41477504E-06
   5.65320015         8.66387836E-06
   5.66520023         8.93940978E-06
   5.67719984         9.23858352E-06
   5.68919992         9.55756786E-06
   5.70120001         9.89152795E-06
   5.71320009         1.02347185E-05
   5.72520018         1.05806266E-05
   5.73719978         1.09221655E-05
   5.74919987         1.12519165E-05
   5.76119995         1.15624198E-05
   5.77320004         1.18464795E-05
   5.78520012         1.20975028E-05
   5.79720020         1.23098225E-05
   5.80919981         1.24790167E-05
   5.82119989         1.26021732E-05
   5.83319998         1.26781097E-05
   5.84520006         1.27075209E-05
   5.85720015         1.26930345E-05
   5.86920023         1.26391797E-05
   5.88119984         1.25522583E-05
   5.89319992         1.24401176E-05
   5.90520000         1.23118398E-05
   5.91720009         1.21773610E-05
   5.92920017         1.20470258E-05
   5.94119978         1.19311253E-05
   5.95319986         1.18394091E-05
   5.96519995         1.17806258E-05
   5.97720003         1.17621012E-05
   5.98920012         1.17893815E-05
   6.00120020         1.18659627E-05
   6.01319981         1.19931146E-05
   6.02519989         1.21698249E-05
   6.03719997         1.23928439E-05
   6.04920006         1.26568530E-05
   6.06120014         1.29547307E-05
   6.07320023         1.32779087E-05
   6.08519983         1.36168064E-05
   6.09719992         1.39613094E-05
   6.10920000         1.43012803E-05
   6.12120008         1.46270613E-05
   6.13320017         1.49299703E-05
   6.14519978         1.52027324E-05
   6.15719986         1.54398549E-05
   6.16919994         1.56379192E-05
   6.18120003         1.57957675E-05
   6.19320011         1.59145911E-05
   6.20520020         1.59979063E-05
   6.21719980         1.60514301E-05
   6.22919989         1.60828422E-05
   6.24119997         1.61014777E-05
   6.25320005         1.61179141E-05
   6.26520014         1.61435273E-05
   6.27720022         1.61900007E-05
   6.28919983         1.62687957E-05
   6.30119991         1.63906534E-05
   6.31320000         1.65650945E-05
   6.32520008         1.67999697E-05
   6.33720016         1.71010652E-05
   6.34919977         1.74717825E-05
   6.36119986         1.79129111E-05
   6.37319994         1.84224755E-05
   6.38520002         1.89957118E-05
   6.39720011         1.96251258E-05
   6.40920019         2.03006675E-05
   6.42119980         2.10100006E-05
   6.43319988         2.17388624E-05
   6.44519997         2.24715059E-05
   6.45720005         2.31911981E-05
   6.46920013         2.38807897E-05
   6.48120022         2.45232895E-05
   6.49319983         2.51024740E-05
   6.50519991         2.56034782E-05
   6.51719999         2.60133638E-05
   6.52920008         2.63216443E-05
   6.54120016         2.65207291E-05
   6.55319977         2.66063143E-05
   6.56519985         2.65776671E-05
   6.57719994         2.64377832E-05
   6.58920002         2.61934802E-05
   6.60120010         2.58553337E-05
   6.61320019         2.54375063E-05
   6.62519979         2.49574896E-05
   6.63719988         2.44356979E-05
   6.64919996         2.38950033E-05
   6.66120005         2.33601495E-05
   6.67320013         2.28571280E-05
   6.68520021         2.24124724E-05
   6.69719982         2.20525289E-05
   6.70919991         2.18027053E-05
   6.72119999         2.16867084E-05
   6.73320007         2.17258093E-05
   6.74520016         2.19381636E-05
   6.75719976         2.23381539E-05
   6.76919985         2.29358448E-05
   6.78119993         2.37365239E-05
   6.79320002         2.47403532E-05
   6.80520010         2.59421486E-05
   6.81720018         2.73313108E-05
   6.82919979         2.88918800E-05
   6.84119987         3.06027505E-05
   6.85319996         3.24380417E-05
   6.86520004         3.43675929E-05
   6.87720013         3.63575709E-05
   6.88920021         3.83712104E-05
   6.90119982         4.03696286E-05
   6.91319990         4.23126730E-05
   6.92519999         4.41598240E-05
   6.93720007         4.58710783E-05
   6.94920015         4.74078006E-05
   6.96120024         4.87335310E-05
   6.97319984         4.98146983E-05
   6.98519993         5.06212200E-05
   6.99720001         5.11270118E-05
   7.00920010         5.13103550E-05
   7.02120018         5.11541330E-05
   7.03319979         5.06459728E-05
   7.04519987         4.97782457E-05
   7.05719995         4.85479904E-05
   7.06920004         4.69567603E-05
   7.08120012         4.50103762E-05
   7.09320021         4.27187006E-05
   7.10519981         4.00953104E-05
   7.11719990         3.71572423E-05
   7.12919998         3.39246762E-05
   7.14120007         3.04206460E-05
   7.15320015         2.66707684E-05
   7.16520023         2.27029759E-05
   7.17719984         1.85472309E-05
   7.18919992         1.42352656E-05
   7.20120001         9.80029381E-06
   7.21320009         5.27670409E-06
   7.22520018         6.99737598E-07
   7.23719978        -3.89485785E-06
   7.24919987        -8.47121100E-06
   7.26119995        -1.29937143E-05
   7.27320004        -1.74274464E-05
   7.28520012        -2.17385823E-05
   7.29720020        -2.58948166E-05
   7.30919981        -2.98657778E-05
   7.32119989        -3.36234043E-05
   7.33319998        -3.71423012E-05
   7.34520006        -4.04000239E-05
   7.35720015        -4.33773530E-05
   7.36920023        -4.60584779E-05
   7.38119984        -4.84311204E-05
   7.39319992        -5.04866075E-05
   7.40520000        -5.22198934E-05
   7.41720009        -5.36295156E-05
   7.42920017        -5.47174968E-05
   7.44119978        -5.54892285E-05
   7.45319986        -5.59532855E-05
   7.46519995        -5.61212328E-05
   7.47720003        -5.60074113E-05
   7.48920012        -5.56286650E-05
   7.50120020        -5.50041223E-05
   7.51319981        -5.41548980E-05
   7.52519989        -5.31038277E-05
   7.53719997        -5.18751804E-05
   7.54920006        -5.04943491E-05
   7.56120014        -4.89875856E-05
   7.57320023        -4.73816835E-05
   7.58519983        -4.57036986E-05
   7.59719992        -4.39806681E-05
   7.60920000        -4.22393132E-05
   7.62120008        -4.05057945E-05
   7.63320017        -3.88054395E-05
   7.64519978        -3.71625320E-05
   7.65719986        -3.56000564E-05
   7.66919994        -3.41395498E-05
   7.68120003        -3.28008864E-05
   7.69320011        -3.16021651E-05
   7.70520020        -3.05595677E-05
   7.71719980        -2.96872731E-05
   7.72919989        -2.89973923E-05
   7.74119997        -2.84999078E-05
   7.75320005        -2.82026576E-05
   7.76520014        -2.81113171E-05
   7.77720022        -2.82294077E-05
   7.78919983        -2.85582864E-05
   7.80119991        -2.90971821E-05
   7.81320000        -2.98432096E-05
   7.82520008        -3.07913833E-05
   7.83720016        -3.19346764E-05
   7.84919977        -3.32640266E-05
   7.86119986        -3.47683999E-05
   7.87319994        -3.64348307E-05
   7.88520002        -3.82484868E-05
   7.89720011        -4.01927609E-05
   7.90920019        -4.22493576E-05
   7.92119980        -4.43984500E-05
   7.93319988        -4.66188249E-05
   7.94519997        -4.88880978E-05
   7.95720005        -5.11829785E-05
   7.96920013        -5.34795363E-05
   7.98120022        -5.57535241E-05
   7.99319983        -5.79807456E-05
   8.00520039        -6.01374304E-05
   8.01720047        -6.22006046E-05
   8.02919960        -6.41485167E-05
   8.04119968        -6.59610087E-05
   8.05319977        -6.76198906E-05
   8.06519985        -6.91092937E-05
   8.07719994        -7.04159611E-05
   8.08920002        -7.15295173E-05
   8.10120010        -7.24426936E-05
   8.11320019        -7.31515102E-05
   8.12520027        -7.36553411E-05
   8.13720036        -7.39569732E-05
   8.14920044        -7.40626056E-05
   8.16119957        -7.39817697E-05
   8.17319965        -7.37271403E-05
   8.18519974        -7.33143534E-05
   8.19719982        -7.27617225E-05
   8.20919991        -7.20898679E-05
   8.22119999        -7.13212721E-05
   8.23320007        -7.04798149E-05
   8.24520016        -6.95902272E-05
   8.25720024        -6.86774802E-05
   8.26920033        -6.77661374E-05
   8.28120041        -6.68797147E-05
   8.29319954        -6.60399892E-05
   8.30519962        -6.52663584E-05
   8.31719971        -6.45752443E-05
   8.32919979        -6.39795471E-05
   8.34119987        -6.34881799E-05
   8.35319996        -6.31057555E-05
   8.36520004        -6.28323760E-05
   8.37720013        -6.26635374E-05
   8.38920021        -6.25902758E-05
   8.40120029        -6.25993998E-05
   8.41320038        -6.26738474E-05
   8.42520046        -6.27932386E-05
   8.43719959        -6.29344941E-05
   8.44919968        -6.30725335E-05
   8.46119976        -6.31810617E-05
   8.47319984        -6.32333540E-05
   8.48519993        -6.32030351E-05
   8.49720001        -6.30648283E-05
   8.50920010        -6.27952468E-05
   8.52120018        -6.23731976E-05
   8.53320026        -6.17805417E-05
   8.54520035        -6.10024399E-05
   8.55720043        -6.00277672E-05
   8.56919956        -5.88492621E-05
   8.58119965        -5.74637124E-05
   8.59319973        -5.58719621E-05
   8.60519981        -5.40788715E-05
   8.61719990        -5.20932044E-05
   8.62919998        -4.99274392E-05
   8.64120007        -4.75975212E-05
   8.65320015        -4.51225278E-05
   8.66520023        -4.25243161E-05
   8.67720032        -3.98270640E-05
   8.68920040        -3.70567832E-05
   8.70119953        -3.42407875E-05
   8.71319962        -3.14070821E-05
   8.72519970        -2.85837395E-05
   8.73719978        -2.57982410E-05
   8.74919987        -2.30767928E-05
   8.76119995        -2.04436546E-05
   8.77320004        -1.79205090E-05
   8.78520012        -1.55258567E-05
   8.79720020        -1.32745090E-05
   8.80920029        -1.11771924E-05
   8.82120037        -9.24026517E-06
   8.83320045        -7.46559499E-06
   8.84519958        -5.85059706E-06
   8.85719967        -4.38844700E-06
   8.86919975        -3.06845300E-06
   8.88119984        -1.87659350E-06
   8.89319992        -7.96186384E-07
   8.90520000         1.91336227E-07
   8.91720009         1.10557005E-06
   8.92920017         1.96624933E-06
   8.94120026         2.79236383E-06
   8.95320034         3.60131935E-06
   8.96520042         4.40818712E-06
   8.97719955         5.22507753E-06
   8.98919964         6.06066396E-06
   9.00119972         6.91988680E-06
   9.01319981         7.80384289E-06
   9.02519989         8.70987697E-06
   9.03719997         9.63185448E-06
   9.04920006         1.05606123E-05
   9.06120014         1.14845607E-05
   9.07320023         1.23904028E-05
   9.08520031         1.32639398E-05