 -0.622799993         1.00000002E-24
 -0.610800028         1.00000002E-24
 -0.598800004         1.00000002E-24
 -0.586799979         1.00000002E-24
 -0.574800014         1.00000002E-24
 -0.562799990         1.00000002E-24
 -0.550800025         1.00000002E-24
 -0.538800001         9.99999329E-25
 -0.526799977         9.99994695E-25
 -0.514800012         9.99982172E-25
 -0.502799988         9.99995089E-25
 -0.490799993         1.00023707E-24
 -0.478799999         1.00133842E-24
 -0.466800004         1.00459918E-24
 -0.454800010         1.01187622E-24
 -0.442799985         1.02489539E-24
 -0.430799991         1.04469067E-24
 -0.418799996         1.07327928E-24
 -0.406800002         1.11949184E-24
 -0.394800007         1.20570250E-24
 -0.382800013         1.36081583E-24
 -0.370799989         1.57441007E-24
 -0.358799994         1.69634381E-24
 -0.346799999         1.31805878E-24
 -0.334800005        -2.32897328E-25
 -0.322800010        -3.56952775E-24
 -0.310799986        -8.42608917E-24
 -0.298799992        -1.24922183E-23
 -0.286799997        -1.06506438E-23
 -0.274800003         4.01447686E-24
 -0.262800008         3.60484253E-23
 -0.250800014         8.02102093E-23
 -0.238800004         1.13644072E-22
 -0.226799995         9.41202442E-23
 -0.214800000        -2.72487861E-23
 -0.202800006        -2.73609349E-22
 -0.190799996        -5.95785873E-22
 -0.178800002        -8.33736867E-22
 -0.166800007        -7.23440178E-22
 -0.154799998         1.26462710E-23
 -0.142800003         1.47991810E-21
 -0.130799994         3.37634770E-21
 -0.118799999         4.82568405E-21
 -0.106799997         4.44748277E-21
  -9.48000029E-02     8.10865858E-22
  -8.28000009E-02    -6.71195473E-21
  -7.07999989E-02    -1.69104216E-20
  -5.88000007E-02    -2.60008651E-20
  -4.67999987E-02    -2.78328569E-20
  -3.48000005E-02    -1.55746719E-20
  -2.28000004E-02     1.50456156E-20
  -1.08000003E-02     6.16438774E-20
   1.20000006E-03     1.11793124E-19
   1.31999999E-02     1.42477789E-19
   2.52000000E-02     1.24373804E-19
   3.72000001E-02     3.18005838E-20
   4.91999984E-02    -1.42894792E-19
   6.12000003E-02    -3.74353046E-19
   7.32000023E-02    -5.94749788E-19
   8.51999968E-02    -6.97019090E-19
   9.71999988E-02    -5.56710647E-19
  0.109200001        -7.44197401E-20
  0.121200003         7.66158051E-19
  0.133200005         1.83851169E-18
  0.145199999         2.83515348E-18
  0.157199994         3.28042439E-18
  0.169200003         2.62221362E-18
  0.181199998         4.16280530E-19
  0.193200007        -3.41357173E-18
  0.205200002        -8.30131414E-18
  0.217199996        -1.28616394E-17
  0.229200006        -1.49541235E-17
  0.241200000        -1.21211945E-17
  0.253199995        -2.44993651E-18
  0.265199989         1.42543932E-17
  0.277200013         3.53120525E-17
  0.289200008         5.45599001E-17
  0.301200002         6.28990520E-17
  0.313199997         5.04513040E-17
  0.325199991         1.03157206E-17
  0.337199986        -5.68077535E-17
  0.349200010        -1.38660736E-16
  0.361200005        -2.10216862E-16
  0.373199999        -2.37214727E-16
  0.385199994        -1.85409808E-16
  0.397199988        -3.45604166E-17
  0.409200013         2.06346861E-16
  0.421200007         4.88343134E-16
  0.433200002         7.22740338E-16
  0.445199996         7.97415292E-16
  0.457199991         6.09809300E-16
  0.469199985         1.10859288E-16
  0.481200010        -6.52784311E-16
  0.493200004        -1.51549589E-15
  0.505200028        -2.20515393E-15
  0.517199993        -2.40088376E-15
  0.529200017        -1.83179451E-15
  0.541199982        -3.95178298E-16
  0.553200006         1.74260935E-15
  0.565199971         4.10604685E-15
  0.577199996         5.96715907E-15
  0.589200020         6.51174239E-15
  0.601199985         5.09222952E-15
  0.613200009         1.50573458E-15
  0.625199974        -3.79223808E-15
  0.637199998        -9.63245614E-15
  0.649200022        -1.43013432E-14
  0.661199987        -1.59426847E-14
  0.673200011        -1.31217897E-14
  0.685199976        -5.40838922E-15
  0.697200000         6.20933045E-15
  0.709200025         1.92582072E-14
  0.721199989         3.01692096E-14
  0.733200014         3.51072253E-14
  0.745199978         3.10812065E-14
  0.757200003         1.70495416E-14
  0.769200027        -5.32326792E-15
  0.781199992        -3.15636765E-14
  0.793200016        -5.51024883E-14
  0.805199981        -6.87481349E-14
  0.817200005        -6.66234239E-14
  0.829200029        -4.60796189E-14
  0.841199994        -9.02935428E-15
  0.853200018         3.77784860E-14
  0.865199983         8.37832001E-14
  0.877200007         1.16841554E-13
  0.889199972         1.26215268E-13
  0.901199996         1.05603785E-13
  0.913200021         5.54119264E-14
  0.925199986        -1.64409163E-14
  0.937200010        -9.55466175E-14
  0.949199975        -1.63801156E-13
  0.961199999        -2.03432038E-13
  0.973200023        -2.01366498E-13
  0.985199988        -1.52888796E-13
  0.997200012        -6.36293386E-14
   1.00919998         5.07340684E-14
   1.02119994         1.67175925E-13
   1.03320003         2.59973195E-13
   1.04519999         3.06365718E-13
   1.05719995         2.91987110E-13
   1.06920004         2.14790764E-13
   1.08120000         8.64506898E-14
   1.09319997        -6.92804443E-14
   1.10520005        -2.21111825E-13
   1.11720002        -3.36823614E-13
   1.12919998        -3.90554207E-13
   1.14119995        -3.69084537E-13
   1.15320003        -2.75517375E-13
   1.16520000        -1.29228429E-13
   1.17719996         3.82130545E-14
   1.18920004         1.90454355E-13
   1.20120001         2.95451299E-13
   1.21319997         3.33958447E-13
   1.22520006         3.05037462E-13
   1.23720002         2.26753756E-13
   1.24919999         1.31373902E-13
   1.26119995         5.58650314E-14
   1.27320004         2.99575191E-14
   1.28520000         6.50273834E-14
   1.29719996         1.47239263E-13
   1.30920005         2.37601361E-13
   1.32120001         2.79939104E-13
   1.33319998         2.15669781E-13
   1.34519994         2.21890191E-15
   1.35720003        -3.69463737E-13
   1.36919999        -8.63116436E-13
   1.38119996        -1.39498558E-12
   1.39320004        -1.84313849E-12
   1.40520000        -2.06760086E-12
   1.41719997        -1.93815970E-12
   1.42920005        -1.36483056E-12
   1.44120002        -3.25164158E-13
   1.45319998         1.11713872E-12
   1.46519995         2.80661757E-12
   1.47720003         4.50592341E-12
   1.48920000         5.92154277E-12
   1.50119996         6.74355797E-12
   1.51320004         6.69549182E-12
   1.52520001         5.58812848E-12
   1.53719997         3.36926580E-12
   1.54920006         1.59846989E-13
   1.56120002        -3.73340204E-12
   1.57319999        -7.83720398E-12
   1.58519995        -1.15671873E-11
   1.59720004        -1.43173737E-11
   1.60920000        -1.55731070E-11
   1.62119997        -1.50282165E-11
   1.63320005        -1.26808061E-11
   1.64520001        -8.88020300E-12
   1.65719998        -4.30229550E-12
   1.66919994         1.57844929E-13
   1.68120003         3.56964957E-12
   1.69319999         5.20057521E-12
   1.70519996         4.75444554E-12
   1.71720004         2.55736448E-12
   1.72920001        -3.67945718E-13
   1.74119997        -2.38901759E-12
   1.75320005        -1.53982610E-12
   1.76520002         4.01546895E-12
   1.77719998         1.53670843E-11
   1.78919995         3.21611661E-11
   1.80120003         5.19154372E-11
   1.81320000         6.94663424E-11
   1.82519996         7.66756797E-11
   1.83720005         6.25272126E-11
   1.84920001         1.37358519E-11
   1.86119998        -8.40231218E-11
   1.87320006        -2.44188669E-10
   1.88520002        -4.76658157E-10
   1.89719999        -7.84436516E-10
   1.90919995        -1.15971910E-09
   1.92120004        -1.57963909E-09
   1.93320000        -2.00204875E-09
   1.94519997        -2.36182474E-09
   1.95720005        -2.56827937E-09
   1.96920002        -2.50425436E-09
   1.98119998        -2.02744910E-09
   1.99319994        -9.74247460E-10
   2.00519991         8.34109060E-10
   2.01719999         3.58370977E-09
   2.02920008         7.46010898E-09
   2.04119992         1.26429454E-08
   2.05320001         1.93065794E-08
   2.06520009         2.76314793E-08
   2.07719994         3.78320131E-08
   2.08920002         5.02070918E-08
   2.10120010         6.52203695E-08
   2.11319995         8.36168965E-08
   2.12520003         1.06582071E-07
   2.13720012         1.35947559E-07
   2.14919996         1.74446399E-07
   2.16120005         2.26017278E-07
   2.17319989         2.96152990E-07
   2.18519998         3.92285841E-07
   2.19720006         5.24195968E-07
   2.20919991         7.04425872E-07
   2.22119999         9.48677098E-07
   2.23320007         1.27616340E-06
   2.24519992         1.70989085E-06
   2.25720000         2.27682904E-06
   2.26920009         3.00794522E-06
   2.28119993         3.93806431E-06
   2.29320002         5.10552854E-06
   2.30520010         6.55163694E-06
   2.31719995         8.31984380E-06
   2.32920003         1.04547125E-05
   2.34120011         1.30006438E-05
   2.35319996         1.60003765E-05
   2.36520004         1.94933200E-05
   2.37719989         2.35137450E-05
   2.38919997         2.80889162E-05
   2.40120006         3.32372219E-05
   2.41319990         3.89663728E-05
   2.42519999         4.52717868E-05
   2.43720007         5.21352449E-05
   2.44919991         5.95238416E-05
   2.46120000         6.73894028E-05
   2.47320008         7.56683803E-05
   2.48519993         8.42822337E-05
   2.49720001         9.31384420E-05
   2.50920010         1.02132064E-04
   2.52119994         1.11147798E-04
   2.53320003         1.20062592E-04
   2.54520011         1.28748725E-04
   2.55719995         1.37077121E-04
   2.56920004         1.44921025E-04
   2.58119988         1.52159642E-04
   2.59319997         1.58681825E-04
   2.60520005         1.64389523E-04
   2.61719990         1.69200954E-04
   2.62919998         1.73053253E-04
   2.64120007         1.75904599E-04
   2.65319991         1.77735565E-04
   2.66520000         1.78549861E-04
   2.67720008         1.78374190E-04
   2.68919992         1.77257345E-04
   2.70120001         1.75268608E-04
   2.71320009         1.72495318E-04
   2.72519994         1.69040009E-04
   2.73720002         1.65016900E-04
   2.74920011         1.60548167E-04
   2.76119995         1.55759946E-04
   2.77320004         1.50778389E-04
   2.78520012         1.45725775E-04
   2.79719996         1.40716991E-04
   2.80920005         1.35856331E-04
   2.82119989         1.31235021E-04
   2.83319998         1.26929153E-04
   2.84520006         1.22998521E-04
   2.85719991         1.19485929E-04
   2.86919999         1.16417454E-04
   2.88120008         1.13803217E-04
   2.89319992         1.11638728E-04
   2.90520000         1.09906839E-04
   2.91720009         1.08579923E-04
   2.92919993         1.07622422E-04
   2.94120002         1.06993386E-04
   2.95320010         1.06649095E-04
   2.96519995         1.06545449E-04
   2.97720003         1.06640153E-04
   2.98920012         1.06894498E-04
   3.00119996         1.07274820E-04
   3.01320004         1.07753403E-04
   3.02519989         1.08308988E-04
   3.03719997         1.08926833E-04
   3.04920006         1.09598324E-04
   3.06119990         1.10320274E-04
   3.07319999         1.11093883E-04
   3.08520007         1.11923589E-04
   3.09719992         1.12815716E-04
   3.10920000         1.13777191E-04
   3.12120008         1.14814247E-04
   3.13319993         1.15931325E-04
   3.14520001         1.17130163E-04
   3.15720010         1.18409116E-04
   3.16919994         1.19762823E-04
   3.18120003         1.21182064E-04
   3.19320011         1.22653975E-04
   3.20519996         1.24162500E-04
   3.21720004         1.25689126E-04
   3.22919989         1.27213672E-04
   3.24119997         1.28715401E-04
   3.25320005         1.30173969E-04
   3.26519990         1.31570618E-04
   3.27719998         1.32889123E-04
   3.28920007         1.34116737E-04
   3.30119991         1.35245078E-04
   3.31320000         1.36270566E-04
   3.32520008         1.37194947E-04
   3.33719993         1.38025454E-04
   3.34920001         1.38774732E-04
   3.36120009         1.39460637E-04
   3.37319994         1.40105782E-04
   3.38520002         1.40736942E-04
   3.39720011         1.41384342E-04
   3.40919995         1.42080797E-04
   3.42120004         1.42860910E-04
   3.43319988         1.43760088E-04
   3.44519997         1.44813675E-04
   3.45720005         1.46056002E-04
   3.46919990         1.47519662E-04
   3.48119998         1.49234693E-04
   3.49320006         1.51227810E-04
   3.50519991         1.53521891E-04
   3.51719999         1.56135400E-04
   3.52920008         1.59081916E-04
   3.54119992         1.62369819E-04
   3.55320001         1.66001890E-04
   3.56520009         1.69975217E-04
   3.57719994         1.74280955E-04
   3.58920002         1.78904360E-04
   3.60120010         1.83824799E-04
   3.61319995         1.89016006E-04
   3.62520003         1.94446315E-04
   3.63720012         2.00078997E-04
   3.64919996         2.05872886E-04
   3.66120005         2.11782899E-04
   3.67319989         2.17760738E-04
   3.68519998         2.23755604E-04
   3.69720006         2.29715122E-04
   3.70919991         2.35585961E-04
   3.72119999         2.41314803E-04
   3.73320007         2.46849057E-04
   3.74519992         2.52137455E-04
   3.75720000         2.57130945E-04
   3.76920009         2.61783018E-04
   3.78119993         2.66050396E-04
   3.79320002         2.69893528E-04
   3.80520010         2.73276819E-04
   3.81719995         2.76169274E-04
   3.82920003         2.78544903E-04
   3.84120011         2.80383043E-04
   3.85319996         2.81668967E-04
   3.86520004         2.82394496E-04
   3.87719989         2.82558438E-04
   3.88919997         2.82167253E-04
   3.90120006         2.81235407E-04
   3.91319990         2.79785920E-04
   3.92519999         2.77850660E-04
   3.93720007         2.75470229E-04
   3.94919991         2.72693986E-04
   3.96120000         2.69579265E-04
   3.97320008         2.66190764E-04
   3.98519993         2.62599176E-04
   3.99720001         2.58879794E-04
   4.00920010         2.55110557E-04
   4.02120018         2.51369958E-04
   4.03319979         2.47734861E-04
   4.04519987         2.44278111E-04
   4.05719995         2.41066082E-04
   4.06920004         2.38156543E-04
   4.08120012         2.35596657E-04
   4.09320021         2.33421262E-04
   4.10519981         2.31651473E-04
   4.11719990         2.30293852E-04
   4.12919998         2.29339887E-04
   4.14120007         2.28766105E-04
   4.15320015         2.28534525E-04
   4.16520023         2.28593635E-04
   4.17719984         2.28879784E-04
   4.18919992         2.29318845E-04
   4.20120001         2.29828293E-04
   4.21320009         2.30319405E-04
   4.22520018         2.30699719E-04
   4.23719978         2.30875507E-04
   4.24919987         2.30754333E-04
   4.26119995         2.30247533E-04
   4.27320004         2.29272729E-04
   4.28520012         2.27755969E-04
   4.29720020         2.25633936E-04
   4.30919981         2.22855713E-04
   4.32119989         2.19384325E-04
   4.33319998         2.15197811E-04
   4.34520006         2.10290207E-04
   4.35720015         2.04671655E-04
   4.36920023         1.98368536E-04
   4.38119984         1.91422834E-04
   4.39319992         1.83891199E-04
   4.40520000         1.75843626E-04
   4.41720009         1.67361723E-04
   4.42920017         1.58536684E-04
   4.44119978         1.49467029E-04
   4.45319986         1.40256103E-04
   4.46519995         1.31009583E-04
   4.47720003         1.21832920E-04
   4.48920012         1.12828813E-04
   4.50120020         1.04094892E-04
   4.51319981         9.57215743E-05
   4.52519989         8.77900966E-05
   4.53719997         8.03710063E-05
   4.54920006         7.35227732E-05
   4.56120014         6.72909446E-05
   4.57320023         6.17074475E-05
   4.58519983         5.67903844E-05
   4.59719992         5.25440628E-05
   4.60920000         4.89594386E-05
   4.62120008         4.60148076E-05
   4.63320017         4.36768387E-05
   4.64519978         4.19018907E-05
   4.65719986         4.06375511E-05
   4.66919994         3.98244265E-05
   4.68120003         3.93980772E-05
   4.69320011         3.92910879E-05
   4.70520020         3.94351846E-05
   4.71719980         3.97633485E-05
   4.72919989         4.02118494E-05
   4.74119997         4.07220978E-05
   4.75320005         4.12422851E-05
   4.76520014         4.17286938E-05
   4.77720022         4.21466793E-05
   4.78919983         4.24712052E-05
   4.80119991         4.26869956E-05
   4.81320000         4.27882223E-05
   4.82520008         4.27778068E-05
   4.83720016         4.26663537E-05
   4.84919977         4.24707869E-05
   4.86119986         4.22127414E-05
   4.87319994         4.19168464E-05
   4.88520002         4.16089861E-05
   4.89720011         4.13145826E-05
   4.90920019         4.10570356E-05
   4.92119980         4.08563865E-05
   4.93319988         4.07282350E-05
   4.94519997         4.06829568E-05
   4.95720005         4.07252701E-05
   4.96920013         4.08540727E-05
   4.98120022         4.10626417E-05
   4.99319983         4.13390480E-05
   5.00519991         4.16668263E-05
   5.01719999         4.20258148E-05
   5.02920008         4.23931415E-05
   5.04120016         4.27442610E-05
   5.05319977         4.30540676E-05
   5.06519985         4.32979723E-05
   5.07719994         4.34529538E-05
   5.08920002         4.34985523E-05
   5.10120010         4.34177382E-05
   5.11320019         4.31976732E-05
   5.12519979         4.28303756E-05
   5.13719988         4.23131714E-05
   5.14919996         4.16490366E-05
   5.16120005         4.08467349E-05
   5.17320013         3.99207638E-05
   5.18520021         3.88911176E-05
   5.19719982         3.77828546E-05
   5.20919991         3.66253989E-05
   5.22119999         3.54517288E-05
   5.23320007         3.42973035E-05
   5.24520016         3.31988740E-05
   5.25719976         3.21931657E-05
   5.26919985         3.13154524E-05
   5.28119993         3.05981521E-05
   5.29320002         3.00694192E-05
   5.30520010         2.97518673E-05
   5.31720018         2.96614107E-05
   5.32919979         2.98063624E-05
   5.34119987         3.01867694E-05
   5.35319996         3.07940645E-05
   5.36520004         3.16110272E-05
   5.37720013         3.26121262E-05
   5.38920021         3.37641650E-05
   5.40119982         3.50272785E-05
   5.41319990         3.63562322E-05
   5.42519999         3.77019387E-05
   5.43720007         3.90132082E-05
   5.44920015         4.02386177E-05
   5.46120024         4.13284179E-05
   5.47319984         4.22364683E-05
   5.48519993         4.29220527E-05
   5.49720001         4.33515706E-05
   5.50920010         4.34999783E-05
   5.52120018         4.33519672E-05
   5.53319979         4.29028005E-05
   5.54519987         4.21588084E-05
   5.55719995         4.11374240E-05
   5.56920004         3.98668853E-05
   5.58120012         3.83854567E-05
   5.59320021         3.67403190E-05
   5.60519981         3.49860384E-05
   5.61719990         3.31828014E-05
   5.62919998         3.13943492E-05
   5.64120007         2.96857688E-05
   5.65320015         2.81211851E-05
   5.66520023         2.67614560E-05
   5.67719984         2.56619387E-05
   5.68919992         2.48704200E-05
   5.70120001         2.44253188E-05
   5.71320009         2.43541708E-05
   5.72520018         2.46725376E-05
   5.73719978         2.53833205E-05
   5.74919987         2.64765586E-05
   5.76119995         2.79296855E-05
   5.77320004         2.97082843E-05
   5.78520012         3.17672602E-05
   5.79720020         3.40524166E-05
   5.80919981         3.65023552E-05
   5.82119989         3.90506393E-05
   5.83319998         4.16280927E-05
   5.84520006         4.41651900E-05
   5.85720015         4.65944322E-05
   5.86920023         4.88525657E-05
   5.88119984         5.08826670E-05
   5.89319992         5.26359327E-05
   5.90520000         5.40731453E-05
   5.91720009         5.51658013E-05
   5.92920017         5.58968422E-05
   5.94119978         5.62610039E-05
   5.95319986         5.62647692E-05
   5.96519995         5.59259497E-05
   5.97720003         5.52729580E-05
   5.98920012         5.43437636E-05
   6.00120020         5.31846053E-05
   6.01319981         5.18484812E-05
   6.02519989         5.03935116E-05
   6.03719997         4.88811420E-05
   6.04920006         4.73743203E-05
   6.06120014         4.59356197E-05
   6.07320023         4.46253835E-05
   6.08519983         4.34999492E-05
   6.09719992         4.26099323E-05
   6.10920000         4.19987009E-05
   6.12120008         4.17010051E-05
   6.13320017         4.17418305E-05
   6.14519978         4.21355398E-05
   6.15719986         4.28852691E-05
   6.16919994         4.39826799E-05
   6.18120003         4.54080655E-05
   6.19320011         4.71307976E-05
   6.20520020         4.91101455E-05
   6.21719980         5.12964580E-05
   6.22919989         5.36326406E-05
   6.24119997         5.60559602E-05
   6.25320005         5.85000162E-05
   6.26520014         6.08968840E-05
   6.27720022         6.31793373E-05
   6.28919983         6.52830495E-05
   6.30119991         6.71486632E-05
   6.31320000         6.87237334E-05
   6.32520008         6.99643933E-05
   6.33720016         7.08367515E-05
   6.34919977         7.13179033E-05
   6.36119986         7.13966365E-05
   6.37319994         7.10737586E-05
   6.38520002         7.03620026E-05
   6.39720011         6.92856338E-05
   6.40920019         6.78797223E-05
   6.42119980         6.61891245E-05
   6.43319988         6.42671876E-05
   6.44519997         6.21742292E-05
   6.45720005         5.99758969E-05
   6.46920013         5.77413375E-05
   6.48120022         5.55413208E-05
   6.49319983         5.34462815E-05
   6.50519991         5.15243410E-05
   6.51719999         4.98394002E-05
   6.52920008         4.84492484E-05
   6.54120016         4.74038607E-05
   6.55319977         4.67437894E-05
   6.56519985         4.64988734E-05
   6.57719994         4.66871461E-05
   6.58920002         4.73141408E-05
   6.60120010         4.83725416E-05
   6.61320019         4.98422742E-05
   6.62519979         5.16910004E-05
   6.63719988         5.38750428E-05
   6.64919996         5.63407521E-05
   6.66120005         5.90261916E-05
   6.67320013         6.18631748E-05
   6.68520021         6.47795168E-05
   6.69719982         6.77013813E-05
   6.70919991         7.05557759E-05
   6.72119999         7.32728877E-05
   6.73320007         7.57883172E-05
   6.74520016         7.80450864E-05
   6.75719976         7.99952759E-05
   6.76919985         8.16013780E-05
   6.78119993         8.28371194E-05
   6.79320002         8.36879699E-05
   6.80520010         8.41511792E-05
   6.81720018         8.42354057E-05
   6.82919979         8.39599670E-05
   6.84119987         8.33538579E-05
   6.85319996         8.24543822E-05
   6.86520004         8.13056977E-05
   6.87720013         7.99571644E-05
   6.88920021         7.84616132E-05
   6.90119982         7.68736281E-05
   6.91319990         7.52477936E-05
   6.92519999         7.36371076E-05
   6.93720007         7.20914104E-05
   6.94920015         7.06560168E-05
   6.96120024         6.93704860E-05
   6.97319984         6.82676837E-05
   6.98519993         6.73729810E-05
   6.99720001         6.67037384E-05
   7.00920010         6.62690945E-05
   7.02120018         6.60699952E-05
   7.03319979         6.60995647E-05
   7.04519987         6.63436585E-05
   7.05719995         6.67817658E-05
   7.06920004         6.73880932E-05
   7.08120012         6.81328020E-05
   7.09320021         6.89833687E-05
   7.10519981         6.99060474E-05
   7.11719990         7.08672378E-05
   7.12919998         7.18348529E-05
   7.14120007         7.27794904E-05
   7.15320015         7.36754228E-05
   7.16520023         7.45014186E-05
   7.17719984         7.52412088E-05
   7.18919992         7.58837632E-05
   7.20120001         7.64232245E-05
   7.21320009         7.68586542E-05
   7.22520018         7.71935083E-05
   7.23719978         7.74349683E-05
   7.24919987         7.75931767E-05
   7.26119995         7.76803499E-05
   7.27320004         7.77099049E-05
   7.28520012         7.76956367E-05
   7.29720020         7.76510133E-05
   7.30919981         7.75884764E-05
   7.32119989         7.75189983E-05
   7.33319998         7.74517321E-05
   7.34520006         7.73937281E-05
   7.35720015         7.73499341E-05
   7.36920023         7.73231586E-05
   7.38119984         7.73142019E-05
   7.39319992         7.73220600E-05
   7.40520000         7.73441570E-05
   7.41720009         7.73766660E-05
   7.42920017         7.74147629E-05
   7.44119978         7.74529981E-05
   7.45319986         7.74856235E-05
   7.46519995         7.75068911E-05
   7.47720003         7.75114240E-05
   7.48920012         7.74945147E-05
   7.50120020         7.74523869E-05
   7.51319981         7.73825450E-05
   7.52519989         7.72839485E-05
   7.53719997         7.71572231E-05
   7.54920006         7.70047845E-05
   7.56120014         7.68308382E-05
   7.57320023         7.66413214E-05
   7.58519983         7.64437063E-05
   7.59719992         7.62466589E-05
   7.60920000         7.60596304E-05
   7.62120008         7.58923343E-05
   7.63320017         7.57541129E-05
   7.64519978         7.56533627E-05
   7.65719986         7.55968431E-05
   7.66919994         7.55891670E-05
   7.68120003         7.56323279E-05
   7.69320011         7.57253292E-05
   7.70520020         7.58640890E-05
   7.71719980         7.60414623E-05
   7.72919989         7.62474956E-05
   7.74119997         7.64699071E-05
   7.75320005         7.66947414E-05
   7.76520014         7.69071121E-05
   7.77720022         7.70921761E-05
   7.78919983         7.72359635E-05
   7.80119991         7.73263455E-05
   7.81320000         7.73537686E-05
   7.82520008         7.73119245E-05
   7.83720016         7.71981722E-05
   7.84919977         7.70136612E-05
   7.86119986         7.67632664E-05
   7.87319994         7.64552533E-05
   7.88520002         7.61006522E-05
   7.89720011         7.57124799E-05
   7.90920019         7.53048589E-05
   7.92119980         7.48920502E-05
   7.93319988         7.44874778E-05
   7.94519997         7.41028707E-05
   7.95720005         7.37475930E-05
   7.96920013         7.34281057E-05
   7.98120022         7.31477558E-05
   7.99319983         7.29068051E-05
   8.00520039         7.27026927E-05
   8.01720047         7.25305872E-05
   8.02919960         7.23841295E-05
   8.04119968         7.22562254E-05
   8.05319977         7.21399920E-05
   8.06519985         7.20296302E-05
   8.07719994         7.19212039E-05
   8.08920002         7.18133015E-05
   8.10120010         7.17073635E-05
   8.11320019         7.16079303E-05
   8.12520027         7.15224523E-05
   8.13720036         7.14609851E-05
   8.14920044         7.14355338E-05
   8.16119957         7.14593261E-05
   8.17319965         7.15458373E-05
   8.18519974         7.17078510E-05
   8.19719982         7.19564632E-05
   8.20919991         7.23002013E-05
   8.22119999         7.27442675E-05
   8.23320007         7.32900007E-05
   8.24520016         7.39345269E-05
   8.25720024         7.46706864E-05
   8.26920033         7.54871944E-05
   8.28120041         7.63690550E-05
   8.29319954         7.72981439E-05
   8.30519962         7.82539209E-05
   8.31719971         7.92143255E-05
   8.32919979         8.01566785E-05
   8.34119987         8.10585916E-05
   8.35319996         8.18988410E-05
   8.36520004         8.26581672E-05
   8.37720013         8.33199592E-05
   8.38920021         8.38707710E-05
   8.40120029         8.43007219E-05
   8.41320038         8.46037365E-05
   8.42520046         8.47775736E-05
   8.43719959         8.48238124E-05
   8.44919968         8.47476040E-05
   8.46119976         8.45574323E-05
   8.47319984         8.42647205E-05
   8.48519993         8.38834094E-05
   8.49720001         8.34294769E-05
   8.50920010         8.29204582E-05
   8.52120018         8.23748851E-05
   8.53320026         8.18117551E-05
   8.54520035         8.12499784E-05
   8.55720043         8.07078613E-05
   8.56919956         8.02024806E-05
   8.58119965         7.97492612E-05
   8.59319973         7.93614381E-05
   8.60519981         7.90496706E-05
   8.61719990         7.88216930E-05
   8.62919998         7.86820310E-05
   8.64120007         7.86318269E-05
   8.65320015         7.86687960E-05
   8.66520023         7.87872341E-05
   8.67720032         7.89781989E-05
   8.68920040         7.92298233E-05
   8.70119953         7.95276792E-05
   8.71319962         7.98553519E-05
   8.72519970         8.01950009E-05
   8.73719978         8.05281015E-05
   8.74919987         8.08361365E-05
   8.76119995         8.11013451E-05
   8.77320004         8.13073784E-05
   8.78520012         8.14399391E-05
   8.79720020         8.14873056E-05
   8.80920029         8.14406812E-05
   8.82120037         8.12944418E-05
   8.83320045         8.10462079E-05
   8.84519958         8.06967146E-05
   8.85719967         8.02495779E-05
   8.86919975         7.97109169E-05
   8.88119984         7.90888444E-05
   8.89319992         7.83929354E-05
   8.90520000         7.76336528E-05
   8.91720009         7.68218088E-05
   8.92920017         7.59681061E-05
   8.94120026         7.50827821E-05
   8.95320034         7.41753829E-05
   8.96520042         7.32546687E-05
   8.97719955         7.23287521E-05
   8.98919964         7.14052294E-05
   9.00119972         7.04915510E-05
   9.01319981         6.95953422E-05
   9.02519989         6.87248612E-05
   9.03719997         6.78892684E-05
   9.04920006         6.70989393E-05
   9.06120014         6.63655810E-05
   9.07320023         6.57022101E-05
   9.08520031         6.51229348E-05