 -0.622799993         1.00000002E-24
 -0.610800028         1.00000002E-24
 -0.598800004         1.00000002E-24
 -0.586799979         1.00000002E-24
 -0.574800014         1.00000002E-24
 -0.562799990         4.63423537E-25
 -0.550800025        -3.69258611E-24
 -0.538800001        -2.30742667E-23
 -0.526799977        -1.00859142E-22
 -0.514800012        -3.93665346E-22
 -0.502799988        -1.38898014E-21
 -0.490799993        -4.32196781E-21
 -0.478799999        -1.17135172E-20
 -0.466800004        -2.76536786E-20
 -0.454800010        -5.71479117E-20
 -0.442799985        -1.03898376E-19
 -0.430799991        -1.66748315E-19
 -0.418799996        -2.36772644E-19
 -0.406800002        -2.98920455E-19
 -0.394800007        -3.42481751E-19
 -0.382800013        -3.81396437E-19
 -0.370799989        -4.77718362E-19
 -0.358799994        -7.51732693E-19
 -0.346799999        -1.35671145E-18
 -0.334800005        -2.40381891E-18
 -0.322800010        -3.84916669E-18
 -0.310799986        -5.39651060E-18
 -0.298799992        -6.50661924E-18
 -0.286799997        -6.60631312E-18
 -0.274800003        -5.52566410E-18
 -0.262800008        -4.05345135E-18
 -0.250800014        -4.32740489E-18
 -0.238800004        -9.65878453E-18
 -0.226799995        -2.34507474E-17
 -0.214800000        -4.71963615E-17
 -0.202800006        -7.81150857E-17
 -0.190799996        -1.07617197E-16
 -0.178800002        -1.22125197E-16
 -0.166800007        -1.07432418E-16
 -0.154799998        -5.65061238E-17
 -0.142800003         2.13955427E-17
 -0.130799994         9.45301475E-17
 -0.118799999         1.10672901E-16
 -0.106799997         1.13483034E-17
  -9.48000029E-02    -2.41806439E-16
  -8.28000009E-02    -6.35075234E-16
  -7.07999989E-02    -1.07821693E-15
  -5.88000007E-02    -1.40408501E-15
  -4.67999987E-02    -1.40571756E-15
  -3.48000005E-02    -9.12853231E-16
  -2.28000004E-02     1.08330141E-16
  -1.08000003E-02     1.46769454E-15
   1.20000006E-03     2.72275607E-15
   1.31999999E-02     3.25107699E-15
   2.52000000E-02     2.43799926E-15
   3.72000001E-02    -5.14876819E-17
   4.91999984E-02    -3.99936220E-15
   6.12000003E-02    -8.47829243E-15
   7.32000023E-02    -1.19293376E-14
   8.51999968E-02    -1.25368499E-14
   9.71999988E-02    -8.86200513E-15
  0.109200001        -5.72493475E-16
  0.121200003         1.09946232E-14
  0.133200005         2.27264039E-14
  0.145199999         3.02890545E-14
  0.157199994         2.93529137E-14
  0.169200003         1.72314996E-14
  0.181199998        -5.56671027E-15
  0.193200007        -3.44960876E-14
  0.205200002        -6.13755669E-14
  0.217199996        -7.62471751E-14
  0.229200006        -7.04116941E-14
  0.241200000        -3.98457580E-14
  0.253199995         1.21417836E-14
  0.265199989         7.41589746E-14
  0.277200013         1.28606937E-13
  0.289200008         1.56121603E-13
  0.301200002         1.41591518E-13
  0.313199997         8.00063683E-14
  0.325199991        -1.98836377E-14
  0.337199986        -1.35721078E-13
  0.349200010        -2.36098820E-13
  0.361200005        -2.88714988E-13
  0.373199999        -2.70005887E-13
  0.385199994        -1.73385679E-13
  0.397199988        -1.33641038E-14
  0.409200013         1.76114318E-13
  0.421200007         3.49058564E-13
  0.433200002         4.58711086E-13
  0.445199996         4.69638163E-13
  0.457199991         3.67294682E-13
  0.469199985         1.62552833E-13
  0.481200010        -1.09728131E-13
  0.493200004        -3.97280462E-13
  0.505200028        -6.40127166E-13
  0.517199993        -7.81092422E-13
  0.529200017        -7.75437494E-13
  0.541199982        -5.98993565E-13
  0.553200006        -2.54924689E-13
  0.565199971         2.20865522E-13
  0.577199996         7.56790572E-13
  0.589200020         1.24777749E-12
  0.601199985         1.56622404E-12
  0.613200009         1.58450726E-12
  0.625199974         1.20861058E-12
  0.637199998         4.17269490E-13
  0.649200022        -7.04438623E-13
  0.661199987        -1.95142708E-12
  0.673200011        -3.01794657E-12
  0.685199976        -3.55594026E-12
  0.697200000        -3.26637567E-12
  0.709200025        -2.00368433E-12
  0.721199989         1.37314558E-13
  0.733200014         2.78539540E-12
  0.745199978         5.33282489E-12
  0.757200003         7.05695051E-12
  0.769200027         7.30360997E-12
  0.781199992         5.68814657E-12
  0.793200016         2.25544453E-12
  0.805199981        -2.45702330E-12
  0.817200005        -7.48778383E-12
  0.829200029        -1.16502112E-11
  0.841199994        -1.38195870E-11
  0.853200018        -1.32339365E-11
  0.865199983        -9.72191511E-12
  0.877200007        -3.78509160E-12
  0.889199972         3.49939999E-12
  0.901199996         1.07371100E-11
  0.913200021         1.65658095E-11
  0.925199986         1.99944800E-11
  0.937200010         2.06280670E-11
  0.949199975         1.87055493E-11
  0.961199999         1.49347375E-11
  0.973200023         1.01712588E-11
  0.985199988         5.04121397E-12
  0.997200012        -3.69585168E-13
   1.00919998        -6.65018344E-12
   1.02119994        -1.49591815E-11
   1.03320003        -2.66806646E-11
   1.04519999        -4.29054535E-11
   1.05719995        -6.38447212E-11
   1.06920004        -8.82926579E-11
   1.08120000        -1.13230821E-10
   1.09319997        -1.33615799E-10
   1.10520005        -1.42331369E-10
   1.11720002        -1.30227218E-10
   1.12919998        -8.61232058E-11
   1.14119995         3.37226991E-12
   1.15320003         1.54403282E-10
   1.16520000         3.86970789E-10
   1.17719996         7.26855687E-10
   1.18920004         1.20870558E-09
   1.20120001         1.88074667E-09
   1.21319997         2.81176815E-09
   1.22520006         4.10123313E-09
   1.23720002         5.89365801E-09
   1.24919999         8.39872794E-09
   1.26119995         1.19190391E-08
   1.27320004         1.68878298E-08
   1.28520000         2.39195970E-08
   1.29719996         3.38770576E-08
   1.30920005         4.79583662E-08
   1.32120001         6.78088554E-08
   1.33319998         9.56614841E-08
   1.34519994         1.34509989E-07
   1.35720003         1.88317713E-07
   1.36919999         2.62263455E-07
   1.38119996         3.63023958E-07
   1.39320004         4.99089481E-07
   1.40520000         6.81105803E-07
   1.41719997         9.22231550E-07
   1.42920005         1.23849748E-06
   1.44120002         1.64914672E-06
   1.45319998         2.17693309E-06
   1.46519995         2.84835164E-06
   1.47720003         3.69376608E-06
   1.48920000         4.74740818E-06
   1.50119996         6.04720753E-06
   1.51320004         7.63442767E-06
   1.52520001         9.55307496E-06
   1.53719997         1.18490698E-05
   1.54920006         1.45691556E-05
   1.56120002         1.77595612E-05
   1.57319999         2.14644333E-05
   1.58519995         2.57240499E-05
   1.59720004         3.05729118E-05
   1.60920000         3.60377016E-05
   1.62119997         4.21352961E-05
   1.63320005         4.88708465E-05
   1.64520001         5.62360510E-05
   1.65719998         6.42077212E-05
   1.66919994         7.27468214E-05
   1.68120003         8.17979308E-05
   1.69319999         9.12893447E-05
   1.70519996         1.01133817E-04
   1.71720004         1.11229965E-04
   1.72920001         1.21464334E-04
   1.74119997         1.31714129E-04
   1.75320005         1.41850425E-04
   1.76520002         1.51741857E-04
   1.77719998         1.61258678E-04
   1.78919995         1.70276733E-04
   1.80120003         1.78681643E-04
   1.81320000         1.86372476E-04
   1.82519996         1.93265150E-04
   1.83720005         1.99295173E-04
   1.84920001         2.04419557E-04
   1.86119998         2.08618003E-04
   1.87320006         2.11893042E-04
   1.88520002         2.14269341E-04
   1.89719999         2.15791995E-04
   1.90919995         2.16524189E-04
   1.92120004         2.16544140E-04
   1.93320000         2.15941458E-04
   1.94519997         2.14813466E-04
   1.95720005         2.13261214E-04
   1.96920002         2.11385879E-04
   1.98119998         2.09285368E-04
   1.99319994         2.07051504E-04
   2.00519991         2.04767828E-04
   2.01719999         2.02508192E-04
   2.02920008         2.00335984E-04
   2.04119992         1.98304158E-04
   2.05320001         1.96455861E-04
   2.06520009         1.94825538E-04
   2.07719994         1.93440370E-04
   2.08920002         1.92321953E-04
   2.10120010         1.91487896E-04
   2.11319995         1.90953229E-04
   2.12520003         1.90731589E-04
   2.13720012         1.90835883E-04
   2.14919996         1.91278581E-04
   2.16120005         1.92071384E-04
   2.17319989         1.93224609E-04
   2.18519998         1.94746128E-04
   2.19720006         1.96640030E-04
   2.20919991         1.98905269E-04
   2.22119999         2.01534378E-04
   2.23320007         2.04512326E-04
   2.24519992         2.07815698E-04
   2.25720000         2.11412422E-04
   2.26920009         2.15262058E-04
   2.28119993         2.19316396E-04
   2.29320002         2.23520867E-04
   2.30520010         2.27816316E-04
   2.31719995         2.32141130E-04
   2.32920003         2.36433683E-04
   2.34120011         2.40634850E-04
   2.35319996         2.44690542E-04
   2.36520004         2.48554104E-04
   2.37719989         2.52188154E-04
   2.38919997         2.55566469E-04
   2.40120006         2.58674903E-04
   2.41319990         2.61512148E-04
   2.42519999         2.64089729E-04
   2.43720007         2.66431569E-04
   2.44919991         2.68573174E-04
   2.46120000         2.70560267E-04
   2.47320008         2.72447360E-04
   2.48519993         2.74295628E-04
   2.49720001         2.76171253E-04
   2.50920010         2.78143300E-04
   2.52119994         2.80281820E-04
   2.53320003         2.82655819E-04
   2.54520011         2.85331742E-04
   2.55719995         2.88371608E-04
   2.56920004         2.91831791E-04
   2.58119988         2.95761653E-04
   2.59319997         3.00202693E-04
   2.60520005         3.05187423E-04
   2.61719990         3.10738804E-04
   2.62919998         3.16869729E-04
   2.64120007         3.23582412E-04
   2.65319991         3.30868119E-04
   2.66520000         3.38706828E-04
   2.67720008         3.47066933E-04
   2.68919992         3.55904951E-04
   2.70120001         3.65165179E-04
   2.71320009         3.74779338E-04
   2.72519994         3.84666171E-04
   2.73720002         3.94730945E-04
   2.74920011         4.04864870E-04
   2.76119995         4.14944865E-04
   2.77320004         4.24832862E-04
   2.78520012         4.34375659E-04
   2.79719996         4.43405035E-04
   2.80920005         4.51738044E-04
   2.82119989         4.59177827E-04
   2.83319998         4.65515390E-04
   2.84520006         4.70531726E-04
   2.85719991         4.74000903E-04
   2.86919999         4.75694309E-04
   2.88120008         4.75385401E-04
   2.89319992         4.72855754E-04
   2.90520000         4.67901380E-04
   2.91720009         4.60340263E-04
   2.92919993         4.50019725E-04
   2.94120002         4.36824135E-04
   2.95320010         4.20682481E-04
   2.96519995         4.01575002E-04
   2.97720003         3.79539153E-04
   2.98920012         3.54674179E-04
   3.00119996         3.27143876E-04
   3.01320004         2.97177496E-04
   3.02519989         2.65068578E-04
   3.03719997         2.31171274E-04
   3.04920006         1.95894580E-04
   3.06119990         1.59694275E-04
   3.07319999         1.23062797E-04
   3.08520007         8.65174516E-05
   3.09719992         5.05873104E-05
   3.10920000         1.57992326E-05
   3.12120008        -1.73364642E-05
   3.13319993        -4.83401382E-05
   3.14520001        -7.67761157E-05
   3.15720010        -1.02264821E-04
   3.16919994        -1.24493046E-04
   3.18120003        -1.43222132E-04
   3.19320011        -1.58293609E-04
   3.20519996        -1.69632258E-04
   3.21720004        -1.77246344E-04
   3.22919989        -1.81225114E-04
   3.24119997        -1.81733718E-04
   3.25320005        -1.79005743E-04
   3.26519990        -1.73333814E-04
   3.27719998        -1.65058489E-04
   3.28920007        -1.54556139E-04
   3.30119991        -1.42226141E-04
   3.31320000        -1.28477943E-04
   3.32520008        -1.13718546E-04
   3.33719993        -9.83407372E-05
   3.34920001        -8.27126059E-05
   3.36120009        -6.71685921E-05
   3.37319994        -5.20022950E-05
   3.38520002        -3.74613119E-05
   3.39720011        -2.37440654E-05
   3.40919995        -1.09986804E-05
   3.42120004         6.76194190E-07
   3.43319988         1.12287926E-05
   3.44519997         2.06500499E-05
   3.45720005         2.89681684E-05
   3.46919990         3.62421779E-05
   3.48119998         4.25548351E-05
   3.49320006         4.80052331E-05
   3.50519991         5.27013981E-05
   3.51719999         5.67532334E-05
   3.52920008         6.02660948E-05
   3.54119992         6.33352756E-05
   3.55320001         6.60415099E-05
   3.56520009         6.84478364E-05
   3.57719994         7.05977436E-05
   3.58920002         7.25147765E-05
   3.60120010         7.42034244E-05
   3.61319995         7.56514055E-05
   3.62520003         7.68329774E-05
   3.63720012         7.77131936E-05
   3.64919996         7.82527713E-05
   3.66120005         7.84133590E-05
   3.67319989         7.81627241E-05
   3.68519998         7.74796936E-05
   3.69720006         7.63583957E-05
   3.70919991         7.48115708E-05
   3.72119999         7.28727027E-05
   3.73320007         7.05968268E-05
   3.74519992         6.80597877E-05
   3.75720000         6.53561874E-05
   3.76920009         6.25957764E-05
   3.78119993         5.98988554E-05
   3.79320002         5.73905781E-05
   3.80520010         5.51947596E-05
   3.81719995         5.34273931E-05
   3.82920003         5.21903676E-05
   3.84120011         5.15657121E-05
   3.85319996         5.16107357E-05
   3.86520004         5.23544259E-05
   3.87719989         5.37952401E-05
   3.88919997         5.59005202E-05
   3.90120006         5.86075475E-05
   3.91319990         6.18261183E-05
   3.92519999         6.54425894E-05
   3.93720007         6.93250913E-05
   3.94919991         7.33296401E-05
   3.96120000         7.73067295E-05
   3.97320008         8.11081263E-05
   3.98519993         8.45934919E-05
   3.99720001         8.76363774E-05
   4.00920010         9.01295571E-05
   4.02120018         9.19891827E-05
   4.03319979         9.31578033E-05
   4.04519987         9.36061842E-05
   4.05719995         9.33337869E-05
   4.06920004         9.23680709E-05
   4.08120012         9.07627109E-05
   4.09320021         8.85948830E-05
   4.10519981         8.59617721E-05
   4.11719990         8.29765486E-05
   4.12919998         7.97638932E-05
   4.14120007         7.64553915E-05
   4.15320015         7.31848486E-05
   4.16520023         7.00836608E-05
   4.17719984         6.72764945E-05
   4.18919992         6.48772402E-05
   4.20120001         6.29853021E-05
   4.21320009         6.16824909E-05
   4.22520018         6.10303541E-05
   4.23719978         6.10681527E-05
   4.24919987         6.18115155E-05
   4.26119995         6.32517476E-05
   4.27320004         6.53559036E-05
   4.28520012         6.80676458E-05
   4.29720020         7.13089103E-05
   4.30919981         7.49823084E-05
   4.32119989         7.89742189E-05
   4.33319998         8.31586731E-05
   4.34520006         8.74016478E-05
   4.35720015         9.15658457E-05
   4.36920023         9.55157739E-05
   4.38119984         9.91228080E-05
   4.39319992         1.02270169E-04
   4.40520000         1.04857543E-04
   4.41720009         1.06805150E-04
   4.42920017         1.08057131E-04
   4.44119978         1.08583918E-04
   4.45319986         1.08383712E-04
   4.46519995         1.07482760E-04
   4.47720003         1.05934509E-04
   4.48920012         1.03817671E-04
   4.50120020         1.01233163E-04
   4.51319981         9.83001155E-05
   4.52519989         9.51511101E-05
   4.53719997         9.19267550E-05
   4.54920006         8.87699571E-05
   4.56120014         8.58199564E-05
   4.57320023         8.32066144E-05
   4.58519983         8.10449346E-05
   4.59719992         7.94302832E-05
   4.60920000         7.84344811E-05
   4.62120008         7.81028066E-05
   4.63320017         7.84522272E-05
   4.64519978         7.94708467E-05
   4.65719986         8.11186110E-05
   4.66919994         8.33292070E-05
   4.68120003         8.60132204E-05
   4.69320011         8.90621086E-05
   4.70520020         9.23531697E-05
   4.71719980         9.57549419E-05
   4.72919989         9.91330089E-05
   4.74119997         1.02355807E-04
   4.75320005         1.05300249E-04
   4.76520014         1.07856817E-04
   4.77720022         1.09933986E-04
   4.78919983         1.11461704E-04
   4.80119991         1.12393813E-04
   4.81320000         1.12709371E-04
   4.82520008         1.12412708E-04
   4.83720016         1.11532448E-04
   4.84919977         1.10119385E-04
   4.86119986         1.08243425E-04
   4.87319994         1.05989871E-04
   4.88520002         1.03455066E-04
   4.89720011         1.00741738E-04
   4.90920019         9.79542965E-05
   4.92119980         9.51942711E-05
   4.93319988         9.25560234E-05
   4.94519997         9.01232124E-05
   4.95720005         8.79656945E-05
   4.96920013         8.61374720E-05
   4.98120022         8.46753683E-05
   4.99319983         8.35986211E-05
   5.00519991         8.29093624E-05
   5.01719999         8.25938187E-05
   5.02920008         8.26242467E-05
   5.04120016         8.29612836E-05
   5.05319977         8.35568062E-05
   5.06519985         8.43569069E-05
   5.07719994         8.53049642E-05
   5.08920002         8.63445021E-05
   5.10120010         8.74219331E-05
   5.11320019         8.84887777E-05
   5.12519979         8.95034755E-05
   5.13719988         9.04326516E-05
   5.14919996         9.12517062E-05
   5.16120005         9.19449667E-05
   5.17320013         9.25051572E-05
   5.18520021         9.29325106E-05
   5.19719982         9.32333642E-05
   5.20919991         9.34185809E-05
   5.22119999         9.35017233E-05
   5.23320007         9.34972268E-05
   5.24520016         9.34186610E-05
   5.25719976         9.32771945E-05
   5.26919985         9.30803144E-05
   5.28119993         9.28310401E-05
   5.29320002         9.25275453E-05
   5.30520010         9.21632163E-05
   5.31720018         9.17273210E-05
   5.32919979         9.12060714E-05
   5.34119987         9.05840716E-05
   5.35319996         8.98461221E-05
   5.36520004         8.89792063E-05
   5.37720013         8.79744621E-05
   5.38920021         8.68291172E-05
   5.40119982         8.55481194E-05
   5.41319990         8.41453875E-05
   5.42519999         8.26445394E-05
   5.43720007         8.10789570E-05
   5.44920015         7.94912557E-05
   5.46120024         7.79319380E-05
   5.47319984         7.64575161E-05
   5.48519993         7.51279294E-05
   5.49720001         7.40035830E-05
   5.50920010         7.31421096E-05
   5.52120018         7.25949649E-05
   5.53319979         7.24042766E-05
   5.54519987         7.25999344E-05
   5.55719995         7.31973414E-05
   5.56920004         7.41958283E-05
   5.58120012         7.55779838E-05
   5.59320021         7.73099600E-05
   5.60519981         7.93427680E-05
   5.61719990         8.16144093E-05
   5.62919998         8.40529465E-05
   5.64120007         8.65800903E-05
   5.65320015         8.91152376E-05
   5.66520023         9.15796700E-05
   5.67719984         9.39005477E-05
   5.68919992         9.60145408E-05
   5.70120001         9.78708704E-05
   5.71320009         9.94333386E-05
   5.72520018         1.00681595E-04
   5.73719978         1.01611193E-04
   5.74919987         1.02232727E-04
   5.76119995         1.02569997E-04
   5.77320004         1.02657476E-04
   5.78520012         1.02537146E-04
   5.79720020         1.02255181E-04
   5.80919981         1.01858473E-04
   5.82119989         1.01391524E-04
   5.83319998         1.00893776E-04
   5.84520006         1.00397585E-04
   5.85720015         9.99270778E-05
   5.86920023         9.94977163E-05
   5.88119984         9.91167835E-05
   5.89319992         9.87845415E-05
   5.90520000         9.84959552E-05
   5.91720009         9.82427009E-05
   5.92920017         9.80154509E-05
   5.94119978         9.78059252E-05
   5.95319986         9.76086594E-05
   5.96519995         9.74223585E-05
   5.97720003         9.72505586E-05
   5.98920012         9.71016489E-05
   6.00120020         9.69882167E-05
   6.01319981         9.69257890E-05
   6.02519989         9.69311150E-05
   6.03719997         9.70200854E-05
   6.04920006         9.72055714E-05
   6.06120014         9.74953218E-05
   6.07320023         9.78901808E-05
   6.08519983         9.83827631E-05
   6.09719992         9.89567270E-05
   6.10920000         9.95867376E-05
   6.12120008         1.00239187E-04
   6.13320017         1.00873563E-04
   6.14519978         1.01444464E-04
   6.15719986         1.01904094E-04
   6.16919994         1.02205042E-04
   6.18120003         1.02303224E-04
   6.19320011         1.02160688E-04
   6.20520020         1.01748206E-04
   6.21719980         1.01047415E-04
   6.22919989         1.00052355E-04
   6.24119997         9.87704043E-05
   6.25320005         9.72224589E-05
   6.26520014         9.54424177E-05
   6.27720022         9.34759883E-05
   6.28919983         9.13789481E-05
   6.30119991         8.92149037E-05
   6.31320000         8.70527438E-05
   6.32520008         8.49638964E-05
   6.33720016         8.30195131E-05
   6.34919977         8.12878498E-05
   6.36119986         7.98316687E-05
   6.37319994         7.87060999E-05
   6.38520002         7.79567490E-05
   6.39720011         7.76182278E-05
   6.40920019         7.77130990E-05
   6.42119980         7.82512216E-05
   6.43319988         7.92294741E-05
   6.44519997         8.06318130E-05
   6.45720005         8.24296803E-05
   6.46920013         8.45827162E-05
   6.48120022         8.70396179E-05
   6.49319983         8.97393911E-05
   6.50519991         9.26126813E-05
   6.51719999         9.55833675E-05
   6.52920008         9.85703155E-05
   6.54120016         1.01489342E-04
   6.55319977         1.04255334E-04
   6.56519985         1.06784450E-04
   6.57719994         1.08996472E-04
   6.58920002         1.10817185E-04
   6.60120010         1.12180685E-04
   6.61320019         1.13031609E-04
   6.62519979         1.13327114E-04
   6.63719988         1.13038615E-04
   6.64919996         1.12153139E-04
   6.66120005         1.10674162E-04
   6.67320013         1.08622022E-04
   6.68520021         1.06033724E-04
   6.69719982         1.02962207E-04
   6.70919991         9.94750299E-05
   6.72119999         9.56525400E-05
   6.73320007         9.15855926E-05
   6.74520016         8.73728422E-05
   6.75719976         8.31177967E-05
   6.76919985         7.89256737E-05
   6.78119993         7.49001338E-05
   6.79320002         7.11402099E-05
   6.80520010         6.77373246E-05
   6.81720018         6.47725610E-05
   6.82919979         6.23144369E-05
   6.84119987         6.04170273E-05
   6.85319996         5.91186290E-05
   6.86520004         5.84409681E-05
   6.87720013         5.83889414E-05
   6.88920021         5.89509400E-05
   6.90119982         6.00995882E-05
   6.91319990         6.17930491E-05
   6.92519999         6.39766367E-05
   6.93720007         6.65848056E-05
   6.94920015         6.95433409E-05
   6.96120024         7.27717488E-05
   6.97319984         7.61856718E-05
   6.98519993         7.96993190E-05
   6.99720001         8.32278238E-05
   7.00920010         8.66894406E-05
   7.02120018         9.00075538E-05
   7.03319979         9.31124232E-05
   7.04519987         9.59426980E-05
   7.05719995         9.84465514E-05
   7.06920004         1.00582627E-04
   7.08120012         1.02320519E-04
   7.09320021         1.03641069E-04
   7.10519981         1.04536339E-04
   7.11719990         1.05009232E-04
   7.12919998         1.05072970E-04
   7.14120007         1.04750230E-04
   7.15320015         1.04072140E-04
   7.16520023         1.03077073E-04
   7.17719984         1.01809223E-04
   7.18919992         1.00317149E-04
   7.20120001         9.86521627E-05
   7.21320009         9.68667082E-05
   7.22520018         9.50127578E-05
   7.23719978         9.31402465E-05
   7.24919987         9.12956457E-05
   7.26119995         8.95206831E-05
   7.27320004         8.78513820E-05
   7.28520012         8.63172463E-05
   7.29720020         8.49408607E-05
   7.30919981         8.37377665E-05
   7.32119989         8.27166878E-05
   7.33319998         8.18800836E-05
   7.34520006         8.12249928E-05
   7.35720015         8.07440883E-05
   7.36920023         8.04269075E-05
   7.38119984         8.02612194E-05
   7.39319992         8.02343129E-05
   7.40520000         8.03343137E-05
   7.41720009         8.05512173E-05
   7.42920017         8.08777768E-05
   7.44119978         8.13100560E-05
   7.45319986         8.18476183E-05
   7.46519995         8.24934614E-05
   7.47720003         8.32535225E-05
   7.48920012         8.41359724E-05
   7.50120020         8.51502264E-05
   7.51319981         8.63058012E-05
   7.52519989         8.76111153E-05
   7.53719997         8.90722949E-05
   7.54920006         9.06920977E-05
   7.56120014         9.24689739E-05
   7.57320023         9.43964260E-05
   7.58519983         9.64626379E-05
   7.59719992         9.86504019E-05
   7.60920000         1.00937366E-04
   7.62120008         1.03296581E-04
   7.63320017         1.05697291E-04
   7.64519978         1.08105909E-04
   7.65719986         1.10487163E-04
   7.66919994         1.12805275E-04
   7.68120003         1.15025134E-04
   7.69320011         1.17113363E-04
   7.70520020         1.19039301E-04
   7.71719980         1.20775774E-04
   7.72919989         1.22299563E-04
   7.74119997         1.23591846E-04
   7.75320005         1.24638187E-04
   7.76520014         1.25428458E-04
   7.77720022         1.25956620E-04
   7.78919983         1.26220286E-04
   7.80119991         1.26220213E-04
   7.81320000         1.25959879E-04
   7.82520008         1.25444887E-04
   7.83720016         1.24682614E-04
   7.84919977         1.23681704E-04
   7.86119986         1.22451936E-04
   7.87319994         1.21003963E-04
   7.88520002         1.19349294E-04
   7.89720011         1.17500385E-04
   7.90920019         1.15470801E-04
   7.92119980         1.13275455E-04
   7.93319988         1.10930945E-04
   7.94519997         1.08455810E-04
   7.95720005         1.05870880E-04
   7.96920013         1.03199425E-04
   7.98120022         1.00467296E-04
   7.99319983         9.77029340E-05
   8.00520039         9.49371606E-05
   8.01720047         9.22028994E-05
   8.02919960         8.95347039E-05
   8.04119968         8.69681244E-05
   8.05319977         8.45389441E-05
   8.06519985         8.22824295E-05
   8.07719994         8.02323120E-05
   8.08920002         7.84199437E-05
   8.10120010         7.68733516E-05
   8.11320019         7.56164009E-05
   8.12520027         7.46679943E-05
   8.13720036         7.40414980E-05
   8.14920044         7.37442533E-05
   8.16119957         7.37772571E-05
   8.17319965         7.41350959E-05
   8.18519974         7.48060193E-05
   8.19719982         7.57722155E-05
   8.20919991         7.70102488E-05
   8.22119999         7.84916920E-05
   8.23320007         8.01838105E-05
   8.24520016         8.20504210E-05
   8.25720024         8.40527864E-05
   8.26920033         8.61505323E-05
   8.28120041         8.83026660E-05
   8.29319954         9.04684348E-05
   8.30519962         9.26083085E-05
   8.31719971         9.46847940E-05
   8.32919979         9.66632288E-05
   8.34119987         9.85124570E-05
   8.35319996         1.00205427E-04
   8.36520004         1.01719685E-04
   8.37720013         1.03037652E-04
   8.38920021         1.04146900E-04
   8.40120029         1.05040206E-04
   8.41320038         1.05715495E-04
   8.42520046         1.06175648E-04
   8.43719959         1.06428211E-04
   8.44919968         1.06484986E-04
   8.46119976         1.06361513E-04
   8.47319984         1.06076535E-04
   8.48519993         1.05651357E-04
   8.49720001         1.05109233E-04
   8.50920010         1.04474668E-04
   8.52120018         1.03772800E-04
   8.53320026         1.03028797E-04
   8.54520035         1.02267222E-04
   8.55720043         1.01511505E-04
   8.56919956         1.00783465E-04
   8.58119965         1.00102909E-04
   8.59319973         9.94872462E-05
   8.60519981         9.89512846E-05
   8.61719990         9.85070001E-05
   8.62919998         9.81634366E-05
   8.64120007         9.79267206E-05
   8.65320015         9.78000317E-05
   8.66520023         9.77837553E-05
   8.67720032         9.78756289E-05
   8.68920040         9.80709301E-05
   8.70119953         9.83627033E-05
   8.71319962         9.87420208E-05
   8.72519970         9.91981724E-05
   8.73719978         9.97189345E-05
   8.74919987         1.00290774E-04
   8.76119995         1.00899022E-04
   8.77320004         1.01528029E-04
   8.78520012         1.02161313E-04
   8.79720020         1.02781662E-04
   8.80920029         1.03371240E-04
   8.82120037         1.03911698E-04
   8.83320045         1.04384322E-04
   8.84519958         1.04770152E-04
   8.85719967         1.05050218E-04
   8.86919975         1.05205778E-04
   8.88119984         1.05218642E-04
   8.89319992         1.05071565E-04
   8.90520000         1.04748651E-04
   8.91720009         1.04235907E-04
   8.92920017         1.03521714E-04
   8.94120026         1.02597442E-04
   8.95320034         1.01457961E-04
   8.96520042         1.00102210E-04
   8.97719955         9.85336519E-05
   8.98919964         9.67607120E-05
   9.00119972         9.47970839E-05
   9.01319981         9.26619759E-05
   9.02519989         9.03801920E-05
   9.03719997         8.79820509E-05
   9.04920006         8.55032340E-05
   9.06120014         8.29843484E-05
   9.07320023         8.04703959E-05
   9.08520031         7.80100600E-05