 -0.622799993       0.00000000    
 -0.610800028       0.00000000    
 -0.598800004       0.00000000    
 -0.586799979       0.00000000    
 -0.574800014       0.00000000    
 -0.562799990      -1.44820595E-26
 -0.550800025       4.31305463E-27
 -0.538800001       8.93543733E-25
 -0.526799977       6.89569744E-24
 -0.514800012       3.17645730E-23
 -0.502799988       1.09471742E-22
 -0.490799993       3.09353811E-22
 -0.478799999       7.54011126E-22
 -0.466800004       1.63613538E-21
 -0.454800010       3.22539794E-21
 -0.442799985       5.84606869E-21
 -0.430799991       9.79358904E-21
 -0.418799996       1.51604096E-20
 -0.406800002       2.15870859E-20
 -0.394800007       2.80669587E-20
 -0.382800013       3.30915834E-20
 -0.370799989       3.55290003E-20
 -0.358799994       3.64976902E-20
 -0.346799999       4.19590048E-20
 -0.334800005       6.47933417E-20
 -0.322800010       1.24111148E-19
 -0.310799986       2.39275667E-19
 -0.298799992       4.17587165E-19
 -0.286799997       6.38400109E-19
 -0.274800003       8.41950233E-19
 -0.262800008       9.35783327E-19
 -0.250800014       8.31153354E-19
 -0.238800004       5.11889917E-19
 -0.226799995       1.17878872E-19
 -0.214800000      -2.23260308E-22
 -0.202800006       6.83993942E-19
 -0.190799996       2.69547556E-18
 -0.178800002       6.23510010E-18
 -0.166800007       1.07978602E-17
 -0.154799998       1.49204622E-17
 -0.142800003       1.63083753E-17
 -0.130799994       1.25463149E-17
 -0.118799999       2.39668179E-18
 -0.106799997      -1.26468082E-17
  -9.48000029E-02  -2.72521816E-17
  -8.28000009E-02  -3.25004358E-17
  -7.07999989E-02  -1.82400902E-17
  -5.88000007E-02   2.23867979E-17
  -4.67999987E-02   8.72976243E-17
  -3.48000005E-02   1.60963339E-16
  -2.28000004E-02   2.14020318E-16
  -1.08000003E-02   2.09549598E-16
   1.20000006E-03   1.16617458E-16
   1.31999999E-02  -7.16123741E-17
   2.52000000E-02  -3.21520340E-16
   3.72000001E-02  -5.53117014E-16
   4.91999984E-02  -6.52594628E-16
   6.12000003E-02  -5.06558578E-16
   7.32000023E-02  -5.26205785E-17
   8.51999968E-02   6.68884660E-16
   9.71999988E-02   1.48458607E-15
  0.109200001       2.10190866E-15
  0.121200003       2.17992865E-15
  0.133200005       1.45056595E-15
  0.145199999      -1.40922936E-16
  0.157199994      -2.32748963E-15
  0.169200003      -4.50115299E-15
  0.181199998      -5.82429511E-15
  0.193200007      -5.47344178E-15
  0.205200002      -2.96413759E-15
  0.217199996       1.54466368E-15
  0.229200006       7.09354772E-15
  0.241200000       1.20218768E-14
  0.253199995       1.43652620E-14
  0.265199989       1.24894000E-14
  0.277200013       5.78861469E-15
  0.289200008      -4.79669506E-15
  0.301200002      -1.66887378E-14
  0.313199997      -2.61569246E-14
  0.325199991      -2.93503726E-14
  0.337199986      -2.36374827E-14
  0.349200010      -8.83662125E-15
  0.361200005       1.21394721E-14
  0.373199999       3.35999437E-14
  0.385199994       4.84602931E-14
  0.397199988       5.04338528E-14
  0.409200013       3.64138956E-14
  0.421200007       8.22328638E-15
  0.433200002      -2.70394093E-14
  0.445199996      -5.84815128E-14
  0.457199991      -7.45716965E-14
  0.469199985      -6.71702887E-14
  0.481200010      -3.51466293E-14
  0.493200004       1.38261052E-14
  0.505200028       6.43387660E-14
  0.517199993       9.73910758E-14
  0.529200017       9.67477034E-14
  0.541199982       5.56468798E-14
  0.553200006      -1.85260759E-14
  0.565199971      -1.03764463E-13
  0.577199996      -1.68276282E-13
  0.589200020      -1.80064215E-13
  0.601199985      -1.18849144E-13
  0.613200009       1.34307924E-14
  0.625199974       1.87634969E-13
  0.637199998       3.50982942E-13
  0.649200022       4.39855644E-13
  0.661199987       3.99451956E-13
  0.673200011       2.05035221E-13
  0.685199976      -1.22151136E-13
  0.697200000      -5.10840231E-13
  0.709200025      -8.51438494E-13
  0.721199989      -1.02283991E-12
  0.733200014      -9.28612005E-13
  0.745199978      -5.32664949E-13
  0.757200003       1.17105991E-13
  0.769200027       8.86843767E-13
  0.781199992       1.58075538E-12
  0.793200016       1.98796405E-12
  0.805199981       1.94138694E-12
  0.817200005       1.37259052E-12
  0.829200029       3.45684879E-13
  0.841199994      -9.42370531E-13
  0.853200018      -2.19895521E-12
  0.865199983      -3.10354932E-12
  0.877200007      -3.38943673E-12
  0.889199972      -2.91732545E-12
  0.901199996      -1.71980312E-12
  0.913200021      -2.96376151E-15
  0.925199986       1.89650357E-12
  0.937200010       3.58763063E-12
  0.949199975       4.71401520E-12
  0.961199999       5.03096479E-12
  0.973200023       4.45092010E-12
  0.985199988       3.04763463E-12
  0.997200012       1.02287200E-12
   1.00919998      -1.34906984E-12
   1.02119994      -3.77789813E-12
   1.03320003      -5.99587784E-12
   1.04519999      -7.76843607E-12
   1.05719995      -8.87980661E-12
   1.06920004      -9.10851429E-12
   1.08120000      -8.21373438E-12
   1.09319997      -5.95140690E-12
   1.10520005      -2.12896150E-12
   1.11720002       3.30724879E-12
   1.12919998       1.01718512E-11
   1.14119995       1.79562060E-11
   1.15320003       2.57879933E-11
   1.16520000       3.24533317E-11
   1.17719996       3.64846209E-11
   1.18920004       3.63023951E-11
   1.20120001       3.03896144E-11
   1.21319997       1.74766035E-11
   1.22520006      -3.27558488E-12
   1.23720002      -3.20893138E-11
   1.24919999      -6.83613513E-11
   1.26119995      -1.10397705E-10
   1.27320004      -1.55055677E-10
   1.28520000      -1.97266287E-10
   1.29719996      -2.29418526E-10
   1.30920005      -2.40601455E-10
   1.32120001      -2.15698848E-10
   1.33319998      -1.34315212E-10
   1.34519994       3.05329963E-11
   1.35720003       3.14089560E-10
   1.36919999       7.62128360E-10
   1.38119996       1.43416090E-09
   1.39320004       2.40810150E-09
   1.40520000       3.78708576E-09
   1.41719997       5.70937342E-09
   1.42920005       8.36254266E-09
   1.44120002       1.20035555E-08
   1.45319998       1.69865935E-08
   1.46519995       2.38010145E-08
   1.47720003       3.31222374E-08
   1.48920000       4.58785934E-08
   1.50119996       6.33373176E-08
   1.51320004       8.72132588E-08
   1.52520001       1.19803218E-07
   1.53719997       1.64147949E-07
   1.54920006       2.24223797E-07
   1.56120002       3.05162388E-07
   1.57319999       4.13497190E-07
   1.58519995       5.57430326E-07
   1.59720004       7.47111471E-07
   1.60920000       9.94918082E-07
   1.62119997       1.31571892E-06
   1.63320005       1.72710213E-06
   1.64520001       2.24954692E-06
   1.65719998       2.90651360E-06
   1.66919994       3.72441764E-06
   1.68120003       4.73247383E-06
   1.69319999       5.96237396E-06
   1.70519996       7.44777935E-06
   1.71720004       9.22361505E-06
   1.72920001       1.13251508E-05
   1.74119997       1.37868828E-05
   1.75320005       1.66412101E-05
   1.76520002       1.99169590E-05
   1.77719998       2.36377782E-05
   1.78919995       2.78204898E-05
   1.80120003       3.24734065E-05
   1.81320000       3.75947893E-05
   1.82519996       4.31714325E-05
   1.83720005       4.91775536E-05
   1.84920001       5.55740080E-05
   1.86119998       6.23079686E-05
   1.87320006       6.93130642E-05
   1.88520002       7.65101213E-05
   1.89719999       8.38083943E-05
   1.90919995       9.11074967E-05
   1.92120004       9.82996789E-05
   1.93320000       1.05272775E-04
   1.94519997       1.11913381E-04
   1.95720005       1.18110322E-04
   1.96920002       1.23758320E-04
   1.98119998       1.28761472E-04
   1.99319994       1.33036665E-04
   2.00519991       1.36516523E-04
   2.01719999       1.39151874E-04
   2.02920008       1.40913602E-04
   2.04119992       1.41793673E-04
   2.05320001       1.41805402E-04
   2.06520009       1.40982898E-04
   2.07719994       1.39379656E-04
   2.08920002       1.37066396E-04
   2.10120010       1.34128379E-04
   2.11319995       1.30661996E-04
   2.12520003       1.26771163E-04
   2.13720012       1.22563622E-04
   2.14919996       1.18147138E-04
   2.16120005       1.13625916E-04
   2.17319989       1.09097513E-04
   2.18519998       1.04650171E-04
   2.19720006       1.00360761E-04
   2.20919991       9.62934500E-05
   2.22119999       9.24990600E-05
   2.23320007       8.90150841E-05
   2.24519992       8.58663116E-05
   2.25720000       8.30659556E-05
   2.26920009       8.06172247E-05
   2.28119993       7.85150260E-05
   2.29320002       7.67479287E-05
   2.30520010       7.52999476E-05
   2.31719995       7.41523399E-05
   2.32920003       7.32849876E-05
   2.34120011       7.26776343E-05
   2.35319996       7.23107005E-05
   2.36520004       7.21657634E-05
   2.37719989       7.22257755E-05
   2.38919997       7.24749843E-05
   2.40120006       7.28986852E-05
   2.41319990       7.34828791E-05
   2.42519999       7.42138363E-05
   2.43720007       7.50777690E-05
   2.44919991       7.60605617E-05
   2.46120000       7.71475752E-05
   2.47320008       7.83236464E-05
   2.48519993       7.95731830E-05
   2.49720001       8.08803961E-05
   2.50920010       8.22295406E-05
   2.52119994       8.36052641E-05
   2.53320003       8.49928765E-05
   2.54520011       8.63786336E-05
   2.55719995       8.77498824E-05
   2.56920004       8.90951997E-05
   2.58119988       9.04043991E-05
   2.59319997       9.16685240E-05
   2.60520005       9.28798181E-05
   2.61719990       9.40316531E-05
   2.62919998       9.51186375E-05
   2.64120007       9.61366895E-05
   2.65319991       9.70833207E-05
   2.66520000       9.79579709E-05
   2.67720008       9.87625681E-05
   2.68919992       9.95020382E-05
   2.70120001       1.00185040E-04
   2.71320009       1.00824524E-04
   2.72519994       1.01438316E-04
   2.73720002       1.02049511E-04
   2.74920011       1.02686674E-04
   2.76119995       1.03383747E-04
   2.77320004       1.04179620E-04
   2.78520012       1.05117404E-04
   2.79719996       1.06243315E-04
   2.80920005       1.07605258E-04
   2.82119989       1.09251123E-04
   2.83319998       1.11226887E-04
   2.84520006       1.13574526E-04
   2.85719991       1.16330048E-04
   2.86919999       1.19521443E-04
   2.88120008       1.23166887E-04
   2.89319992       1.27273233E-04
   2.90520000       1.31834910E-04
   2.91720009       1.36833100E-04
   2.92919993       1.42235658E-04
   2.94120002       1.47997314E-04
   2.95320010       1.54060690E-04
   2.96519995       1.60357609E-04
   2.97720003       1.66811136E-04
   2.98920012       1.73337932E-04
   3.00119996       1.79851166E-04
   3.01320004       1.86263569E-04
   3.02519989       1.92490872E-04
   3.03719997       1.98455236E-04
   3.04920006       2.04088661E-04
   3.06119990       2.09336213E-04
   3.07319999       2.14158936E-04
   3.08520007       2.18536341E-04
   3.09719992       2.22468298E-04
   3.10920000       2.25976139E-04
   3.12120008       2.29103127E-04
   3.13319993       2.31914004E-04
   3.14520001       2.34493622E-04
   3.15720010       2.36944688E-04
   3.16919994       2.39384812E-04
   3.18120003       2.41942631E-04
   3.19320011       2.44753319E-04
   3.20519996       2.47953722E-04
   3.21720004       2.51677004E-04
   3.22919989       2.56047264E-04
   3.24119997       2.61174020E-04
   3.25320005       2.67147290E-04
   3.26519990       2.74032704E-04
   3.27719998       2.81867484E-04
   3.28920007       2.90657219E-04
   3.30119991       3.00373416E-04
   3.31320000       3.10952251E-04
   3.32520008       3.22294363E-04
   3.33719993       3.34265875E-04
   3.34920001       3.46700399E-04
   3.36120009       3.59402417E-04
   3.37319994       3.72151553E-04
   3.38520002       3.84707761E-04
   3.39720011       3.96817370E-04
   3.40919995       4.08219901E-04
   3.42120004       4.18654847E-04
   3.43319988       4.27869061E-04
   3.44519997       4.35623981E-04
   3.45720005       4.41702374E-04
   3.46919990       4.45914717E-04
   3.48119998       4.48104780E-04
   3.49320006       4.48154227E-04
   3.50519991       4.45985905E-04
   3.51719999       4.41566284E-04
   3.52920008       4.34906222E-04
   3.54119992       4.26060316E-04
   3.55320001       4.15125251E-04
   3.56520009       4.02236736E-04
   3.57719994       3.87565437E-04
   3.58920002       3.71311849E-04
   3.60120010       3.53700831E-04
   3.61319995       3.34975339E-04
   3.62520003       3.15390120E-04
   3.63720012       2.95205537E-04
   3.64919996       2.74681457E-04
   3.66120005       2.54071696E-04
   3.67319989       2.33619023E-04
   3.68519998       2.13550928E-04
   3.69720006       1.94075939E-04
   3.70919991       1.75381036E-04
   3.72119999       1.57629460E-04
   3.73320007       1.40959586E-04
   3.74519992       1.25484148E-04
   3.75720000       1.11290159E-04
   3.76920009       9.84392682E-05
   3.78119993       8.69684663E-05
   3.79320002       7.68911777E-05
   3.80520010       6.81985475E-05
   3.81719995       6.08609917E-05
   3.82920003       5.48299540E-05
   3.84120011       5.00398128E-05
   3.85319996       4.64100922E-05
   3.86520004       4.38477218E-05
   3.87719989       4.22495905E-05
   3.88919997       4.15052273E-05
   3.90120006       4.14995848E-05
   3.91319990       4.21159202E-05
   3.92519999       4.32386587E-05
   3.93720007       4.47561470E-05
   3.94919991       4.65632293E-05
   3.96120000       4.85634519E-05
   3.97320008       5.06709112E-05
   3.98519993       5.28115452E-05
   3.99720001       5.49239157E-05
   4.00920010       5.69593794E-05
   4.02120018       5.88816620E-05
   4.03319979       6.06659414E-05
   4.04519987       6.22974767E-05
   4.05719995       6.37698759E-05
   4.06920004       6.50831644E-05
   4.08120012       6.62418097E-05
   4.09320021       6.72527676E-05
   4.10519981       6.81237871E-05
   4.11719990       6.88619984E-05
   4.12919998       6.94729461E-05
   4.14120007       6.99599550E-05
   4.15320015       7.03241312E-05
   4.16520023       7.05646235E-05
   4.17719984       7.06793435E-05
   4.18919992       7.06659484E-05
   4.20120001       7.05229468E-05
   4.21320009       7.02508769E-05
   4.22520018       6.98533695E-05
   4.23719978       6.93380352E-05
   4.24919987       6.87170832E-05
   4.26119995       6.80075391E-05
   4.27320004       6.72312090E-05
   4.28520012       6.64141626E-05
   4.29720020       6.55859403E-05
   4.30919981       6.47784909E-05
   4.32119989       6.40248982E-05
   4.33319998       6.33579693E-05
   4.34520006       6.28088383E-05
   4.35720015       6.24056920E-05
   4.36920023       6.21725558E-05
   4.38119984       6.21283616E-05
   4.39319992       6.22863736E-05
   4.40520000       6.26537294E-05
   4.41720009       6.32314695E-05
   4.42920017       6.40146754E-05
   4.44119978       6.49929279E-05
   4.45319986       6.61508893E-05
   4.46519995       6.74689800E-05
   4.47720003       6.89241715E-05
   4.48920012       7.04907434E-05
   4.50120020       7.21409742E-05
   4.51319981       7.38458839E-05
   4.52519989       7.55758447E-05
   4.53719997       7.73011125E-05
   4.54920006       7.89923724E-05
   4.56120014       8.06211901E-05
   4.57320023       8.21604626E-05
   4.58519983       8.35848623E-05
   4.59719992       8.48713535E-05
   4.60920000       8.59996144E-05
   4.62120008       8.69526484E-05
   4.63320017       8.77172570E-05
   4.64519978       8.82846361E-05
   4.65719986       8.86508133E-05
   4.66919994       8.88170689E-05
   4.68120003       8.87902206E-05
   4.69320011       8.85826448E-05
   4.70520020       8.82121967E-05
   4.71719980       8.77017665E-05
   4.72919989       8.70787117E-05
   4.74119997       8.63739333E-05
   4.75320005       8.56208135E-05
   4.76520014       8.48540003E-05
   4.77720022       8.41079891E-05
   4.78919983       8.34157618E-05
   4.80119991       8.28074481E-05
   4.81320000       8.23090741E-05
   4.82520008       8.19415509E-05
   4.83720016       8.17199034E-05
   4.84919977       8.16528263E-05
   4.86119986       8.17425826E-05
   4.87319994       8.19852285E-05
   4.88520002       8.23712035E-05
   4.89720011       8.28861739E-05
   4.90920019       8.35121027E-05
   4.92119980       8.42284062E-05
   4.93319988       8.50132128E-05
   4.94519997       8.58445346E-05
   4.95720005       8.67013005E-05
   4.96920013       8.75642145E-05
   4.98120022       8.84163019E-05
   4.99319983       8.92432145E-05
   5.00519991       9.00332307E-05
   5.01719999       9.07769499E-05
   5.02920008       9.14668417E-05
   5.04120016       9.20965540E-05
   5.05319977       9.26602152E-05
   5.06519985       9.31517861E-05
   5.07719994       9.35644639E-05
   5.08920002       9.38902958E-05
   5.10120010       9.41200924E-05
   5.11320019       9.42435872E-05
   5.12519979       9.42498955E-05
   5.13719988       9.41282560E-05
   5.14919996       9.38689773E-05
   5.16120005       9.34645068E-05
   5.17320013       9.29106245E-05
   5.18520021       9.22075269E-05
   5.19719982       9.13608019E-05
   5.20919991       9.03821492E-05
   5.22119999       8.92898170E-05
   5.23320007       8.81086526E-05
   5.24520016       8.68697607E-05
   5.25719976       8.56097540E-05
   5.26919985       8.43696253E-05
   5.28119993       8.31933212E-05
   5.29320002       8.21260401E-05
   5.30520010       8.12124053E-05
   5.31720018       8.04945594E-05
   5.32919979       8.00103444E-05
   5.34119987       7.97915636E-05
   5.35319996       7.98625697E-05
   5.36520004       8.02391005E-05
   5.37720013       8.09274279E-05
   5.38920021       8.19239940E-05
   5.40119982       8.32153528E-05
   5.41319990       8.47785195E-05
   5.42519999       8.65817856E-05
   5.43720007       8.85856716E-05
   5.44920015       9.07443246E-05
   5.46120024       9.30069873E-05
   5.47319984       9.53196795E-05
   5.48519993       9.76268711E-05
   5.49720001       9.98731848E-05
   5.50920010       1.02004989E-04
   5.52120018       1.03971841E-04
   5.53319979       1.05727799E-04
   5.54519987       1.07232489E-04
   5.55719995       1.08451932E-04
   5.56920004       1.09359215E-04
   5.58120012       1.09934808E-04
   5.59320021       1.10166809E-04
   5.60519981       1.10050860E-04
   5.61719990       1.09589935E-04
   5.62919998       1.08793996E-04
   5.64120007       1.07679458E-04
   5.65320015       1.06268606E-04
   5.66520023       1.04588835E-04
   5.67719984       1.02671882E-04
   5.68919992       1.00553007E-04
   5.70120001       9.82700658E-05
   5.71320009       9.58625897E-05
   5.72520018       9.33708434E-05
   5.73719978       9.08348738E-05
   5.74919987       8.82935710E-05
   5.76119995       8.57837440E-05
   5.77320004       8.33392769E-05
   5.78520012       8.09904304E-05
   5.79720020       7.87631725E-05
   5.80919981       7.66787780E-05
   5.82119989       7.47535596E-05
   5.83319998       7.29988460E-05
   5.84520006       7.14211856E-05
   5.85720015       7.00227829E-05
   5.86920023       6.88021682E-05
   5.88119984       6.77550561E-05
   5.89319992       6.68753200E-05
   5.90520000       6.61561062E-05
   5.91720009       6.55909462E-05
   5.92920017       6.51747905E-05
   5.94119978       6.49049034E-05
   5.95319986       6.47815541E-05
   5.96519995       6.48084242E-05
   5.97720003       6.49926442E-05
   5.98920012       6.53444877E-05
   6.00120020       6.58767094E-05
   6.01319981       6.66035121E-05
   6.02519989       6.75392221E-05
   6.03719997       6.86967396E-05
   6.04920006       7.00858945E-05
   6.06120014       7.17117800E-05
   6.07320023       7.35732028E-05
   6.08519983       7.56613517E-05
   6.09719992       7.79588663E-05
   6.10920000       8.04392548E-05
   6.12120008       8.30668941E-05
   6.13320017       8.57975247E-05
   6.14519978       8.85792542E-05
   6.15719986       9.13541153E-05
   6.16919994       9.40600075E-05
   6.18120003       9.66329535E-05
   6.19320011       9.90096305E-05
   6.20520020       1.01129859E-04
   6.21719980       1.02939135E-04
   6.22919989       1.04390871E-04
   6.24119997       1.05448373E-04
   6.25320005       1.06086321E-04
   6.26520014       1.06291795E-04
   6.27720022       1.06064734E-04
   6.28919983       1.05417836E-04
   6.30119991       1.04375940E-04
   6.31320000       1.02974984E-04
   6.32520008       1.01260470E-04
   6.33720016       9.92857167E-05
   6.34919977       9.71099362E-05
   6.36119986       9.47961380E-05
   6.37319994       9.24091801E-05
   6.38520002       9.00137893E-05
   6.39720011       8.76728736E-05
   6.40920019       8.54459795E-05
   6.42119980       8.33880913E-05
   6.43319988       8.15485328E-05
   6.44519997       7.99702975E-05
   6.45720005       7.86894670E-05
   6.46920013       7.77349196E-05
   6.48120022       7.71281120E-05
   6.49319983       7.68829996E-05
   6.50519991       7.70060724E-05
   6.51719999       7.74963846E-05
   6.52920008       7.83456999E-05
   6.54120016       7.95385276E-05
   6.55319977       8.10523779E-05
   6.56519985       8.28579723E-05
   6.57719994       8.49195349E-05
   6.58920002       8.71953016E-05
   6.60120010       8.96380807E-05
   6.61320019       9.21960600E-05
   6.62519979       9.48137676E-05
   6.63719988       9.74331997E-05
   6.64919996       9.99951953E-05
   6.66120005       1.02440841E-04
   6.67320013       1.04713050E-04
   6.68520021       1.06758103E-04
   6.69719982       1.08527260E-04
   6.70919991       1.09978122E-04
   6.72119999       1.11075991E-04
   6.73320007       1.11794870E-04
   6.74520016       1.12118301E-04
   6.75719976       1.12039823E-04
   6.76919985       1.11563146E-04
   6.78119993       1.10701934E-04
   6.79320002       1.09479392E-04
   6.80520010       1.07927495E-04
   6.81720018       1.06086001E-04
   6.82919979       1.04001345E-04
   6.84119987       1.01725360E-04
   6.85319996       9.93139620E-05
   6.86520004       9.68258391E-05
   6.87720013       9.43210835E-05
   6.88920021       9.18599326E-05
   6.90119982       8.95015255E-05
   6.91319990       8.73026875E-05
   6.92519999       8.53168094E-05
   6.93720007       8.35927785E-05
   6.94920015       8.21738722E-05
   6.96120024       8.10968850E-05
   6.97319984       8.03911244E-05
   6.98519993       8.00776252E-05
   6.99720001       8.01684655E-05
   7.00920010       8.06662429E-05
   7.02120018       8.15637177E-05
   7.03319979       8.28437915E-05
   7.04519987       8.44797032E-05
   7.05719995       8.64355534E-05
   7.06920004       8.86672278E-05
   7.08120012       9.11235475E-05
   7.09320021       9.37477598E-05
   7.10519981       9.64792125E-05
   7.11719990       9.92552013E-05
   7.12919998       1.02012862E-04
   7.14120007       1.04691026E-04
   7.15320015       1.07231928E-04
   7.16520023       1.09582710E-04
   7.17719984       1.11696572E-04
   7.18919992       1.13533621E-04
   7.20120001       1.15061353E-04
   7.21320009       1.16254712E-04
   7.22520018       1.17095835E-04
   7.23719978       1.17573582E-04
   7.24919987       1.17682765E-04
   7.26119995       1.17423333E-04
   7.27320004       1.16799602E-04
   7.28520012       1.15819486E-04
   7.29720020       1.14494011E-04
   7.30919981       1.12837035E-04
   7.32119989       1.10865236E-04
   7.33319998       1.08598426E-04
   7.34520006       1.06060041E-04
   7.35720015       1.03277875E-04
   7.36920023       1.00284837E-04
   7.38119984       9.71197078E-05
   7.39319992       9.38277590E-05
   7.40520000       9.04610206E-05
   7.41720009       8.70783406E-05
   7.42920017       8.37448461E-05
   7.44119978       8.05309683E-05
   7.45319986       7.75109729E-05
   7.46519995       7.47609447E-05
   7.47720003       7.23564517E-05
   7.48920012       7.03698097E-05
   7.50120020       6.88672080E-05
   7.51319981       6.79058430E-05
   7.52519989       6.75311749E-05
   7.53719997       6.77744756E-05
   7.54920006       6.86508938E-05
   7.56120014       7.01581012E-05
   7.57320023       7.22755431E-05
   7.58519983       7.49645333E-05
   7.59719992       7.81690178E-05
   7.60920000       8.18170811E-05
   7.62120008       8.58231142E-05
   7.63320017       9.00904852E-05
   7.64519978       9.45147185E-05
   7.65719986       9.89868277E-05
   7.66919994       1.03396836E-04
   7.68120003       1.07637257E-04
   7.69320011       1.11606285E-04
   7.70520020       1.15210751E-04
   7.71719980       1.18368531E-04
   7.72919989       1.21010555E-04
   7.74119997       1.23082151E-04
   7.75320005       1.24543818E-04
   7.76520014       1.25371545E-04
   7.77720022       1.25556558E-04
   7.78919983       1.25104605E-04
   7.80119991       1.24034981E-04
   7.81320000       1.22379250E-04
   7.82520008       1.20179757E-04
   7.83720016       1.17488176E-04
   7.84919977       1.14363902E-04
   7.86119986       1.10872563E-04
   7.87319994       1.07084641E-04
   7.88520002       1.03074119E-04
   7.89720011       9.89172913E-05
   7.90920019       9.46916261E-05
   7.92119980       9.04747430E-05
   7.93319988       8.63433379E-05
   7.94519997       8.23722439E-05
   7.95720005       7.86333694E-05
   7.96920013       7.51946136E-05
   7.98120022       7.21188044E-05
   7.99319983       6.94625414E-05
   8.00520039       6.72750830E-05
   8.01720047       6.55972326E-05
   8.02919960       6.44602987E-05
   8.04119968       6.38852362E-05
   8.05319977       6.38818747E-05
   8.06519985       6.44484971E-05
   8.07719994       6.55715994E-05
   8.08920002       6.72260285E-05
   8.10120010       6.93753973E-05
   8.11320019       7.19728559E-05
   8.12520027       7.49621977E-05
   8.13720036       7.82792340E-05
   8.14920044       8.18534099E-05
   8.16119957       8.56095576E-05
   8.17319965       8.94698751E-05
   8.18519974       9.33558113E-05
   8.19719982       9.71900154E-05
   8.20919991       1.00898156E-04
   8.22119999       1.04410610E-04
   8.23320007       1.07663953E-04
   8.24520016       1.10602217E-04
   8.25720024       1.13177950E-04
   8.26920033       1.15352959E-04
   8.28120041       1.17098876E-04
   8.29319954       1.18397395E-04
   8.30519962       1.19240372E-04
   8.31719971       1.19629665E-04
   8.32919979       1.19576755E-04
   8.34119987       1.19102253E-04
   8.35319996       1.18235221E-04
   8.36520004       1.17012372E-04
   8.37720013       1.15477138E-04
   8.38920021       1.13678660E-04
   8.40120029       1.11670670E-04
   8.41320038       1.09510278E-04
   8.42520046       1.07256747E-04
   8.43719959       1.04970095E-04
   8.44919968       1.02709761E-04
   8.46119976       1.00533172E-04
   8.47319984       9.84942744E-05
   8.48519993       9.66421649E-05
   8.49720001       9.50197136E-05
   8.50920010       9.36623692E-05
   8.52120018       9.25970162E-05
   8.53320026       9.18412406E-05
   8.54520035       9.14026386E-05
   8.55720043       9.12786636E-05
   8.56919956       9.14566699E-05
   8.58119965       9.19144077E-05
   8.59319973       9.26208595E-05
   8.60519981       9.35374264E-05
   8.61719990       9.46194777E-05
   8.62919998       9.58180535E-05
   8.64120007       9.70819019E-05
   8.65320015       9.83594655E-05
   8.66520023       9.96009694E-05
   8.67720032       1.00760342E-04
   8.68920040       1.01796984E-04
   8.70119953       1.02677230E-04
   8.71319962       1.03375445E-04
   8.72519970       1.03874721E-04
   8.73719978       1.04167106E-04
   8.74919987       1.04253413E-04
   8.76119995       1.04142578E-04
   8.77320004       1.03850667E-04
   8.78520012       1.03399558E-04
   8.79720020       1.02815458E-04
   8.80920029       1.02127218E-04
   8.82120037       1.01364749E-04
   8.83320045       1.00557416E-04
   8.84519958       9.97326424E-05
   8.85719967       9.89147957E-05
   8.86919975       9.81243211E-05
   8.88119984       9.73772330E-05
   8.89319992       9.66849548E-05
   8.90520000       9.60544348E-05
   8.91720009       9.54886273E-05
   8.92920017       9.49871755E-05
   8.94120026       9.45472348E-05
   8.95320034       9.41644103E-05
   8.96520042       9.38337325E-05
   8.97719955       9.35504941E-05
   8.98919964       9.33109914E-05
   9.00119972       9.31130853E-05
   9.01319981       9.29564558E-05
   9.02519989       9.28427035E-05
   9.03719997       9.27750953E-05
   9.04920006       9.27581932E-05
   9.06120014       9.27972069E-05
   9.07320023       9.28972659E-05
   9.08520031       9.30625902E-05
   9.09720039       9.32957191E-05
   9.10919952       9.35967691E-05
   9.12119961       9.39628371E-05
   9.13319969       9.43876366E-05
   9.14519978       9.48612796E-05
   9.15719986       9.53703566E-05
   9.16919994       9.58982419E-05
   9.18120003       9.64255960E-05
   9.19320011       9.69310713E-05
   9.20520020       9.73921415E-05
   9.21720028       9.77860254E-05
   9.22920036       9.80906043E-05
   9.24120045       9.82853235E-05
   9.25319958       9.83520076E-05
   9.26519966       9.82755591E-05
   9.27719975       9.80444238E-05
   9.28919983       9.76510128E-05
   9.30119991       9.70918336E-05
   9.31320000       9.63674829E-05
   9.32520008       9.54825518E-05
   9.33720016       9.44453714E-05
   9.34920025       9.32677285E-05
   9.36120033       9.19644881E-05
   9.37320042       9.05532797E-05
   9.38519955       8.90541269E-05
   9.39719963       8.74891921E-05
   9.40919971       8.58824496E-05
   9.42119980       8.42594745E-05
   9.43319988       8.26471805E-05
   9.44519997       8.10735874E-05
