 -0.622799993       0.00000000    
 -0.610800028       0.00000000    
 -0.598800004       0.00000000    
 -0.586799979       0.00000000    
 -0.574800014       0.00000000    
 -0.562799990       0.00000000    
 -0.550800025       0.00000000    
 -0.538800001       0.00000000    
 -0.526799977       0.00000000    
 -0.514800012       0.00000000    
 -0.502799988       0.00000000    
 -0.490799993      -3.39957782E-38
 -0.478799999      -7.81932525E-37
 -0.466800004      -1.09296688E-35
 -0.454800010      -9.07412820E-35
 -0.442799985      -5.47054959E-34
 -0.430799991      -2.57791036E-33
 -0.418799996      -9.86868944E-33
 -0.406800002      -3.13224752E-32
 -0.394800007      -8.29641108E-32
 -0.382800013      -1.81677565E-31
 -0.370799989      -3.16752728E-31
 -0.358799994      -3.89840124E-31
 -0.346799999      -1.60017718E-31
 -0.334800005       6.43769496E-31
 -0.322800010       1.68531001E-30
 -0.310799986       4.16975964E-31
 -0.298799992      -1.03985690E-29
 -0.286799997      -4.39439195E-29
 -0.274800003      -1.13070841E-28
 -0.262800008      -2.04448225E-28
 -0.250800014      -2.18105090E-28
 -0.238800004       1.33041652E-28
 -0.226799995       1.43224756E-27
 -0.214800000       4.56932272E-27
 -0.202800006       1.04387113E-26
 -0.190799996       1.90287055E-26
 -0.178800002       2.76652533E-26
 -0.166800007       2.85510763E-26
 -0.154799998       6.58870957E-27
 -0.142800003      -6.02332957E-26
 -0.130799994      -1.94311602E-25
 -0.118799999      -4.01886174E-25
 -0.106799997      -6.44885852E-25
  -9.48000029E-02  -8.05969030E-25
  -8.28000009E-02  -6.62573593E-25
  -7.07999989E-02   1.00839134E-25
  -5.88000007E-02   1.80381940E-24
  -4.67999987E-02   4.57112275E-24
  -3.48000005E-02   8.02365178E-24
  -2.28000004E-02   1.09269628E-23
  -1.08000003E-02   1.09633625E-23
   1.20000006E-03   4.89257016E-24
   1.31999999E-02  -1.05920172E-23
   2.52000000E-02  -3.70977870E-23
   3.72000001E-02  -7.19461277E-23
   4.91999984E-02  -1.05384036E-22
   6.12000003E-02  -1.18889164E-22
   7.32000023E-02  -8.64464388E-23
   8.51999968E-02   1.92199002E-23
   9.71999988E-02   2.14296299E-22
  0.109200001       4.86331309E-22
  0.121200003       7.75711793E-22
  0.133200005       9.64237836E-22
  0.145199999       8.81816437E-22
  0.157199994       3.42260923E-22
  0.169200003      -7.85990966E-22
  0.181199998      -2.48002743E-21
  0.193200007      -4.45648402E-21
  0.205200002      -6.10137427E-21
  0.217199996      -6.49105025E-21
  0.229200006      -4.55786251E-21
  0.241200000       5.71739474E-22
  0.253199995       9.09316012E-21
  0.265199989       1.99972868E-20
  0.277200013       3.06872213E-20
  0.289200008       3.69788831E-20
  0.301200002       3.37169998E-20
  0.313199997       1.61312821E-20
  0.325199991      -1.81587874E-20
  0.337199986      -6.68820762E-20
  0.349200010      -1.21299251E-19
  0.361200005      -1.65741507E-19
  0.373199999      -1.79386524E-19
  0.385199994      -1.40782870E-19
  0.397199988      -3.48954219E-20
  0.409200013       1.38566504E-19
  0.421200007       3.57808916E-19
  0.433200002       5.75567056E-19
  0.445199996       7.22597117E-19
  0.457199991       7.19896735E-19
  0.469199985       4.99353168E-19
  0.481200010       2.96099995E-20
  0.493200004      -6.59021567E-19
  0.505200028      -1.45880642E-18
  0.517199993      -2.18627558E-18
  0.529200017      -2.60710537E-18
  0.541199982      -2.48472669E-18
  0.553200006      -1.64619954E-18
  0.565199971      -5.17649046E-20
  0.577199996       2.15052132E-18
  0.589200020       4.60450915E-18
  0.601199985       6.77483049E-18
  0.613200009       8.02985331E-18
  0.625199974       7.77036014E-18
  0.637199998       5.58215392E-18
  0.649200022       1.38099778E-18
  0.661199987      -4.48476773E-18
  0.673200011      -1.12035815E-17
  0.685199976      -1.75595389E-17
  0.697200000      -2.20824004E-17
  0.709200025      -2.32746423E-17
  0.721199989      -1.98896108E-17
  0.733200014      -1.12280884E-17
  0.745199978       2.58270292E-18
  0.757200003       2.03670379E-17
  0.769200027       3.97818950E-17
  0.781199992       5.73584838E-17
  0.793200016       6.87699631E-17
  0.805199981       6.93866428E-17
  0.817200005       5.51477642E-17
  0.829200029       2.37075340E-17
  0.841199994      -2.42957289E-17
  0.853200018      -8.41274314E-17
  0.865199983      -1.46390269E-16
  0.877200007      -1.97428597E-16
  0.889199972      -2.21040977E-16
  0.901199996      -2.01595363E-16
  0.913200021      -1.28258496E-16
  0.925199986       4.06229329E-19
  0.937200010       1.72625023E-16
  0.949199975       3.61745378E-16
  0.961199999       5.27941925E-16
  0.973200023       6.23980955E-16
  0.985199988       6.04797618E-16
  0.997200012       4.39494268E-16
   1.00919998       1.23277255E-16
   1.02119994      -3.13840609E-16
   1.03320003      -8.04731592E-16
   1.04519999      -1.25150791E-15
   1.05719995      -1.54107692E-15
   1.06920004      -1.56815900E-15
   1.08120000      -1.26171984E-15
   1.09319997      -6.09047870E-16
   1.10520005       3.28850245E-16
   1.11720002       1.41589953E-15
   1.12919998       2.45651625E-15
   1.14119995       3.22732894E-15
   1.15320003       3.52033013E-15
   1.16520000       3.18934184E-15
   1.17719996       2.18980336E-15
   1.18920004       6.02187857E-16
   1.20120001      -1.36803285E-15
   1.21319997      -3.41639453E-15
   1.22520006      -5.18836268E-15
   1.23720002      -6.34272247E-15
   1.24919999      -6.61710143E-15
   1.26119995      -5.88191029E-15
   1.27320004      -4.17061956E-15
   1.28520000      -1.67882915E-15
   1.29719996       1.26884551E-15
   1.30920005       4.27777600E-15
   1.32120001       6.95557961E-15
   1.33319998       8.98119114E-15
   1.34519994       1.01541666E-14
   1.35720003       1.04115808E-14
   1.36919999       9.80756495E-15
   1.38119996       8.46034973E-15
   1.39320004       6.48169940E-15
   1.40520000       3.91104885E-15
   1.41719997       6.79175052E-16
   1.42920005      -3.37782446E-15
   1.44120002      -8.44446024E-15
   1.45319998      -1.45982181E-14
   1.46519995      -2.16533707E-14
   1.47720003      -2.90171804E-14
   1.48920000      -3.56080454E-14
   1.50119996      -3.98821940E-14
   1.51320004      -3.99993386E-14
   1.52520001      -3.41296273E-14
   1.53719997      -2.08690317E-14
   1.54920006       3.04378669E-16
   1.56120002       2.86261256E-14
   1.57319999       6.17939876E-14
   1.58519995       9.59570422E-14
   1.59720004       1.25997235E-13
   1.60920000       1.46104523E-13
   1.62119997       1.50589271E-13
   1.63320005       1.34824755E-13
   1.64520001       9.61786125E-14
   1.65719998       3.47828896E-14
   1.66919994      -4.59905348E-14
   1.68120003      -1.39443836E-13
   1.69319999      -2.35899245E-13
   1.70519996      -3.23466162E-13
   1.71720004      -3.89171957E-13
   1.72920001      -4.20362936E-13
   1.74119997      -4.06258686E-13
   1.75320005      -3.39527560E-13
   1.76520002      -2.17735579E-13
   1.77719998      -4.45090403E-14
   1.78919995       1.69762492E-13
   1.80120003       4.07855444E-13
   1.81320000       6.46426001E-13
   1.82519996       8.57602943E-13
   1.83720005       1.01145915E-12
   1.84920001       1.07922753E-12
   1.86119998       1.03698332E-12
   1.87320006       8.69374722E-13
   1.88520002       5.72898174E-13
   1.89719999       1.58198026E-13
   1.90919995      -3.49052872E-13
   1.92120004      -9.08971683E-13
   1.93320000      -1.47003980E-12
   1.94519997      -1.97324492E-12
   1.95720005      -2.35738881E-12
   1.96920002      -2.56501027E-12
   1.98119998      -2.54832982E-12
   1.99319994      -2.27466115E-12
   2.00519991      -1.73085624E-12
   2.01719999      -9.26494124E-13
   2.02920008       1.04346849E-13
   2.04119992       1.30281300E-12
   2.05320001       2.58656876E-12
   2.06520009       3.85276663E-12
   2.07719994       4.98285571E-12
   2.08920002       5.84940646E-12
   2.10120010       6.32506113E-12
   2.11319995       6.29352039E-12
   2.12520003       5.66217516E-12
   2.13720012       4.37559624E-12
   2.14919996       2.42868095E-12
   2.16120005      -1.22120874E-13
   2.17319989      -3.15125248E-12
   2.18519998      -6.46195771E-12
   2.19720006      -9.79115400E-12
   2.20919991      -1.28222650E-11
   2.22119999      -1.52062616E-11
   2.23320007      -1.65902500E-11
   2.24519992      -1.66519507E-11
   2.25720000      -1.51374798E-11
   2.26920009      -1.18990599E-11
   2.28119993      -6.92869590E-12
   2.29320002      -3.83720209E-13
   2.30520010       7.39969717E-12
   2.31719995       1.59083285E-11
   2.32920003       2.44710953E-11
   2.34120011       3.22964017E-11
   2.35319996       3.85266506E-11
   2.36520004       4.23071751E-11
   2.37719989       4.28652391E-11
   2.38919997       3.95933009E-11
   2.40120006       3.21297294E-11
   2.41319990       2.04298540E-11
   2.42519999       4.81995693E-12
   2.43720007      -1.39722244E-11
   2.44919991      -3.48161985E-11
   2.46120000      -5.62107201E-11
   2.47320008      -7.63514946E-11
   2.48519993      -9.32348643E-11
   2.49720001      -1.04795367E-10
   2.50920010      -1.09072230E-10
   2.52119994      -1.04396949E-10
   2.53320003      -8.95905156E-11
   2.54520011      -6.41559098E-11
   2.55719995      -2.84481830E-11
   2.56920004       1.61977376E-11
   2.58119988       6.74020353E-11
   2.59319997       1.21757271E-10
   2.60520005       1.74943893E-10
   2.61719990       2.21953622E-10
   2.62919998       2.57421445E-10
   2.64120007       2.76055984E-10
   2.65319991       2.73145340E-10
   2.66520000       2.45103465E-10
   2.67720008       1.90010646E-10
   2.68919992       1.08094048E-10
   2.70120001       2.08985455E-12
   2.71320009      -1.22568691E-10
   2.72519994      -2.57786098E-10
   2.73720002      -3.93096250E-10
   2.74920011      -5.16226006E-10
   2.76119995      -6.13921303E-10
   2.77320004      -6.73001710E-10
   2.78520012      -6.81580237E-10
   2.79719996      -6.30364649E-10
   2.80920005      -5.13932286E-10
   2.82119989      -3.31860012E-10
   2.83319998      -8.95844718E-11
   2.84520006       2.01127184E-10
   2.85719991       5.22199783E-10
   2.86919999       8.49842696E-10
   2.88120008       1.15575083E-09
   2.89319992       1.40890632E-09
   2.90520000       1.57791746E-09
   2.91720009       1.63377412E-09
   2.92919993       1.55284163E-09
   2.94120002       1.31986544E-09
   2.95320010       9.30717503E-10
   2.96519995       3.94598104E-10
   2.97720003      -2.64594541E-10
   2.98920012      -1.00798070E-09
   3.00119996      -1.78270265E-09
   3.01320004      -2.52432764E-09
   3.02519989      -3.16065352E-09
   3.03719997      -3.61679309E-09
   3.04920006      -3.82128285E-09
   3.06119990      -3.71282338E-09
   3.07319999      -3.24715566E-09
   3.08520007      -2.40348697E-09
   3.09719992      -1.18983778E-09
   3.10920000       3.53307467E-10
   3.12120008       2.15160156E-09
   3.13319993       4.09811785E-09
   3.14520001       6.05758066E-09
   3.15720010       7.87358001E-09
   3.16919994       9.37856282E-09
   3.18120003       1.04061515E-08
   3.19320011       1.08050608E-08
   3.20519996       1.04536984E-08
   3.21720004       9.27437238E-09
   3.22919989       7.24591986E-09
   3.24119997       4.41359882E-09
   3.25320005       8.95175545E-10
   3.26519990      -3.11767590E-09
   3.27719998      -7.36326156E-09
   3.28920007      -1.15192886E-08
   3.30119991      -1.52176884E-08
   3.31320000      -1.80642985E-08
   3.32520008      -1.96624956E-08
   3.33719993      -1.96395469E-08
   3.34920001      -1.76742105E-08
   3.36120009      -1.35240512E-08
   3.37319994      -7.05090164E-09
   3.38520002       1.75687997E-09
   3.39720011       1.27664661E-08
   3.40919995       2.56875961E-08
   3.42120004       4.00649078E-08
   3.43319988       5.52752404E-08
   3.44519997       7.05293175E-08
   3.45720005       8.48768309E-08
   3.46919990       9.72135723E-08
   3.48119998       1.06289313E-07
   3.49320006       1.10715241E-07
   3.50519991       1.08969878E-07
   3.51719999       9.94030600E-08
   3.52920008       8.02377187E-08
   3.54119992       4.95700547E-08
   3.55320001       5.36944977E-09
   3.56520009      -5.45206724E-08
   3.57719994      -1.32378347E-07
   3.58920002      -2.30593173E-07
   3.60120010      -3.51648225E-07
   3.61319995      -4.98091651E-07
   3.62520003      -6.72496697E-07
   3.63720012      -8.77408866E-07
   3.64919996      -1.11528004E-06
   3.66120005      -1.38839141E-06
   3.67319989      -1.69876580E-06
   3.68519998      -2.04807429E-06
   3.69720006      -2.43753971E-06
   3.70919991      -2.86784416E-06
   3.72119999      -3.33904359E-06
   3.73320007      -3.85049634E-06
   3.74519992      -4.40081112E-06
   3.75720000      -4.98781992E-06
   3.76920009      -5.60857552E-06
   3.78119993      -6.25938219E-06
   3.79320002      -6.93585662E-06
   3.80520010      -7.63301523E-06
   3.81719995      -8.34539151E-06
   3.82920003      -9.06717560E-06
   3.84120011      -9.79236574E-06
   3.85319996      -1.05149338E-05
   3.86520004      -1.12289918E-05
   3.87719989      -1.19289498E-05
   3.88919997      -1.26096638E-05
   3.90120006      -1.32665637E-05
   3.91319990      -1.38957512E-05
   3.92519999      -1.44940805E-05
   3.93720007      -1.50591950E-05
   3.94919991      -1.55895377E-05
   3.96120000      -1.60843374E-05
   3.97320008      -1.65435540E-05
   3.98519993      -1.69678187E-05
   3.99720001      -1.73583376E-05
   4.00920010      -1.77167967E-05
   4.02120018      -1.80452516E-05
   4.03319979      -1.83460270E-05
   4.04519987      -1.86216057E-05
   4.05719995      -1.88745380E-05
   4.06920004      -1.91073559E-05
   4.08120012      -1.93225042E-05
   4.09320021      -1.95222910E-05
   4.10519981      -1.97088448E-05
   4.11719990      -1.98840989E-05
   4.12919998      -2.00497689E-05
   4.14120007      -2.02073643E-05
   4.15320015      -2.03581967E-05
   4.16520023      -2.05033939E-05
   4.17719984      -2.06439236E-05
   4.18919992      -2.07806224E-05
   4.20120001      -2.09142090E-05
   4.21320009      -2.10453236E-05
   4.22520018      -2.11745482E-05
   4.23719978      -2.13024177E-05
   4.24919987      -2.14294560E-05
   4.26119995      -2.15561740E-05
   4.27320004      -2.16830940E-05
   4.28520012      -2.18107416E-05
   4.29720020      -2.19396588E-05
   4.30919981      -2.20703932E-05
   4.32119989      -2.22034851E-05
   4.33319998      -2.23394600E-05
   4.34520006      -2.24788000E-05
   4.35720015      -2.26219217E-05
   4.36920023      -2.27691398E-05
   4.38119984      -2.29206435E-05
   4.39319992      -2.30764635E-05
   4.40520000      -2.32364382E-05
   4.41720009      -2.34001982E-05
   4.42920017      -2.35671487E-05
   4.44119978      -2.37364602E-05
   4.45319986      -2.39070832E-05
   4.46519995      -2.40777772E-05
   4.47720003      -2.42471342E-05
   4.48920012      -2.44136500E-05
   4.50120020      -2.45757801E-05
   4.51319981      -2.47320258E-05
   4.52519989      -2.48810229E-05
   4.53719997      -2.50216290E-05
   4.54920006      -2.51530182E-05
   4.56120014      -2.52747577E-05
   4.57320023      -2.53868802E-05
   4.58519983      -2.54899278E-05
   4.59719992      -2.55849973E-05
   4.60920000      -2.56737239E-05
   4.62120008      -2.57582651E-05
   4.63320017      -2.58412510E-05
   4.64519978      -2.59256958E-05
   4.65719986      -2.60149118E-05
   4.66919994      -2.61123932E-05
   4.68120003      -2.62216854E-05
   4.69320011      -2.63462625E-05
   4.70520020      -2.64894006E-05
   4.71719980      -2.66540756E-05
   4.72919989      -2.68428576E-05
   4.74119997      -2.70578494E-05
   4.75320005      -2.73006353E-05
   4.76520014      -2.75722577E-05
   4.77720022      -2.78732332E-05
   4.78919983      -2.82035708E-05
   4.80119991      -2.85628212E-05
   4.81320000      -2.89501440E-05
   4.82520008      -2.93643807E-05
   4.83720016      -2.98041232E-05
   4.84919977      -3.02677981E-05
   4.86119986      -3.07537266E-05
   4.87319994      -3.12601842E-05
   4.88520002      -3.17854356E-05
   4.89720011      -3.23277854E-05
   4.90920019      -3.28855749E-05
   4.92119980      -3.34571923E-05
   4.93319988      -3.40410625E-05
   4.94519997      -3.46356537E-05
   4.95720005      -3.52394272E-05
   4.96920013      -3.58508551E-05
   4.98120022      -3.64684020E-05
   4.99319983      -3.70904927E-05
   5.00519991      -3.77155557E-05
   5.01719999      -3.83420011E-05
   5.02920008      -3.89682391E-05
   5.04120016      -3.95927163E-05
   5.05319977      -4.02139231E-05
   5.06519985      -4.08304440E-05
   5.07719994      -4.14409624E-05
   5.08920002      -4.20443030E-05
   5.10120010      -4.26394254E-05
   5.11320019      -4.32254710E-05
   5.12519979      -4.38017414E-05
   5.13719988      -4.43676981E-05
   5.14919996      -4.49229774E-05
   5.16120005      -4.54673354E-05
   5.17320013      -4.60006668E-05
   5.18520021      -4.65229932E-05
   5.19719982      -4.70344239E-05
   5.20919991      -4.75351662E-05
   5.22119999      -4.80255330E-05
   5.23320007      -4.85059500E-05
   5.24520016      -4.89769664E-05
   5.25719976      -4.94392698E-05
   5.26919985      -4.98937407E-05
   5.28119993      -5.03414558E-05
   5.29320002      -5.07837212E-05
   5.30520010      -5.12220831E-05
   5.31720018      -5.16583314E-05
   5.32919979      -5.20944741E-05
   5.34119987      -5.25327014E-05
   5.35319996      -5.29753343E-05
   5.36520004      -5.34247047E-05
   5.37720013      -5.38830791E-05
   5.38920021      -5.43524948E-05
   5.40119982      -5.48346252E-05
   5.41319990      -5.53306236E-05
   5.42519999      -5.58409447E-05
   5.43720007      -5.63652175E-05
   5.44920015      -5.69020849E-05
   5.46120024      -5.74491241E-05
   5.47319984      -5.80027699E-05
   5.48519993      -5.85582857E-05
   5.49720001      -5.91098214E-05
   5.50920010      -5.96504797E-05
   5.52120018      -6.01724787E-05
   5.53319979      -6.06673748E-05
   5.54519987      -6.11263094E-05
   5.55719995      -6.15403187E-05
   5.56920004      -6.19007260E-05
   5.58120012      -6.21994623E-05
   5.59320021      -6.24295135E-05
   5.60519981      -6.25852845E-05
   5.61719990      -6.26629553E-05
   5.62919998      -6.26608744E-05
   5.64120007      -6.25797693E-05
   5.65320015      -6.24230452E-05
   5.66520023      -6.21969011E-05
   5.67719984      -6.19104103E-05
   5.68919992      -6.15754834E-05
   5.70120001      -6.12067743E-05
   5.71320009      -6.08214323E-05
   5.72520018      -6.04388188E-05
   5.73719978      -6.00800886E-05
   5.74919987      -5.97677099E-05
   5.76119995      -5.95248966E-05
   5.77320004      -5.93750010E-05
   5.78520012      -5.93408186E-05
   5.79720020      -5.94438970E-05
   5.80919981      -5.97038379E-05
   5.82119989      -6.01375432E-05
   5.83319998      -6.07585462E-05
   5.84520006      -6.15763565E-05
   5.85720015      -6.25958928E-05
   5.86920023      -6.38169149E-05
   5.88119984      -6.52336457E-05
   5.89319992      -6.68344655E-05
   5.90520000      -6.86016356E-05
   5.91720009      -7.05113125E-05
   5.92920017      -7.25335194E-05
   5.94119978      -7.46323421E-05
   5.95319986      -7.67662423E-05
   5.96519995      -7.88883772E-05
   5.97720003      -8.09472112E-05
   5.98920012      -8.28870179E-05
   6.00120020      -8.46485709E-05
   6.01319981      -8.61698500E-05
   6.02519989      -8.73867830E-05
   6.03719997      -8.82339955E-05
   6.04920006      -8.86456255E-05
   6.06120014      -8.85560366E-05
   6.07320023      -8.79005747E-05
   6.08519983      -8.66162882E-05
   6.09719992      -8.46426410E-05
   6.10920000      -8.19221241E-05
   6.12120008      -7.84009462E-05
   6.13320017      -7.40296455E-05
   6.14519978      -6.87637075E-05
   6.15719986      -6.25641696E-05
   6.16919994      -5.53982500E-05
   6.18120003      -4.72399697E-05
   6.19320011      -3.80708007E-05
   6.20520020      -2.78802927E-05
   6.21719980      -1.66667378E-05
   6.22919989      -4.43780027E-06
   6.24119997       8.78886658E-06
   6.25320005       2.29850521E-05
   6.26520014       3.81114914E-05
   6.27720022       5.41174377E-05
   6.28919983       7.09403757E-05
   6.30119991       8.85058471E-05
   6.31320000       1.06727464E-04
   6.32520008       1.25507097E-04
   6.33720016       1.44735226E-04
   6.34919977       1.64291589E-04
   6.36119986       1.84045944E-04
   6.37319994       2.03859090E-04
   6.38520002       2.23584168E-04
   6.39720011       2.43068032E-04
   6.40920019       2.62152898E-04
   6.42119980       2.80678010E-04
   6.43319988       2.98481726E-04
   6.44519997       3.15403158E-04
   6.45720005       3.31284478E-04
   6.46920013       3.45972890E-04
   6.48120022       3.59322497E-04
   6.49319983       3.71196453E-04
   6.50519991       3.81468853E-04
   6.51719999       3.90026311E-04
   6.52920008       3.96769814E-04
   6.54120016       4.01616096E-04
   6.55319977       4.04499006E-04
   6.56519985       4.05370432E-04
   6.57719994       4.04201477E-04
   6.58920002       4.00982768E-04
   6.60120010       3.95725277E-04
   6.61320019       3.88460263E-04
   6.62519979       3.79239238E-04
   6.63719988       3.68133886E-04
   6.64919996       3.55235126E-04
   6.66120005       3.40652681E-04
   6.67320013       3.24513821E-04
   6.68520021       3.06962058E-04
   6.69719982       2.88155599E-04
   6.70919991       2.68265547E-04
   6.72119999       2.47473916E-04
   6.73320007       2.25971293E-04
   6.74520016       2.03954565E-04
   6.75719976       1.81624302E-04
   6.76919985       1.59182237E-04
   6.78119993       1.36828414E-04
   6.79320002       1.14758608E-04
   6.80520010       9.31616305E-05
   6.81720018       7.22167097E-05
   6.82919979       5.20911199E-05
   6.84119987       3.29379291E-05
   6.85319996       1.48940617E-05
   6.86520004      -1.92142397E-06
   6.87720013      -1.74086435E-05
   6.88920021      -3.14878744E-05
   6.90119982      -4.41001539E-05
   6.91319990      -5.52074634E-05
   6.92519999      -6.47925408E-05
   6.93720007      -7.28582891E-05
   6.94920015      -7.94267980E-05
   6.96120024      -8.45381073E-05
   6.97319984      -8.82486202E-05
   6.98519993      -9.06292262E-05
   6.99720001      -9.17633588E-05
   7.00920010      -9.17448051E-05
   7.02120018      -9.06754794E-05
   7.03319979      -8.86632188E-05
   7.04519987      -8.58195490E-05
   7.05719995      -8.22576403E-05
   7.06920004      -7.80903138E-05
   7.08120012      -7.34283458E-05
   7.09320021      -6.83788894E-05
   7.10519981      -6.30442082E-05
   7.11719990      -5.75206395E-05
   7.12919998      -5.18978304E-05
   7.14120007      -4.62581811E-05
   7.15320015      -4.06765685E-05
   7.16520023      -3.52202151E-05
   7.17719984      -2.99487965E-05
   7.18919992      -2.49146015E-05
   7.20120001      -2.01628591E-05
   7.21320009      -1.57320810E-05
   7.22520018      -1.16544552E-05
   7.23719978      -7.95621145E-06
   7.24919987      -4.65798803E-06
   7.26119995      -1.77512516E-06
   7.27320004       6.82077030E-07
   7.28520012       2.70815826E-06
   7.29720020       4.30234741E-06
   7.30919981       5.46844512E-06
   7.32119989       6.21472191E-06
   7.33319998       6.55381882E-06
   7.34520006       6.50262291E-06
   7.35720015       6.08209666E-06
   7.36920023       5.31705609E-06
   7.38119984       4.23586653E-06
   7.39319992       2.87006537E-06
   7.40520000       1.25389749E-06
   7.41720009      -5.76225375E-07
   7.42920017      -2.58233217E-06
   7.44119978      -4.72554984E-06
   7.45319986      -6.96678990E-06
   7.46519995      -9.26743542E-06
   7.47720003      -1.15900048E-05
   7.48920012      -1.38987671E-05
   7.50120020      -1.61602748E-05
   7.51319981      -1.83438096E-05
   7.52519989      -2.04216958E-05
   7.53719997      -2.23695151E-05
   7.54920006      -2.41661655E-05
   7.56120014      -2.57938264E-05
   7.57320023      -2.72377874E-05
   7.58519983      -2.84861835E-05
   7.59719992      -2.95296668E-05
   7.60920000      -3.03610123E-05
   7.62120008      -3.09747084E-05
   7.63320017      -3.13665587E-05
   7.64519978      -3.15333164E-05
   7.65719986      -3.14723438E-05
   7.66919994      -3.11814365E-05
   7.68120003      -3.06586480E-05
   7.69320011      -2.99022777E-05
   7.70520020      -2.89109630E-05
   7.71719980      -2.76838473E-05
   7.72919989      -2.62208687E-05
   7.74119997      -2.45231040E-05
   7.75320005      -2.25931781E-05
   7.76520014      -2.04356802E-05
   7.77720022      -1.80576062E-05
   7.78919983      -1.54687350E-05
   7.80119991      -1.26819878E-05
   7.81320000      -9.71367263E-06
   7.82520008      -6.58364206E-06
   7.83720016      -3.31533238E-06
   7.84919977       6.43331504E-08
   7.86119986       3.52516440E-06
   7.87319994       7.03405158E-06
   7.88520002       1.05554327E-05
   7.89720011       1.40518559E-05
   7.90920019       1.74846264E-05
   7.92119980       2.08145157E-05
   7.93319988       2.40024910E-05
   7.94519997       2.70104611E-05
   7.95720005       2.98020186E-05
   7.96920013       3.23431123E-05
   7.98120022       3.46027118E-05
   7.99319983       3.65533233E-05
   8.00520039       3.81715217E-05
   8.01720047       3.94382914E-05
   8.02919960       4.03393424E-05
   8.04119968       4.08652886E-05
   8.05319977       4.10117718E-05
   8.06519985       4.07794942E-05
   8.07719994       4.01741454E-05
   8.08920002       3.92063339E-05
   8.10120010       3.78913792E-05
   8.11320019       3.62491228E-05
   8.12520027       3.43036554E-05
   8.13720036       3.20830113E-05
   8.14920044       2.96188246E-05
   8.16119957       2.69459451E-05
   8.17319965       2.41020098E-05
   8.18519974       2.11269689E-05
   8.19719982       1.80625702E-05
   8.20919991       1.49518119E-05
   8.22119999       1.18383286E-05
   8.23320007       8.76576905E-06
   8.24520016       5.77712126E-06
   8.25720024       2.91403285E-06
   8.26920033       2.16124022E-07
   8.28120041      -2.27969053E-06
   8.29319954      -4.53984603E-06
   8.30519962      -6.53473080E-06
   8.31719971      -8.23921528E-06
   8.32919979      -9.63310231E-06
   8.34119987      -1.07014812E-05
   8.35319996      -1.14349677E-05
   8.36520004      -1.18298358E-05
   8.37720013      -1.18880180E-05
   8.38920021      -1.16169995E-05
   8.40120029      -1.10295823E-05
   8.41320038      -1.01435635E-05
   8.42520046      -8.98130020E-06
   8.43719959      -7.56921327E-06
   8.44919968      -5.93722007E-06
   8.46119976      -4.11812471E-06
   8.47319984      -2.14698593E-06
   8.48519993      -6.04706827E-08
   8.49720001       2.10378585E-06
   8.50920010       4.30780483E-06
   8.52120018       6.51386244E-06
   8.53320026       8.68505231E-06
   8.54520035       1.07858159E-05
   8.55720043       1.27824278E-05
   8.56919956       1.46434440E-05
   8.58119965       1.63401019E-05
   8.59319973       1.78466980E-05
   8.60519981       1.91409199E-05
   8.61719990       2.02041392E-05
   8.62919998       2.10216822E-05
   8.64120007       2.15830642E-05
   8.65320015       2.18821824E-05
   8.66520023       2.19174744E-05
   8.67720032       2.16920143E-05
   8.68920040       2.12135747E-05
   8.70119953       2.04945991E-05
   8.71319962       1.95521079E-05
   8.72519970       1.84075143E-05
   8.73719978       1.70863477E-05
   8.74919987       1.56178758E-05
   8.76119995       1.40346265E-05
   8.77320004       1.23718210E-05
   8.78520012       1.06667057E-05
   8.79720020       8.95782523E-06
   8.80920029       7.28421946E-06
   8.82120037       5.68459245E-06
   8.83320045       4.19647040E-06
   8.84519958       2.85536430E-06
   8.85719967       1.69397481E-06
   8.86919975       7.41458507E-07
   8.88119984       2.27784440E-08
   8.89319992      -4.41840967E-07
   8.90520000      -6.37345181E-07
   8.91720009      -5.54153246E-07
   8.92920017      -1.88334383E-07
   8.94120026       4.58340082E-07
   8.95320034       1.37846746E-06
   8.96520042       2.55919235E-06
   8.97719955       3.98248631E-06
   8.98919964       5.62551259E-06
   9.00119972       7.46106207E-06
   9.01319981       9.45805095E-06
   9.02519989       1.15820667E-05
   9.03719997       1.37959623E-05
   9.04920006       1.60604723E-05
   9.06120014       1.83348729E-05
   9.07320023       2.05776741E-05
   9.08520031       2.27473174E-05
   9.09720039       2.48029155E-05
   9.10919952       2.67050054E-05
   9.12119961       2.84163016E-05
   9.13319969       2.99024596E-05
   9.14519978       3.11328040E-05
   9.15719986       3.20810250E-05
   9.16919994       3.27258349E-05
   9.18120003       3.30515140E-05
   9.19320011       3.30483745E-05
   9.20520020       3.27130838E-05
   9.21720028       3.20488616E-05
   9.22920036       3.10655087E-05
   9.24120045       2.97792867E-05
   9.25319958       2.82126075E-05
   9.26519966       2.63935872E-05
   9.27719975       2.43554423E-05
   9.28919983       2.21357495E-05
   9.30119991       1.97756090E-05
   9.31320000       1.73187254E-05
   9.32520008       1.48104327E-05
   9.33720016       1.22967103E-05
   9.34920025       9.82320307E-06
   9.36120033       7.43427154E-06
   9.37320042       5.17210992E-06
   9.38519955       3.07592904E-06
   9.39719963       1.18123421E-06
   9.40919971      -4.80799599E-07
   9.42119980      -1.88385161E-06
   9.43319988      -3.00687088E-06
   9.44519997      -3.83438692E-06
