 -0.622799993         1.00000002E-24
 -0.610800028         1.00000002E-24
 -0.598800004         1.00000002E-24
 -0.586799979         1.00000002E-24
 -0.574800014         1.00000002E-24
 -0.562799990         1.00000012E-24
 -0.550800025         1.00000022E-24
 -0.538800001         1.00000022E-24
 -0.526799977         1.00000022E-24
 -0.514800012         1.00000022E-24
 -0.502799988         1.00000012E-24
 -0.490799993         1.00000002E-24
 -0.478799999         9.99999921E-25
 -0.466800004         9.99999921E-25
 -0.454800010         9.99999921E-25
 -0.442799985         9.99999921E-25
 -0.430799991         1.00000002E-24
 -0.418799996         1.00000012E-24
 -0.406800002         1.00000012E-24
 -0.394800007         1.00000002E-24
 -0.382800013         9.99999822E-25
 -0.370799989         9.99999329E-25
 -0.358799994         9.99998639E-25
 -0.346799999         9.99998442E-25
 -0.334800005         1.00000110E-24
 -0.322800010         1.00001215E-24
 -0.310799986         1.00004143E-24
 -0.298799992         1.00010030E-24
 -0.286799997         1.00019122E-24
 -0.274800003         1.00028273E-24
 -0.262800008         1.00027080E-24
 -0.250800014         9.99941644E-25
 -0.238800004         9.98979727E-25
 -0.226799995         9.97092278E-25
 -0.214800000         9.94320320E-25
 -0.202800006         9.91535936E-25
 -0.190799996         9.90935120E-25
 -0.178800002         9.96054039E-25
 -0.166800007         1.01058604E-24
 -0.154799998         1.03537580E-24
 -0.142800003         1.06378938E-24
 -0.130799994         1.07749870E-24
 -0.118799999         1.04727004E-24
 -0.106799997         9.45279993E-25
  -9.48000029E-02     7.74269246E-25
  -8.28000009E-02     6.11308777E-25
  -7.07999989E-02     6.48240039E-25
  -5.88000007E-02     1.18938837E-24
  -4.67999987E-02     2.54989486E-24
  -3.48000005E-02     4.80344465E-24
  -2.28000004E-02     7.37912166E-24
  -1.08000003E-02     8.61890887E-24
   1.20000006E-03     5.56879317E-24
   1.31999999E-02    -5.56978595E-24
   2.52000000E-02    -2.78673824E-23
   3.72000001E-02    -6.07447509E-23
   4.91999984E-02    -9.60937785E-23
   6.12000003E-02    -1.14835542E-22
   7.32000023E-02    -8.64493796E-23
   8.51999968E-02     2.52660930E-23
   9.71999988E-02     2.47423888E-22
  0.109200001         5.73991199E-22
  0.121200003         9.37014688E-22
  0.133200005         1.18424617E-21
  0.145199999         1.08042491E-21
  0.157199994         3.51655713E-22
  0.169200003        -1.21362905E-21
  0.181199998        -3.61092368E-21
  0.193200007        -6.44537275E-21
  0.205200002        -8.80311457E-21
  0.217199996        -9.26141221E-21
  0.229200006        -6.13361089E-21
  0.241200000         1.99391988E-21
  0.253199995         1.54656634E-20
  0.265199989         3.26682995E-20
  0.277200013         4.93623165E-20
  0.289200008         5.86500199E-20
  0.301200002         5.19877102E-20
  0.313199997         2.14695342E-20
  0.325199991        -3.67638323E-20
  0.337199986        -1.18660855E-19
  0.349200010        -2.09150485E-19
  0.361200005        -2.81360677E-19
  0.373199999        -2.99684667E-19
  0.385199994        -2.27573801E-19
  0.397199988        -3.96635818E-20
  0.409200013         2.63886771E-19
  0.421200007         6.44718735E-19
  0.433200002         1.02032274E-18
  0.445199996         1.26982047E-18
  0.457199991         1.25473300E-18
  0.469199985         8.54436317E-19
  0.481200010         1.11704191E-20
  0.493200004        -1.22555080E-18
  0.505200028        -2.66895387E-18
  0.517199993        -3.99395597E-18
  0.529200017        -4.77611273E-18
  0.541199982        -4.57371942E-18
  0.553200006        -3.04489712E-18
  0.565199971        -7.89029492E-20
  0.577199996         4.08958633E-18
  0.589200020         8.81968507E-18
  0.601199985         1.30903524E-17
  0.613200009         1.56340842E-17
  0.625199974         1.51777931E-17
  0.637199998         1.07634983E-17
  0.649200022         2.09395499E-18
  0.661199987        -1.01737872E-17
  0.673200011        -2.42741081E-17
  0.685199976        -3.73983972E-17
  0.697200000        -4.60341595E-17
  0.709200025        -4.65841817E-17
  0.721199989        -3.62088519E-17
  0.733200014        -1.37634185E-17
  0.745199978         1.93637952E-17
  0.757200003         5.87491200E-17
  0.769200027         9.70048005E-17
  0.781199992         1.24603271E-16
  0.793200016         1.31507953E-16
  0.805199981         1.09476831E-16
  0.817200005         5.46831004E-17
  0.829200029        -2.99129619E-17
  0.841199994        -1.33138055E-16
  0.853200018        -2.35812120E-16
  0.865199983        -3.13065707E-16
  0.877200007        -3.38835519E-16
  0.889199972        -2.92035255E-16
  0.901199996        -1.63284460E-16
  0.913200021         3.94179818E-17
  0.925199986         2.87879897E-16
  0.937200010         5.35305711E-16
  0.949199975         7.23063217E-16
  0.961199999         7.92196934E-16
  0.973200023         6.97854352E-16
  0.985199988         4.23545882E-16
  0.997200012        -8.53278326E-18
   1.00919998        -5.34677001E-16
   1.02119994        -1.05665952E-15
   1.03320003        -1.45866146E-15
   1.04519999        -1.63162305E-15
   1.05719995        -1.50000768E-15
   1.06920004        -1.04442868E-15
   1.08120000        -3.13622287E-16
   1.09319997         5.78875339E-16
   1.10520005         1.47447472E-15
   1.11720002         2.20243792E-15
   1.12919998         2.61856043E-15
   1.14119995         2.63966912E-15
   1.15320003         2.26396110E-15
   1.16520000         1.57016583E-15
   1.17719996         6.93991352E-16
   1.18920004        -2.12933601E-16
   1.20120001        -1.03029191E-15
   1.21319997        -1.70764193E-15
   1.22520006        -2.28005557E-15
   1.23720002        -2.85175728E-15
   1.24919999        -3.54759739E-15
   1.26119995        -4.44273651E-15
   1.27320004        -5.49010249E-15
   1.28520000        -6.47006921E-15
   1.29719996        -6.98517578E-15
   1.30920005        -6.51399846E-15
   1.32120001        -4.52392166E-15
   1.33319998        -6.25707473E-16
   1.34519994         5.26219938E-15
   1.35720003         1.27804609E-14
   1.36919999         2.10670037E-14
   1.38119996         2.87959963E-14
   1.39320004         3.43277619E-14
   1.40520000         3.59559218E-14
   1.41719997         3.22154141E-14
   1.42920005         2.21987837E-14
   1.44120002         5.82259384E-15
   1.45319998        -1.60076538E-14
   1.46519995        -4.13689807E-14
   1.47720003        -6.74403228E-14
   1.48920000        -9.07575271E-14
   1.50119996        -1.07572452E-13
   1.51320004        -1.14273594E-13
   1.52520001        -1.07824008E-13
   1.53719997        -8.61779384E-14
   1.54920006        -4.86466844E-14
   1.56120002         3.80858793E-15
   1.57319999         6.83765856E-14
   1.58519995         1.40311929E-13
   1.59720004         2.12999540E-13
   1.60920000         2.78207633E-13
   1.62119997         3.26571479E-13
   1.63320005         3.48339088E-13
   1.64520001         3.34382939E-13
   1.65719998         2.77438825E-13
   1.66919994         1.73478446E-13
   1.68120003         2.30654898E-14
   1.69319999        -1.67502947E-13
   1.70519996        -3.85493666E-13
   1.71720004        -6.11693313E-13
   1.72920001        -8.21199445E-13
   1.74119997        -9.85143824E-13
   1.75320005        -1.07333088E-12
   1.76520002        -1.05764442E-12
   1.77719998        -9.15938549E-13
   1.78919995        -6.36010667E-13
   1.80120003        -2.19170263E-13
   1.81320000         3.17111897E-13
   1.82519996         9.37959562E-13
   1.83720005         1.59163882E-12
   1.84920001         2.21213000E-12
   1.86119998         2.72375243E-12
   1.87320006         3.04765371E-12
   1.88520002         3.10974488E-12
   1.89719999         2.84947803E-12
   1.90919995         2.22870572E-12
   1.92120004         1.23976925E-12
   1.93320000        -8.80697764E-14
   1.94519997        -1.68470674E-12
   1.95720005        -3.43855651E-12
   1.96920002        -5.19982538E-12
   1.98119998        -6.78811304E-12
   1.99319994        -8.00448857E-12
   2.00519991        -8.64782031E-12
   2.01719999        -8.53468077E-12
   2.02920008        -7.52166298E-12
   2.04119992        -5.52833040E-12
   2.05320001        -2.55856057E-12
   2.06520009         1.28240159E-12
   2.07719994         5.77800871E-12
   2.08920002         1.06002793E-11
   2.10120010         1.53216051E-11
   2.11319995         1.94396860E-11
   2.12520003         2.24154428E-11
   2.13720012         2.37222655E-11
   2.14919996         2.29032106E-11
   2.16120005         1.96314250E-11
   2.17319989         1.37677708E-11
   2.18519998         5.40910546E-12
   2.19720006        -5.07935534E-12
   2.20919991        -1.70534507E-11
   2.22119999        -2.96057102E-11
   2.23320007        -4.16097122E-11
   2.24519992        -5.17931704E-11
   2.25720000        -5.88371851E-11
   2.26920009        -6.14961485E-11
   2.28119993        -5.87302013E-11
   2.29320002        -4.98398649E-11
   2.30520010        -3.45906047E-11
   2.31719995        -1.33139975E-11
   2.32920003         1.30276146E-11
   2.34120011         4.28252295E-11
   2.35319996         7.38656081E-11
   2.36520004         1.03437918E-10
   2.37719989         1.28505442E-10
   2.38919997         1.45937026E-10
   2.40120006         1.52786533E-10
   2.41319990         1.46601842E-10
   2.42519999         1.25738864E-10
   2.43720007         8.96515640E-11
   2.44919991         3.91264417E-11
   2.46120000        -2.35703297E-11
   2.47320008        -9.46610360E-11
   2.48519993        -1.68962011E-10
   2.49720001        -2.40138881E-10
   2.50920010        -3.01111219E-10
   2.52119994        -3.44592521E-10
   2.53320003        -3.63735680E-10
   2.54520011        -3.52839757E-10
   2.55719995        -3.08061604E-10
   2.56920004        -2.28065372E-10
   2.58119988        -1.14540231E-10
   2.59319997         2.74823445E-11
   2.60520005         1.89571706E-10
   2.61719990         3.60145830E-10
   2.62919998         5.25046340E-10
   2.64120007         6.68435640E-10
   2.65319991         7.73982489E-10
   2.66520000         8.26268609E-10
   2.67720008         8.12322543E-10
   2.68919992         7.23159588E-10
   2.70120001         5.55192725E-10
   2.71320009         3.11367709E-10
   2.72519994         1.88383098E-12
   2.73720002        -3.55624336E-10
   2.74920011        -7.36538108E-10
   2.76119995        -1.11039200E-09
   2.77320004        -1.44269685E-09
   2.78520012        -1.69739289E-09
   2.79719996        -1.83980930E-09
   2.80920005        -1.83995152E-09
   2.82119989        -1.67587622E-09
   2.83319998        -1.33687739E-09
   2.84520006        -8.26179403E-10
   2.85719991        -1.62828404E-10
   2.86919999         6.17497276E-10
   2.88120008         1.46299284E-09
   2.89319992         2.30769936E-09
   2.90520000         3.07499382E-09
   2.91720009         3.68252673E-09
   2.92919993         4.04840250E-09
   2.94120002         4.09826351E-09
   2.95320010         3.77281806E-09
   2.96519995         3.03525205E-09
   2.97720003         1.87788651E-09
   2.98920012         3.27429167E-10
   3.00119996        -1.55181190E-09
   3.01320004        -3.65730535E-09
   3.02519989        -5.85068261E-09
   3.03719997        -7.96335797E-09
   3.04920006        -9.80539649E-09
   3.06119990        -1.11773701E-08
   3.07319999        -1.18846843E-08
   3.08520007        -1.17535865E-08
   3.09719992        -1.06478479E-08
   3.10920000        -8.48488213E-09
   3.12120008        -5.24998134E-09
   3.13319993        -1.00724007E-09
   3.14520001         4.09417744E-09
   3.15720010         9.81968995E-09
   3.16919994         1.58559121E-08
   3.18120003         2.18249969E-08
   3.19320011         2.73071041E-08
   3.20519996         3.18710143E-08
   3.21720004         3.51124925E-08
   3.22919989         3.66995145E-08
   3.24119997         3.64231418E-08
   3.25320005         3.42523663E-08
   3.26519990         3.03910106E-08
   3.27719998         2.53343941E-08
   3.28920007         1.99234265E-08
   3.30119991         1.53936224E-08
   3.31320000         1.34165541E-08
   3.32520008         1.61313576E-08
   3.33719993         2.61640469E-08
   3.34920001         4.66326604E-08
   3.36120009         8.11365553E-08
   3.37319994         1.33728491E-07
   3.38520002         2.08868670E-07
   3.39720011         3.11360139E-07
   3.40919995         4.46265517E-07
   3.42120004         6.18805643E-07
   3.43319988         8.34241007E-07
   3.44519997         1.09773771E-06
   3.45720005         1.41421924E-06
   3.46919990         1.78820881E-06
   3.48119998         2.22366293E-06
   3.49320006         2.72380089E-06
   3.50519991         3.29093768E-06
   3.51719999         3.92631910E-06
   3.52920008         4.62997059E-06
   3.54119992         5.40055862E-06
   3.55320001         6.23528240E-06
   3.56520009         7.12978363E-06
   3.57719994         8.07809556E-06
   3.58920002         9.07263075E-06
   3.60120010         1.01042115E-05
   3.61319995         1.11621375E-05
   3.62520003         1.22343199E-05
   3.63720012         1.33074391E-05
   3.64919996         1.43671696E-05
   3.66120005         1.53984438E-05
   3.67319989         1.63857439E-05
   3.68519998         1.73134504E-05
   3.69720006         1.81661853E-05
   3.70919991         1.89291986E-05
   3.72119999         1.95887333E-05
   3.73320007         2.01324128E-05
   3.74519992         2.05495726E-05
   3.75720000         2.08315905E-05
   3.76920009         2.09721602E-05
   3.78119993         2.09675109E-05
   3.79320002         2.08165548E-05
   3.80520010         2.05209781E-05
   3.81719995         2.00852501E-05
   3.82920003         1.95165485E-05
   3.84120011         1.88246086E-05
   3.85319996         1.80215011E-05
   3.86520004         1.71213414E-05
   3.87719989         1.61399257E-05
   3.88919997         1.50943297E-05
   3.90120006         1.40024640E-05
   3.91319990         1.28826168E-05
   3.92519999         1.17529689E-05
   3.93720007         1.06311409E-05
   3.94919991         9.53374911E-06
   3.96120000         8.47600404E-06
   3.97320008         7.47136983E-06
   3.98519993         6.53127881E-06
   3.99720001         5.66492372E-06
   4.00920010         4.87912712E-06
   4.02120018         4.17829551E-06
   4.03319979         3.56445435E-06
   4.04519987         3.03736215E-06
   4.05719995         2.59469607E-06
   4.06920004         2.23230109E-06
   4.08120012         1.94449012E-06
   4.09320021         1.72437854E-06
   4.10519981         1.56424198E-06
   4.11719990         1.45588069E-06
   4.12919998         1.39097119E-06
   4.14120007         1.36139431E-06
   4.15320015         1.35952553E-06
   4.16520023         1.37847337E-06
   4.17719984         1.41226144E-06
   4.18919992         1.45594481E-06
   4.20120001         1.50566109E-06
   4.21320009         1.55861710E-06
   4.22520018         1.61301364E-06
   4.23719978         1.66791904E-06
   4.24919987         1.72309990E-06
   4.26119995         1.77882157E-06
   4.27320004         1.83563259E-06
   4.28520012         1.89414720E-06
   4.29720020         1.95484017E-06
   4.30919981         2.01786452E-06
   4.32119989         2.08290930E-06
   4.33319998         2.14909824E-06
   4.34520006         2.21494156E-06
   4.35720015         2.27834130E-06
   4.36920023         2.33664855E-06
   4.38119984         2.38676876E-06
   4.39319992         2.42530996E-06
   4.40520000         2.44876105E-06
   4.41720009         2.45369097E-06
   4.42920017         2.43695513E-06
   4.44119978         2.39589576E-06
   4.45319986         2.32852130E-06
   4.46519995         2.23365646E-06
   4.47720003         2.11105134E-06
   4.48920012         1.96144197E-06
   4.50120020         1.78655819E-06
   4.51319981         1.58908028E-06
   4.52519989         1.37254210E-06
   4.53719997         1.14118905E-06
   4.54920006         8.99800170E-07
   4.56120014         6.53480583E-07
   4.57320023         4.07441604E-07
   4.58519983         1.66778250E-07
   4.59719992        -6.37420499E-08
   4.60920000        -2.79865588E-07
   4.62120008        -4.78003415E-07
   4.63320017        -6.55338397E-07
   4.64519978        -8.09881215E-07
   4.65719986        -9.40473114E-07
   4.66919994        -1.04673484E-06
   4.68120003        -1.12896498E-06
   4.69320011        -1.18799517E-06
   4.70520020        -1.22501137E-06
   4.71719980        -1.24135215E-06
   4.72919989        -1.23829966E-06
   4.74119997        -1.21687503E-06
   4.75320005        -1.17765353E-06
   4.76520014        -1.12061571E-06
   4.77720022        -1.04504284E-06
   4.78919983        -9.49469268E-07
   4.80119991        -8.31696809E-07
   4.81320000        -6.88874934E-07
   4.82520008        -5.17647152E-07
   4.83720016        -3.14356811E-07
   4.84919977        -7.53041078E-08
   4.86119986         2.02956443E-07
   4.87319994         5.23295171E-07
   4.88520002         8.87680130E-07
   4.89720011         1.29686384E-06
   4.90920019         1.75010177E-06
   4.92119980         2.24492351E-06
   4.93319988         2.77697336E-06
   4.94519997         3.33993262E-06
   4.95720005         3.92553829E-06
   4.96920013         4.52370159E-06
   4.98120022         5.12272527E-06
   4.99319983         5.70962447E-06
   5.00519991         6.27052577E-06
   5.01719999         6.79114328E-06
   5.02920008         7.25730797E-06
   5.04120016         7.65552340E-06
   5.05319977         7.97352823E-06
   5.06519985         8.20083551E-06
   5.07719994         8.32922433E-06
   5.08920002         8.35314859E-06
   5.10120010         8.27006625E-06
   5.11320019         8.08064306E-06
   5.12519979         7.78882986E-06
   5.13719988         7.40181667E-06
   5.14919996         6.92984486E-06
   5.16120005         6.38589336E-06
   5.17320013         5.78525396E-06
   5.18520021         5.14500152E-06
   5.19719982         4.48339324E-06
   5.20919991         3.81921291E-06
   5.22119999         3.17109220E-06
   5.23320007         2.55683312E-06
   5.24520016         1.99276155E-06
   5.25719976         1.49313803E-06
   5.26919985         1.06964376E-06
   5.28119993         7.30967542E-07
   5.29320002         4.82502458E-07
   5.30520010         3.26165178E-07
   5.31720018         2.60343768E-07
   5.32919979         2.79972454E-07
   5.34119987         3.76729332E-07
   5.35319996         5.39347923E-07
   5.36520004         7.54031873E-07
   5.37720013         1.00495492E-06
   5.38920021         1.27483008E-06
   5.40119982         1.54552606E-06
   5.41319990         1.79871279E-06
   5.42519999         2.01651369E-06
   5.43720007         2.18214336E-06
   5.44920015         2.28051022E-06
   5.46120024         2.29876468E-06
   5.47319984         2.22677522E-06
   5.48519993         2.05751462E-06
   5.49720001         1.78734706E-06
   5.50920010         1.41619796E-06
   5.52120018         9.47606907E-07
   5.53319979         3.88655309E-07
   5.54519987        -2.50231153E-07
   5.55719995        -9.55599489E-07
   5.56920004        -1.71139766E-06
   5.58120012        -2.49950131E-06
   5.59320021        -3.30032231E-06
   5.60519981        -4.09348058E-06
   5.61719990        -4.85851024E-06
   5.62919998        -5.57558587E-06
   5.64120007        -6.22623065E-06
   5.65320015        -6.79398499E-06
   5.66520023        -7.26501867E-06
   5.67719984        -7.62864465E-06
   5.68919992        -7.87773661E-06
   5.70120001        -8.00901580E-06
   5.71320009        -8.02320756E-06
   5.72520018        -7.92505762E-06
   5.73719978        -7.72321073E-06
   5.74919987        -7.42995462E-06
   5.76119995        -7.06084029E-06
   5.77320004        -6.63419814E-06
   5.78520012        -6.17056094E-06
   5.79720020        -5.69202257E-06
   5.80919981        -5.22155278E-06
   5.82119989        -4.78229367E-06
   5.83319998        -4.39686028E-06
   5.84520006        -4.08667211E-06
   5.85720015        -3.87132832E-06
   5.86920023        -3.76805588E-06
   5.88119984        -3.79123503E-06
   5.89319992        -3.95202278E-06
   5.90520000        -4.25807320E-06
   5.91720009        -4.71336807E-06
   5.92920017        -5.31815294E-06
   5.94119978        -6.06897675E-06
   5.95319986        -6.95883318E-06
   5.96519995        -7.97739267E-06
   5.97720003        -9.11130974E-06
   5.98920012        -1.03446082E-05
   6.00120020        -1.16591136E-05
   6.01319981        -1.30349335E-05
   6.02519989        -1.44509622E-05
   6.03719997        -1.58853891E-05
   6.04920006        -1.73162243E-05
   6.06120014        -1.87217720E-05
   6.07320023        -2.00811137E-05
   6.08519983        -2.13745006E-05
   6.09719992        -2.25837248E-05
   6.10920000        -2.36924043E-05
   6.12120008        -2.46861910E-05
   6.13320017        -2.55529212E-05
   6.14519978        -2.62826670E-05
   6.15719986        -2.68677322E-05
   6.16919994        -2.73025707E-05
   6.18120003        -2.75836446E-05
   6.19320011        -2.77092386E-05
   6.20520020        -2.76792489E-05
   6.21719980        -2.74949471E-05
   6.22919989        -2.71587469E-05
   6.24119997        -2.66739880E-05
   6.25320005        -2.60447396E-05
   6.26520014        -2.52756508E-05
   6.27720022        -2.43718441E-05
   6.28919983        -2.33388655E-05
   6.30119991        -2.21826758E-05
   6.31320000        -2.09097125E-05
   6.32520008        -1.95269804E-05
   6.33720016        -1.80421794E-05
   6.34919977        -1.64638459E-05
   6.36119986        -1.48015015E-05
   6.37319994        -1.30658018E-05
   6.38520002        -1.12686266E-05
   6.39720011        -9.42314637E-06
   6.40920019        -7.54382154E-06
   6.42119980        -5.64632910E-06
   6.43319988        -3.74742217E-06
   6.44519997        -1.86470709E-06
   6.45720005        -1.63449361E-08
   6.46920013         1.77930792E-06
   6.48120022         3.50411369E-06
   6.49319983         5.14060230E-06
   6.50519991         6.67244558E-06
   6.51719999         8.08492314E-06
   6.52920008         9.36537162E-06
   6.54120016         1.05035924E-05
   6.55319977         1.14921913E-05
   6.56519985         1.23268455E-05
   6.57719994         1.30064718E-05
   6.58920002         1.35332957E-05
   6.60120010         1.39128124E-05
   6.61320019         1.41536366E-05
   6.62519979         1.42672634E-05
   6.63719988         1.42677118E-05
   6.64919996         1.41711171E-05
   6.66120005         1.39952172E-05
   6.67320013         1.37588286E-05
   6.68520021         1.34812681E-05
   6.69719982         1.31817715E-05
   6.70919991         1.28789216E-05
   6.72119999         1.25901161E-05
   6.73320007         1.23310701E-05
   6.74520016         1.21153971E-05
   6.75719976         1.19542501E-05
   6.76919985         1.18560656E-05
   6.78119993         1.18264015E-05
   6.79320002         1.18678545E-05
   6.80520010         1.19801107E-05
   6.81720018         1.21600569E-05
   6.82919979         1.24020044E-05
   6.84119987         1.26979712E-05
   6.85319996         1.30380486E-05
   6.86520004         1.34108104E-05
   6.87720013         1.38037594E-05
   6.88920021         1.42037934E-05
   6.90119982         1.45976765E-05
   6.91319990         1.49725020E-05
   6.92519999         1.53160945E-05
   6.93720007         1.56174065E-05
   6.94920015         1.58668208E-05
   6.96120024         1.60563832E-05
   6.97319984         1.61799708E-05
   6.98519993         1.62333545E-05
   6.99720001         1.62141914E-05
   7.00920010         1.61219214E-05
   7.02120018         1.59576011E-05
   7.03319979         1.57236645E-05
   7.04519987         1.54236477E-05
   7.05719995         1.50618780E-05
   7.06920004         1.46431494E-05
   7.08120012         1.41724140E-05
   7.09320021         1.36544922E-05
   7.10519981         1.30938397E-05
   7.11719990         1.24943717E-05
   7.12919998         1.18593534E-05
   7.14120007         1.11913841E-05
   7.15320015         1.04924529E-05
   7.16520023         9.76408137E-06
   7.17719984         9.00752548E-06
   7.18919992         8.22404945E-06
   7.20120001         7.41521853E-06
   7.21320009         6.58321733E-06
   7.22520018         5.73115858E-06
   7.23719978         4.86334920E-06
   7.24919987         3.98549992E-06
   7.26119995         3.10485825E-06
   7.27320004         2.23023267E-06
   7.28520012         1.37191080E-06
   7.29720020         5.41453403E-07
   7.30919981        -2.48627771E-07
   7.32119989        -9.85305746E-07
   7.33319998        -1.65556833E-06
   7.34520006        -2.24702194E-06
   7.35720015        -2.74854051E-06
   7.36920023        -3.15092393E-06
   7.38119984        -3.44753244E-06
   7.39319992        -3.63485788E-06
   7.40520000        -3.71299598E-06
   7.41720009        -3.68598171E-06
   7.42920017        -3.56196870E-06
   7.44119978        -3.35321920E-06
   7.45319986        -3.07590221E-06
   7.46519995        -2.74969057E-06
   7.47720003        -2.39716564E-06
   7.48920012        -2.04305093E-06
   7.50120020        -1.71329827E-06
   7.51319981        -1.43406942E-06
   7.52519989        -1.23064910E-06
   7.53719997        -1.12634859E-06
   7.54920006        -1.14144370E-06
   7.56120014        -1.29220075E-06
   7.57320023        -1.59004185E-06
   7.58519983        -2.04088701E-06
   7.59719992        -2.64471373E-06
   7.60920000        -3.39535814E-06
   7.62120008        -4.28057137E-06
   7.63320017        -5.28233568E-06
   7.64519978        -6.37743278E-06
   7.65719986        -7.53823588E-06
   7.66919994        -8.73370573E-06
   7.68120003        -9.93053345E-06
   7.69320011        -1.10943902E-05
   7.70520020        -1.21912271E-05
   7.71719980        -1.31885690E-05
   7.72919989        -1.40567445E-05
   7.74119997        -1.47700002E-05
   7.75320005        -1.53074616E-05
   7.76520014        -1.56538827E-05
   7.77720022        -1.58001803E-05
   7.78919983        -1.57437007E-05
   7.80119991        -1.54882582E-05
   7.81320000        -1.50438982E-05
   7.82520008        -1.44264350E-05
   7.83720016        -1.36567842E-05
   7.84919977        -1.27601124E-05
   7.86119986        -1.17648542E-05
   7.87319994        -1.07016376E-05
   7.88520002        -9.60217676E-06
   7.89720011        -8.49815660E-06
   7.90920019        -7.42018619E-06
   7.92119980        -6.39682366E-06
   7.93319988        -5.45374360E-06
   7.94519997        -4.61304717E-06
   7.95720005        -3.89274646E-06
   7.96920013        -3.30643024E-06
   7.98120022        -2.86311752E-06
   7.99319983        -2.56728777E-06
   8.00520039        -2.41908151E-06
   8.01720047        -2.41464704E-06
   8.02919960        -2.54661336E-06
   8.04119968        -2.80465702E-06
   8.05319977        -3.17614126E-06
   8.06519985        -3.64678590E-06
   8.07719994        -4.20134802E-06
   8.08920002        -4.82427549E-06
   8.10120010        -5.50031882E-06
   8.11320019        -6.21506797E-06
   8.12520027        -6.95540257E-06
   8.13720036        -7.70984570E-06
   8.14920044        -8.46879539E-06
   8.16119957        -9.22464915E-06
   8.17319965        -9.97180086E-06
   8.18519974        -1.07065371E-05
   8.19719982        -1.14268178E-05
   8.20919991        -1.21319681E-05
   8.22119999        -1.28223046E-05
   8.23320007        -1.34986976E-05
   8.24520016        -1.41621131E-05
   8.25720024        -1.48131530E-05
   8.26920033        -1.54516019E-05
   8.28120041        -1.60760428E-05
   8.29319954        -1.66835398E-05
   8.30519962        -1.72694054E-05
   8.31719971        -1.78271039E-05
   8.32919979        -1.83482571E-05
   8.34119987        -1.88228059E-05
   8.35319996        -1.92392999E-05
   8.36520004        -1.95853045E-05
   8.37720013        -1.98479484E-05
   8.38920021        -2.00145514E-05
   8.40120029        -2.00733011E-05
   8.41320038        -2.00139802E-05
   8.42520046        -1.98286834E-05
   8.43719959        -1.95124612E-05
   8.44919968        -1.90639075E-05
   8.46119976        -1.84855926E-05
   8.47319984        -1.77843340E-05
   8.48519993        -1.69713076E-05
   8.49720001        -1.60619129E-05
   8.50920010        -1.50754759E-05
   8.52120018        -1.40347111E-05
   8.53320026        -1.29650371E-05
   8.54520035        -1.18937023E-05
   8.55720043        -1.08488175E-05
   8.56919956        -9.85830957E-06
   8.58119965        -8.94884670E-06
   8.59319973        -8.14481064E-06
   8.60519981        -7.46732940E-06
   8.61719990        -6.93346783E-06
   8.62919998        -6.55557051E-06
   8.64120007        -6.34081880E-06
   8.65320015        -6.29101987E-06
   8.66520023        -6.40263079E-06
   8.67720032        -6.66701817E-06
   8.68920040        -7.07093750E-06
   8.70119953        -7.59720797E-06
   8.71319962        -8.22552920E-06
   8.72519970        -8.93341894E-06
   8.73719978        -9.69719258E-06
   8.74919987        -1.04929577E-05
   8.76119995        -1.12975558E-05
   8.77320004        -1.20894219E-05
   8.78520012        -1.28493093E-05
   8.79720020        -1.35608661E-05
   8.80920029        -1.42110321E-05
   8.82120037        -1.47902711E-05
   8.83320045        -1.52926077E-05
   8.84519958        -1.57155082E-05
   8.85719967        -1.60596410E-05
   8.86919975        -1.63284803E-05
   8.88119984        -1.65278634E-05
   8.89319992        -1.66654681E-05
   8.90520000        -1.67502749E-05
   8.91720009        -1.67920352E-05
   8.92920017        -1.68007664E-05
   8.94120026        -1.67862891E-05
   8.95320034        -1.67578328E-05
   8.96520042        -1.67237067E-05
   8.97719955        -1.66910468E-05
   8.98919964        -1.66656173E-05
   9.00119972        -1.66516948E-05
   9.01319981        -1.66520149E-05
   9.02519989        -1.66677510E-05
   9.03719997        -1.66985574E-05
   9.04920006        -1.67426460E-05
   9.06120014        -1.67969010E-05
   9.07320023        -1.68570205E-05
   9.08520031        -1.69176983E-05