 -0.622799993         1.00000002E-24
 -0.610800028         1.00000002E-24
 -0.598800004         1.00000002E-24
 -0.586799979         1.00000002E-24
 -0.574800014         1.00000002E-24
 -0.562799990         1.00041821E-24
 -0.550800025         1.00583641E-24
 -0.538800001         1.04642320E-24
 -0.526799977         1.26044087E-24
 -0.514800012         2.11526484E-24
 -0.502799988         4.82513360E-24
 -0.490799993         1.18783504E-23
 -0.478799999         2.73453868E-23
 -0.466800004         5.65525295E-23
 -0.454800010         1.05136289E-22
 -0.442799985         1.78434606E-22
 -0.430799991         2.82647701E-22
 -0.418799996         4.27373082E-22
 -0.406800002         6.23947324E-22
 -0.394800007         8.68254290E-22
 -0.382800013         1.09873133E-21
 -0.370799989         1.14108818E-21
 -0.358799994         6.93288072E-22
 -0.346799999        -5.53126447E-22
 -0.334800005        -2.56633472E-21
 -0.322800010        -4.43026829E-21
 -0.310799986        -3.87722979E-21
 -0.298799992         2.54505077E-21
 -0.286799997         1.80223365E-20
 -0.274800003         4.24901452E-20
 -0.262800008         6.89298199E-20
 -0.250800014         8.12348230E-20
 -0.238800004         5.70015395E-20
 -0.226799995        -2.20128206E-20
 -0.214800000        -1.52357389E-19
 -0.202800006        -2.90757759E-19
 -0.190799996        -3.48040094E-19
 -0.178800002        -2.09902573E-19
 -0.166800007         2.07346275E-19
 -0.154799998         8.75619172E-19
 -0.142800003         1.58271797E-18
 -0.130799994         1.92331094E-18
 -0.118799999         1.40665175E-18
 -0.106799997        -3.02029077E-19
  -9.48000029E-02    -3.06214405E-18
  -8.28000009E-02    -6.00283027E-18
  -7.07999989E-02    -7.53096084E-18
  -5.88000007E-02    -5.77192652E-18
  -4.67999987E-02     5.35344882E-19
  -3.48000005E-02     1.09200621E-17
  -2.28000004E-02     2.23386560E-17
  -1.08000003E-02     2.92534508E-17
   1.20000006E-03     2.51327596E-17
   1.31999999E-02     5.37520160E-18
   2.52000000E-02    -2.91145374E-17
   3.72000001E-02    -6.92451221E-17
   4.91999984E-02    -9.78531437E-17
   6.12000003E-02    -9.40435800E-17
   7.32000023E-02    -4.17324894E-17
   8.51999968E-02     5.97944314E-17
   9.71999988E-02     1.87591580E-16
  0.109200001         2.94253502E-16
  0.121200003         3.18602814E-16
  0.133200005         2.08113851E-16
  0.145199999        -5.22277736E-17
  0.157199994        -4.15363120E-16
  0.169200003        -7.65299138E-16
  0.181199998        -9.38852166E-16
  0.193200007        -7.78307023E-16
  0.205200002        -2.04168914E-16
  0.217199996         7.16239096E-16
  0.229200006         1.73635264E-15
  0.241200000         2.46266592E-15
  0.253199995         2.46303586E-15
  0.265199989         1.43380412E-15
  0.277200013        -6.22725864E-16
  0.289200008        -3.28067232E-15
  0.301200002        -5.70289115E-15
  0.313199997        -6.82421877E-15
  0.325199991        -5.69133846E-15
  0.337199986        -1.87775706E-15
  0.349200010         4.16348288E-15
  0.361200005         1.09657876E-14
  0.373199999         1.62544284E-14
  0.385199994         1.75201074E-14
  0.397199988         1.28606410E-14
  0.409200013         1.86377212E-15
  0.421200007        -1.37739221E-14
  0.433200002        -3.01856589E-14
  0.445199996        -4.20061426E-14
  0.457199991        -4.37438273E-14
  0.469199985        -3.15753249E-14
  0.481200010        -5.07513343E-15
  0.493200004         3.16992594E-14
  0.505200028         7.02713915E-14
  0.517199993         9.92106991E-14
  0.529200017         1.06868114E-13
  0.541199982         8.48360146E-14
  0.553200006         3.12574267E-14
  0.565199971        -4.70204015E-14
  0.577199996        -1.34312727E-13
  0.589200020        -2.08439209E-13
  0.601199985        -2.45388697E-13
  0.613200009        -2.25489373E-13
  0.625199974        -1.39711837E-13
  0.637199998         5.54941598E-15
  0.649200022         1.86768380E-13
  0.661199987         3.65689467E-13
  0.673200011         4.96010134E-13
  0.685199976         5.33462922E-13
  0.697200000         4.47402640E-13
  0.709200025         2.31283254E-13
  0.721199989        -9.07958672E-14
  0.733200014        -4.63840555E-13
  0.745199978        -8.09254953E-13
  0.757200003        -1.03928866E-12
  0.769200027        -1.07641001E-12
  0.781199992        -8.73754628E-13
  0.793200016        -4.31845044E-13
  0.805199981         1.93138731E-13
  0.817200005         8.92973629E-13
  0.829200029         1.52395577E-12
  0.841199994         1.93444653E-12
  0.853200018         1.99843332E-12
  0.865199983         1.64793949E-12
  0.877200007         8.96418736E-13
  0.889199972        -1.53547503E-13
  0.901199996        -1.32192759E-12
  0.913200021        -2.38171267E-12
  0.925199986        -3.10305406E-12
  0.937200010        -3.30221918E-12
  0.949199975        -2.88465801E-12
  0.961199999        -1.87207173E-12
  0.973200023        -4.06438961E-13
  0.985199988         1.27113858E-12
  0.997200012         2.86329229E-12
   1.00919998         4.07247326E-12
   1.02119994         4.65863762E-12
   1.03320003         4.48636787E-12
   1.04519999         3.55146858E-12
   1.05719995         1.98156097E-12
   1.06920004         1.08950392E-14
   1.08120000        -2.06475353E-12
   1.09319997        -3.94287641E-12
   1.10520005        -5.36638312E-12
   1.11720002        -6.16140602E-12
   1.12919998        -6.25238793E-12
   1.14119995        -5.65152742E-12
   1.15320003        -4.42628052E-12
   1.16520000        -2.65506996E-12
   1.17719996        -3.86196907E-13
   1.18920004         2.38322188E-12
   1.20120001         5.69376967E-12
   1.21319997         9.56805989E-12
   1.22520006         1.39162232E-11
   1.23720002         1.84193112E-11
   1.24919999         2.24204509E-11
   1.26119995         2.48626848E-11
   1.27320004         2.43139623E-11
   1.28520000         1.91106419E-11
   1.29719996         7.63042841E-12
   1.30920005        -1.13246860E-11
   1.32120001        -3.80906175E-11
   1.33319998        -7.17377061E-11
   1.34519994        -1.09814983E-10
   1.35720003        -1.48362822E-10
   1.36919999        -1.82298565E-10
   1.38119996        -2.06240774E-10
   1.39320004        -2.15778229E-10
   1.40520000        -2.09117793E-10
   1.41719997        -1.88973615E-10
   1.42920005        -1.64500233E-10
   1.44120002        -1.53035806E-10
   1.45319998        -1.81418283E-10
   1.46519995        -2.86672519E-10
   1.47720003        -5.15938736E-10
   1.48920000        -9.25621801E-10
   1.50119996        -1.57988522E-09
   1.51320004        -2.54878652E-09
   1.52520001        -3.90655286E-09
   1.53719997        -5.73071990E-09
   1.54920006        -8.10312617E-09
   1.56120002        -1.11140039E-08
   1.57319999        -1.48707135E-08
   1.58519995        -1.95129140E-08
   1.59720004        -2.52361954E-08
   1.60920000        -3.23263620E-08
   1.62119997        -4.12064942E-08
   1.63320005        -5.24988621E-08
   1.64520001        -6.71033362E-08
   1.65719998        -8.62933760E-08
   1.66919994        -1.11829713E-07
   1.68120003        -1.46090997E-07
   1.69319999        -1.92219090E-07
   1.70519996        -2.54275307E-07
   1.71720004        -3.37402440E-07
   1.72920001        -4.47985087E-07
   1.74119997        -5.93800110E-07
   1.75320005        -7.84146323E-07
   1.76520002        -1.02994181E-06
   1.77719998        -1.34377649E-06
   1.78919995        -1.73990543E-06
   1.80120003        -2.23417146E-06
   1.81320000        -2.84384078E-06
   1.82519996        -3.58734724E-06
   1.83720005        -4.48392757E-06
   1.84920001        -5.55315137E-06
   1.86119998        -6.81434267E-06
   1.87320006        -8.28589509E-06
   1.88520002        -9.98449923E-06
   1.89719999        -1.19242968E-05
   1.90919995        -1.41159808E-05
   1.92120004        -1.65658930E-05
   1.93320000        -1.92751268E-05
   1.94519997        -2.22387098E-05
   1.95720005        -2.54448896E-05
   1.96920002        -2.88745869E-05
   1.98119998        -3.25010333E-05
   1.99319994        -3.62896681E-05
   2.00519991        -4.01983270E-05
   2.01719999        -4.41777047E-05
   2.02920008        -4.81721654E-05
   2.04119992        -5.21208603E-05
   2.05320001        -5.59591572E-05
   2.06520009        -5.96203245E-05
   2.07719994        -6.30374561E-05
   2.08920002        -6.61455488E-05
   2.10120010        -6.88836590E-05
   2.11319995        -7.11970497E-05
   2.12520003        -7.30392567E-05
   2.13720012        -7.43739220E-05
   2.14919996        -7.51764092E-05
   2.16120005        -7.54349530E-05
   2.17319989        -7.51514526E-05
   2.18519998        -7.43417186E-05
   2.19720006        -7.30352040E-05
   2.20919991        -7.12742549E-05
   2.22119999        -6.91127498E-05
   2.23320007        -6.66144115E-05
   2.24519992        -6.38505662E-05
   2.25720000        -6.08977534E-05
   2.26920009        -5.78350373E-05
   2.28119993        -5.47413074E-05
   2.29320002        -5.16926048E-05
   2.30520010        -4.87596226E-05
   2.31719995        -4.60054907E-05
   2.32920003        -4.34839494E-05
   2.34120011        -4.12379777E-05
   2.35319996        -3.92989095E-05
   2.36520004        -3.76861099E-05
   2.37719989        -3.64071602E-05
   2.38919997        -3.54585354E-05
   2.40120006        -3.48267131E-05
   2.41319990        -3.44896762E-05
   2.42519999        -3.44186301E-05
   2.43720007        -3.45799344E-05
   2.44919991        -3.49370530E-05
   2.46120000        -3.54525037E-05
   2.47320008        -3.60896374E-05
   2.48519993        -3.68142137E-05
   2.49720001        -3.75957134E-05
   2.50920010        -3.84082923E-05
   2.52119994        -3.92314287E-05
   2.53320003        -4.00501631E-05
   2.54520011        -4.08550513E-05
   2.55719995        -4.16417643E-05
   2.56920004        -4.24104692E-05
   2.58119988        -4.31649933E-05
   2.59319997        -4.39118303E-05
   2.60520005        -4.46591293E-05
   2.61719990        -4.54156216E-05
   2.62919998        -4.61896743E-05
   2.64120007        -4.69883962E-05
   2.65319991        -4.78169859E-05
   2.66520000        -4.86782046E-05
   2.67720008        -4.95721542E-05
   2.68919992        -5.04962154E-05
   2.70120001        -5.14452768E-05
   2.71320009        -5.24121351E-05
   2.72519994        -5.33881030E-05
   2.73720002        -5.43637361E-05
   2.74920011        -5.53296850E-05
   2.76119995        -5.62775276E-05
   2.77320004        -5.72006211E-05
   2.78520012        -5.80948581E-05
   2.79719996        -5.89592673E-05
   2.80920005        -5.97964827E-05
   2.82119989        -6.06129433E-05
   2.83319998        -6.14189121E-05
   2.84520006        -6.22282387E-05
   2.85719991        -6.30579452E-05
   2.86919999        -6.39275313E-05
   2.88120008        -6.48582354E-05
   2.89319992        -6.58721183E-05
   2.90520000        -6.69911387E-05
   2.91720009        -6.82361715E-05
   2.92919993        -6.96261850E-05
   2.94120002        -7.11774264E-05
   2.95320010        -7.29028470E-05
   2.96519995        -7.48116436E-05
   2.97720003        -7.69091057E-05
   2.98920012        -7.91964776E-05
   3.00119996        -8.16712709E-05
   3.01320004        -8.43275920E-05
   3.02519989        -8.71566663E-05
   3.03719997        -9.01474341E-05
   3.04920006        -9.32873154E-05
   3.06119990        -9.65628715E-05
   3.07319999        -9.99604672E-05
   3.08520007        -1.03466911E-04
   3.09719992        -1.07069900E-04
   3.10920000        -1.10758308E-04
   3.12120008        -1.14522365E-04
   3.13319993        -1.18353484E-04
   3.14520001        -1.22243990E-04
   3.15720010        -1.26186482E-04
   3.16919994        -1.30173124E-04
   3.18120003        -1.34194532E-04
   3.19320011        -1.38238625E-04
   3.20519996        -1.42289282E-04
   3.21720004        -1.46324877E-04
   3.22919989        -1.50316802E-04
   3.24119997        -1.54228095E-04
   3.25320005        -1.58012263E-04
   3.26519990        -1.61612203E-04
   3.27719998        -1.64959638E-04
   3.28920007        -1.67975028E-04
   3.30119991        -1.70567917E-04
   3.31320000        -1.72638029E-04
   3.32520008        -1.74076980E-04
   3.33719993        -1.74770801E-04
   3.34920001        -1.74603134E-04
   3.36120009        -1.73458975E-04
   3.37319994        -1.71229083E-04
   3.38520002        -1.67814724E-04
   3.39720011        -1.63132660E-04
   3.40919995        -1.57120041E-04
   3.42120004        -1.49739091E-04
   3.43319988        -1.40981327E-04
   3.44519997        -1.30870860E-04
   3.45720005        -1.19466800E-04
   3.46919990        -1.06864398E-04
   3.48119998        -9.31948016E-05
   3.49320006        -7.86234086E-05
   3.50519991        -6.33466407E-05
   3.51719999        -4.75874476E-05
   3.52920008        -3.15893558E-05
   3.54119992        -1.56095903E-05
   3.55320001         8.87062939E-08
   3.56520009         1.52446864E-05
   3.57719994         2.96081489E-05
   3.58920002         4.29476604E-05
   3.60120010         5.50580626E-05
   3.61319995         6.57670244E-05
   3.62520003         7.49404135E-05
   3.63720012         8.24861490E-05
   3.64919996         8.83564499E-05
   3.66120005         9.25483982E-05
   3.67319989         9.51027469E-05
   3.68519998         9.61011538E-05
   3.69720006         9.56618751E-05
   3.70919991         9.39342572E-05
   3.72119999         9.10922536E-05
   3.73320007         8.73271856E-05
   3.74519992         8.28402481E-05
   3.75720000         7.78349058E-05
   3.76920009         7.25096688E-05
   3.78119993         6.70513909E-05
   3.79320002         6.16294201E-05
   3.80520010         5.63908434E-05
   3.81719995         5.14567582E-05
   3.82920003         4.69200058E-05
   3.84120011         4.28440690E-05
   3.85319996         3.92632937E-05
   3.86520004         3.61842649E-05
   3.87719989         3.35882505E-05
   3.88919997         3.14345307E-05
   3.90120006         2.96643811E-05
   3.91319990         2.82055298E-05
   3.92519999         2.69768316E-05
   3.93720007         2.58929631E-05
   3.94919991         2.48689012E-05
   3.96120000         2.38240063E-05
   3.97320008         2.26855555E-05
   3.98519993         2.13916210E-05
   3.99720001         1.98931939E-05
   4.00920010         1.81555388E-05
   4.02120018         1.61587923E-05
   4.03319979         1.38978066E-05
   4.04519987         1.13813912E-05
   4.05719995         8.63098649E-06
   4.06920004         5.67893267E-06
   4.08120012         2.56645308E-06
   4.09320021        -6.58513216E-07
   4.10519981        -3.94351036E-06
   4.11719990        -7.23368066E-06
   4.12919998        -1.04737128E-05
   4.14120007        -1.36095596E-05
   4.15320015        -1.65898909E-05
   4.16520023        -1.93672658E-05
   4.17719984        -2.18990353E-05
   4.18919992        -2.41480266E-05
   4.20120001        -2.60830038E-05
   4.21320009        -2.76790324E-05
   4.22520018        -2.89177206E-05
   4.23719978        -2.97874521E-05
   4.24919987        -3.02835961E-05
   4.26119995        -3.04087498E-05
   4.27320004        -3.01730070E-05
   4.28520012        -2.95942245E-05
   4.29720020        -2.86982722E-05
   4.30919981        -2.75191851E-05
   4.32119989        -2.60991801E-05
   4.33319998        -2.44884541E-05
   4.34520006        -2.27446853E-05
   4.35720015        -2.09321843E-05
   4.36920023        -1.91206655E-05
   4.38119984        -1.73835870E-05
   4.39319992        -1.57961058E-05
   4.40520000        -1.44326586E-05
   4.41720009        -1.33642770E-05
   4.42920017        -1.26557152E-05
   4.44119978        -1.23625414E-05
   4.45319986        -1.25283523E-05
   4.46519995        -1.31822444E-05
   4.47720003        -1.43367406E-05
   4.48920012        -1.59862957E-05
   4.50120020        -1.81065116E-05
   4.51319981        -2.06541627E-05
   4.52519989        -2.35680782E-05
   4.53719997        -2.67708674E-05
   4.54920006        -3.01714845E-05
   4.56120014        -3.36684825E-05
   4.57320023        -3.71538845E-05
   4.58519983        -4.05174287E-05
   4.59719992        -4.36510491E-05
   4.60920000        -4.64533405E-05
   4.62120008        -4.88338192E-05
   4.63320017        -5.07167388E-05
   4.64519978        -5.20443173E-05
   4.65719986        -5.27791963E-05
   4.66919994        -5.29059907E-05
   4.68120003        -5.24319548E-05
   4.69320011        -5.13866144E-05
   4.70520020        -4.98204972E-05
   4.71719980        -4.78029397E-05
   4.72919989        -4.54191504E-05
   4.74119997        -4.27666237E-05
   4.75320005        -3.99510864E-05
   4.76520014        -3.70821799E-05
   4.77720022        -3.42690146E-05
   4.78919983        -3.16158330E-05
   4.80119991        -2.92179902E-05
   4.81320000        -2.71583031E-05
   4.82520008        -2.55040777E-05
   4.83720016        -2.43047871E-05
   4.84919977        -2.35905591E-05
   4.86119986        -2.33715145E-05
   4.87319994        -2.36379383E-05
   4.88520002        -2.43612940E-05
   4.89720011        -2.54960032E-05
   4.90920019        -2.69818920E-05
   4.92119980        -2.87472067E-05
   4.93319988        -3.07120172E-05
   4.94519997        -3.27918860E-05
   4.95720005        -3.49016118E-05
   4.96920013        -3.69588633E-05
   4.98120022        -3.88875997E-05
   4.99319983        -4.06210420E-05
   5.00519991        -4.21041368E-05
   5.01719999        -4.32953821E-05
   5.02920008        -4.41679658E-05
   5.04120016        -4.47101629E-05
   5.05319977        -4.49250001E-05
   5.06519985        -4.48292776E-05
   5.07719994        -4.44519028E-05
   5.08920002        -4.38317584E-05
   5.10120010        -4.30151704E-05
   5.11320019        -4.20530814E-05
   5.12519979        -4.09981476E-05
   5.13719988        -3.99018536E-05
   5.14919996        -3.88118242E-05
   5.16120005        -3.77694232E-05
   5.17320013        -3.68078327E-05
   5.18520021        -3.59506157E-05
   5.19719982        -3.52108982E-05
   5.20919991        -3.45911612E-05
   5.22119999        -3.40836741E-05
   5.23320007        -3.36715239E-05
   5.24520016        -3.33301759E-05
   5.25719976        -3.30294861E-05
   5.26919985        -3.27360358E-05
   5.28119993        -3.24156463E-05
   5.29320002        -3.20359577E-05
   5.30520010        -3.15689103E-05
   5.31720018        -3.09929273E-05
   5.32919979        -3.02947610E-05
   5.34119987        -2.94708116E-05
   5.35319996        -2.85278675E-05
   5.36520004        -2.74832055E-05
   5.37720013        -2.63640304E-05
   5.38920021        -2.52062891E-05
   5.40119982        -2.40529207E-05
   5.41319990        -2.29516336E-05
   5.42519999        -2.19523463E-05
   5.43720007        -2.11044335E-05
   5.44920015        -2.04539483E-05
   5.46120024        -2.00409886E-05
   5.47319984        -1.98973412E-05
   5.48519993        -2.00445684E-05
   5.49720001        -2.04926455E-05
   5.50920010        -2.12391860E-05
   5.52120018        -2.22693525E-05
   5.53319979        -2.35564039E-05
   5.54519987        -2.50628673E-05
   5.55719995        -2.67422383E-05
   5.56920004        -2.85410988E-05
   5.58120012        -3.04015575E-05
   5.59320021        -3.22638225E-05
   5.60519981        -3.40687839E-05
   5.61719990        -3.57604877E-05
   5.62919998        -3.72883005E-05
   5.64120007        -3.86087850E-05
   5.65320015        -3.96870892E-05
   5.66520023        -4.04978855E-05
   5.67719984        -4.10258181E-05
   5.68919992        -4.12654772E-05
   5.70120001        -4.12209483E-05
   5.71320009        -4.09049717E-05
   5.72520018        -4.03378508E-05
   5.73719978        -3.95460884E-05
   5.74919987        -3.85609237E-05
   5.76119995        -3.74167939E-05
   5.77320004        -3.61498060E-05
   5.78520012        -3.47962778E-05
   5.79720020        -3.33913849E-05
   5.80919981        -3.19679675E-05
   5.82119989        -3.05555368E-05
   5.83319998        -2.91794786E-05
   5.84520006        -2.78604748E-05
   5.85720015        -2.66141687E-05
   5.86920023        -2.54510796E-05
   5.88119984        -2.43767754E-05
   5.89319992        -2.33922583E-05
   5.90520000        -2.24946161E-05
   5.91720009        -2.16778662E-05
   5.92920017        -2.09339778E-05
   5.94119978        -2.02540359E-05
   5.95319986        -1.96294550E-05
   5.96519995        -1.90532173E-05
   5.97720003        -1.85210083E-05
   5.98920012        -1.80322149E-05
   6.00120020        -1.75906680E-05
   6.01319981        -1.72050968E-05
   6.02519989        -1.68891984E-05
   6.03719997        -1.66613336E-05
   6.04920006        -1.65438159E-05
   6.06120014        -1.65618130E-05
   6.07320023        -1.67419239E-05
   6.08519983        -1.71105003E-05
   6.09719992        -1.76918020E-05
   6.10920000        -1.85061181E-05
   6.12120008        -1.95679568E-05
   6.13320017        -2.08844449E-05
   6.14519978        -2.24540399E-05
   6.15719986        -2.42656479E-05
   6.16919994        -2.62982176E-05
   6.18120003        -2.85208462E-05
   6.19320011        -3.08934177E-05
   6.20520020        -3.33677235E-05
   6.21719980        -3.58890138E-05
   6.22919989        -3.83979204E-05
   6.24119997        -4.08326086E-05
   6.25320005        -4.31311237E-05
   6.26520014        -4.52336935E-05
   6.27720022        -4.70850500E-05
   6.28919983        -4.86365061E-05
   6.30119991        -4.98478330E-05
   6.31320000        -5.06888173E-05
   6.32520008        -5.11404214E-05
   6.33720016        -5.11955914E-05
   6.34919977        -5.08596386E-05
   6.36119986        -5.01502036E-05
   6.37319994        -4.90968341E-05
   6.38520002        -4.77401809E-05
   6.39720011        -4.61308264E-05
   6.40920019        -4.43278077E-05
   6.42119980        -4.23968559E-05
   6.43319988        -4.04084167E-05
   6.44519997        -3.84354425E-05
   6.45720005        -3.65511114E-05
   6.46920013        -3.48264730E-05
   6.48120022        -3.33280950E-05
   6.49319983        -3.21158259E-05
   6.50519991        -3.12407392E-05
   6.51719999        -3.07433329E-05
   6.52920008        -3.06520997E-05
   6.54120016        -3.09825082E-05
   6.55319977        -3.17364647E-05
   6.56519985        -3.29022878E-05
   6.57719994        -3.44552100E-05
   6.58920002        -3.63583786E-05
   6.60120010        -3.85643325E-05
   6.61320019        -4.10168795E-05
   6.62519979        -4.36532719E-05
   6.63719988        -4.64065815E-05
   6.64919996        -4.92081708E-05
   6.66120005        -5.19900859E-05
   6.67320013        -5.46873307E-05
   6.68520021        -5.72398712E-05
   6.69719982        -5.95942729E-05
   6.70919991        -6.17049664E-05
   6.72119999        -6.35350589E-05
   6.73320007        -6.50567235E-05
   6.74520016        -6.62512030E-05
   6.75719976        -6.71084199E-05
   6.76919985        -6.76263662E-05
   6.78119993        -6.78102224E-05
   6.79320002        -6.76714044E-05
   6.80520010        -6.72265087E-05
   6.81720018        -6.64963518E-05
   6.82919979        -6.55049444E-05
   6.84119987        -6.42787272E-05
   6.85319996        -6.28457638E-05
   6.86520004        -6.12351578E-05
   6.87720013        -5.94765588E-05
   6.88920021        -5.75997692E-05
   6.90119982        -5.56344057E-05
   6.91319990        -5.36096268E-05
   6.92519999        -5.15539214E-05
   6.93720007        -4.94948581E-05
   6.94920015        -4.74588815E-05
   6.96120024        -4.54710753E-05
   6.97319984        -4.35549300E-05
   6.98519993        -4.17321316E-05
   6.99720001        -4.00223289E-05
   7.00920010        -3.84429986E-05
   7.02120018        -3.70093003E-05
   7.03319979        -3.57340032E-05
   7.04519987        -3.46275046E-05
   7.05719995        -3.36978701E-05
   7.06920004        -3.29509494E-05
   7.08120012        -3.23905660E-05
   7.09320021        -3.20186737E-05
   7.10519981        -3.18356033E-05
   7.11719990        -3.18402635E-05
   7.12919998        -3.20303479E-05
   7.14120007        -3.24025168E-05
   7.15320015        -3.29525501E-05
   7.16520023        -3.36754529E-05
   7.17719984        -3.45655171E-05
   7.18919992        -3.56163546E-05
   7.20120001        -3.68208712E-05
   7.21320009        -3.81712234E-05
   7.22520018        -3.96587129E-05
   7.23719978        -4.12736699E-05
   7.24919987        -4.30053078E-05
   7.26119995        -4.48415594E-05
   7.27320004        -4.67689060E-05
   7.28520012        -4.87721991E-05
   7.29720020        -5.08344965E-05
   7.30919981        -5.29369609E-05
   7.32119989        -5.50587429E-05
   7.33319998        -5.71770288E-05
   7.34520006        -5.92671458E-05
   7.35720015        -6.13027805E-05
   7.36920023        -6.32563824E-05
   7.38119984        -6.50996517E-05
   7.39319992        -6.68042412E-05
   7.40520000        -6.83425023E-05
   7.41720009        -6.96883435E-05
   7.42920017        -7.08181688E-05
   7.44119978        -7.17117509E-05
   7.45319986        -7.23530829E-05
   7.46519995        -7.27310835E-05
   7.47720003        -7.28401428E-05
   7.48920012        -7.26804574E-05
   7.50120020        -7.22581099E-05
   7.51319981        -7.15848582E-05
   7.52519989        -7.06776991E-05
   7.53719997        -6.95581693E-05
   7.54920006        -6.82513928E-05
   7.56120014        -6.67850545E-05
   7.57320023        -6.51882074E-05
   7.58519983        -6.34901226E-05
   7.59719992        -6.17191690E-05
   7.60920000        -5.99018822E-05
   7.62120008        -5.80622000E-05
   7.63320017        -5.62209898E-05
   7.64519978        -5.43958340E-05
   7.65719986        -5.26011245E-05
   7.66919994        -5.08484045E-05
   7.68120003        -4.91468927E-05
   7.69320011        -4.75042361E-05
   7.70520020        -4.59272524E-05
   7.71719980        -4.44227080E-05
   7.72919989        -4.29979737E-05
   7.74119997        -4.16615185E-05
   7.75320005        -4.04231723E-05
   7.76520014        -3.92941001E-05
   7.77720022        -3.82865073E-05
   7.78919983        -3.74130832E-05
   7.80119991        -3.66861932E-05
   7.81320000        -3.61169186E-05
   7.82520008        -3.57140088E-05
   7.83720016        -3.54828444E-05
   7.84919977        -3.54244839E-05
   7.86119986        -3.55349293E-05
   7.87319994        -3.58046309E-05
   7.88520002        -3.62183346E-05
   7.89720011        -3.67552930E-05
   7.90920019        -3.73898183E-05
   7.92119980        -3.80922102E-05
   7.93319988        -3.88299813E-05
   7.94519997        -3.95692805E-05
   7.95720005        -4.02764781E-05
   7.96920013        -4.09197746E-05
   7.98120022        -4.14707320E-05
   7.99319983        -4.19056378E-05
   8.00520039        -4.22066223E-05
   8.01720047        -4.23624188E-05
   8.02919960        -4.23687925E-05
   8.04119968        -4.22285739E-05
   8.05319977        -4.19513053E-05
   8.06519985        -4.15525719E-05
   8.07719994        -4.10530629E-05
   8.08920002        -4.04773746E-05
   8.10120010        -3.98527518E-05
   8.11320019        -3.92077418E-05
   8.12520027        -3.85708699E-05
   8.13720036        -3.79694793E-05
   8.14920044        -3.74286537E-05
   8.16119957        -3.69704212E-05
   8.17319965        -3.66131062E-05
   8.18519974        -3.63709732E-05
   8.19719982        -3.62540632E-05
   8.20919991        -3.62682113E-05
   8.22119999        -3.64152656E-05
   8.23320007        -3.66933709E-05
   8.24520016        -3.70973939E-05
   8.25720024        -3.76193457E-05
   8.26920033        -3.82488470E-05
   8.28120041        -3.89735651E-05
   8.29319954        -3.97796321E-05
   8.30519962        -4.06520267E-05
   8.31719971        -4.15749091E-05
   8.32919979        -4.25319304E-05
   8.34119987        -4.35064867E-05
   8.35319996        -4.44819889E-05
   8.36520004        -4.54420697E-05
   8.37720013        -4.63708493E-05
   8.38920021        -4.72531246E-05
   8.40120029        -4.80746457E-05
   8.41320038        -4.88223122E-05
   8.42520046        -4.94844280E-05
   8.43719959        -5.00509050E-05
   8.44919968        -5.05134558E-05
   8.46119976        -5.08657431E-05
   8.47319984        -5.11034668E-05
   8.48519993        -5.12243969E-05
   8.49720001        -5.12283514E-05
   8.50920010        -5.11170729E-05
   8.52120018        -5.08940539E-05
   8.53320026        -5.05642856E-05
   8.54520035        -5.01339964E-05
   8.55720043        -4.96102984E-05
   8.56919956        -4.90008715E-05
   8.58119965        -4.83136100E-05
   8.59319973        -4.75563284E-05
   8.60519981        -4.67365098E-05
   8.61719990        -4.58611212E-05
   8.62919998        -4.49365398E-05
   8.64120007        -4.39685646E-05
   8.65320015        -4.29625507E-05
   8.66520023        -4.19236385E-05
   8.67720032        -4.08570486E-05
   8.68920040        -3.97684707E-05
   8.70119953        -3.86644388E-05
   8.71319962        -3.75526870E-05
   8.72519970        -3.64424632E-05
   8.73719978        -3.53447176E-05
   8.74919987        -3.42721542E-05
   8.76119995        -3.32391501E-05
   8.77320004        -3.22614360E-05
   8.78520012        -3.13556811E-05
   8.79720020        -3.05388457E-05
   8.80920029        -2.98274554E-05
   8.82120037        -2.92367986E-05
   8.83320045        -2.87800576E-05
   8.84519958        -2.84674898E-05
   8.85719967        -2.83057125E-05
   8.86919975        -2.82971087E-05
   8.88119984        -2.84394227E-05
   8.89319992        -2.87256025E-05
   8.90520000        -2.91438628E-05
   8.91720009        -2.96779945E-05
   8.92920017        -3.03079232E-05
   8.94120026        -3.10104515E-05
   8.95320034        -3.17601734E-05
   8.96520042        -3.25304973E-05
   8.97719955        -3.32947347E-05
   8.98919964        -3.40272090E-05
   9.00119972        -3.47042806E-05
   9.01319981        -3.53053292E-05
   9.02519989        -3.58135512E-05
   9.03719997        -3.62166429E-05
   9.04920006        -3.65072847E-05
   9.06120014        -3.66834538E-05
   9.07320023        -3.67485191E-05
   9.08520031        -3.67112189E-05