 -0.622799993       0.00000000    
 -0.610800028       0.00000000    
 -0.598800004       0.00000000    
 -0.586799979       0.00000000    
 -0.574800014       0.00000000    
 -0.562799990       0.00000000    
 -0.550800025       0.00000000    
 -0.538800001       0.00000000    
 -0.526799977       0.00000000    
 -0.514800012       0.00000000    
 -0.502799988       3.91232254E-34
 -0.490799993       7.59580719E-33
 -0.478799999       7.52964317E-32
 -0.466800004       5.04646543E-31
 -0.454800010       2.55269018E-30
 -0.442799985       1.02985831E-29
 -0.430799991       3.40995436E-29
 -0.418799996       9.36383528E-29
 -0.406800002       2.11381693E-28
 -0.394800007       3.75398943E-28
 -0.382800013       4.46010612E-28
 -0.370799989       2.16713025E-29
 -0.358799994      -1.56578605E-27
 -0.346799999      -4.62805126E-27
 -0.334800005      -6.94399126E-27
 -0.322800010       9.84960633E-28
 -0.310799986       4.29973536E-26
 -0.298799992       1.62268516E-25
 -0.286799997       4.11728521E-25
 -0.274800003       8.06608994E-25
 -0.262800008       1.20926835E-24
 -0.250800014       1.12889526E-24
 -0.238800004      -5.28885927E-25
 -0.226799995      -5.61820978E-24
 -0.214800000      -1.65131764E-23
 -0.202800006      -3.50276235E-23
 -0.190799996      -6.00608780E-23
 -0.178800002      -8.39018512E-23
 -0.166800007      -8.80313361E-23
 -0.154799998      -4.07254996E-23
 -0.142800003       9.95865454E-23
 -0.130799994       3.70336318E-22
 -0.118799999       7.76560582E-22
 -0.106799997       1.24964453E-21
  -9.48000029E-02   1.60364471E-21
  -8.28000009E-02   1.51220561E-21
  -7.07999989E-02   5.40277329E-22
  -5.88000007E-02  -1.73285937E-21
  -4.67999987E-02  -5.47864176E-21
  -3.48000005E-02  -1.02929404E-20
  -2.28000004E-02  -1.48647587E-20
  -1.08000003E-02  -1.68019850E-20
   1.20000006E-03  -1.28311061E-20
   1.31999999E-02   4.21843811E-22
   2.52000000E-02   2.49788689E-20
   3.72000001E-02   5.95413200E-20
   4.91999984E-02   9.75076499E-20
   6.12000003E-02   1.25838896E-19
   7.32000023E-02   1.25848318E-19
   8.51999968E-02   7.68785409E-20
   9.71999988E-02  -3.67644333E-20
  0.109200001      -2.16357232E-19
  0.121200003      -4.38977462E-19
  0.133200005      -6.50994089E-19
  0.145199999      -7.69205591E-19
  0.157199994      -6.93518203E-19
  0.169200003      -3.32867405E-19
  0.181199998       3.57825693E-19
  0.193200007       1.33689272E-18
  0.205200002       2.44344603E-18
  0.217199996       3.38824635E-18
  0.229200006       3.78219402E-18
  0.241200000       3.21097493E-18
  0.253199995       1.35342144E-18
  0.265199989      -1.87360793E-18
  0.277200013      -6.17663663E-18
  0.289200008      -1.07981828E-17
  0.301200002      -1.45292802E-17
  0.313199997      -1.58617921E-17
  0.325199991      -1.32965164E-17
  0.337199986      -5.78472714E-18
  0.349200010       6.76723035E-18
  0.361200005       2.30494093E-17
  0.373199999       4.01105272E-17
  0.385199994       5.34927908E-17
  0.397199988       5.78635470E-17
  0.409200013       4.81768054E-17
  0.421200007       2.12539807E-17
  0.433200002      -2.25031822E-17
  0.445199996      -7.77239087E-17
  0.457199991      -1.33564443E-16
  0.469199985      -1.74623240E-16
  0.481200010      -1.83599963E-16
  0.493200004      -1.45614109E-16
  0.505200028      -5.35377828E-17
  0.517199993       8.68951116E-17
  0.529200017       2.53878141E-16
  0.541199982       4.09960214E-16
  0.553200006       5.07372312E-16
  0.565199971       4.98427803E-16
  0.577199996       3.49615417E-16
  0.589200020       5.63182611E-17
  0.601199985      -3.46188427E-16
  0.613200009      -7.80121527E-16
  0.625199974      -1.13450682E-15
  0.637199998      -1.28734577E-15
  0.649200022      -1.13777087E-15
  0.661199987      -6.41306909E-16
  0.673200011       1.61645491E-16
  0.685199976       1.13467210E-15
  0.697200000       2.05958750E-15
  0.709200025       2.67828557E-15
  0.721199989       2.75639132E-15
  0.733200014       2.15468072E-15
  0.745199978       8.88517762E-16
  0.757200003      -8.45216697E-16
  0.769200027      -2.68859841E-15
  0.781199992      -4.19381767E-15
  0.793200016      -4.93318934E-15
  0.805199981      -4.62178022E-15
  0.817200005      -3.21760669E-15
  0.829200029      -9.65124693E-16
  0.841199994       1.64030789E-15
  0.853200018       3.96801351E-15
  0.865199983       5.42334190E-15
  0.877200007       5.62881473E-15
  0.889199972       4.55889014E-15
  0.901199996       2.57866962E-15
  0.913200021       3.60744371E-16
  0.925199986      -1.30957064E-15
  0.937200010      -1.79219233E-15
  0.949199975      -8.37080787E-16
  0.961199999       1.26726431E-15
  0.973200023       3.70515970E-15
  0.985199988       5.32512631E-15
  0.997200012       4.97546306E-15
   1.00919998       1.89625711E-15
   1.02119994      -3.94997637E-15
   1.03320003      -1.17224286E-14
   1.04519999      -1.97926409E-14
   1.05719995      -2.60837426E-14
   1.06920004      -2.85824356E-14
   1.08120000      -2.58862349E-14
   1.09319997      -1.76249786E-14
   1.10520005      -4.62170314E-15
   1.11720002       1.12701105E-14
   1.12919998       2.76177600E-14
   1.14119995       4.20191869E-14
   1.15320003       5.26822170E-14
   1.16520000       5.87822637E-14
   1.17719996       6.04696211E-14
   1.18920004       5.85078386E-14
   1.20120001       5.36523273E-14
   1.21319997       4.59817663E-14
   1.22520006       3.44396583E-14
   1.23720002       1.68083795E-14
   1.24919999      -9.77205564E-15
   1.26119995      -4.77872916E-14
   1.27320004      -9.80446193E-14
   1.28520000      -1.58413674E-13
   1.29719996      -2.22986329E-13
   1.30920005      -2.81976347E-13
   1.32120001      -3.22540660E-13
   1.33319998      -3.30509735E-13
   1.34519994      -2.92813760E-13
   1.35720003      -2.00224819E-13
   1.36919999      -4.99424653E-14
   1.38119996       1.52457772E-13
   1.39320004       3.92114618E-13
   1.40520000       6.45270079E-13
   1.41719997       8.81033636E-13
   1.42920005       1.06440464E-12
   1.44120002       1.16025483E-12
   1.45319998       1.13782540E-12
   1.46519995       9.75195836E-13
   1.47720003       6.63155403E-13
   1.48920000       2.07957417E-13
   1.50119996      -3.67430560E-13
   1.51320004      -1.02376571E-12
   1.52520001      -1.70760595E-12
   1.53719997      -2.35475051E-12
   1.54920006      -2.89462876E-12
   1.56120002      -3.25519386E-12
   1.57319999      -3.36800119E-12
   1.58519995      -3.17336608E-12
   1.59720004      -2.62574944E-12
   1.60920000      -1.69967057E-12
   1.62119997      -3.96390332E-13
   1.63320005       1.24871749E-12
   1.64520001       3.15878942E-12
   1.65719998       5.20951338E-12
   1.66919994       7.22668323E-12
   1.68120003       8.98971782E-12
   1.69319999       1.02433964E-11
   1.70519996       1.07191452E-11
   1.71720004       1.01656999E-11
   1.72920001       8.38694045E-12
   1.74119997       5.28267881E-12
   1.75320005       8.86543226E-13
   1.76520002      -4.60572769E-12
   1.77719998      -1.08239537E-11
   1.78919995      -1.72320387E-11
   1.80120003      -2.31597727E-11
   1.81320000      -2.78572651E-11
   1.82519996      -3.05681869E-11
   1.83720005      -3.06152291E-11
   1.84920001      -2.74892834E-11
   1.86119998      -2.09327122E-11
   1.87320006      -1.10072966E-11
   1.88520002       1.86186721E-12
   1.89719999       1.68736310E-11
   1.90919995       3.28743283E-11
   1.92120004       4.84202470E-11
   1.93320000       6.18786550E-11
   1.94519997       7.15636855E-11
   1.95720005       7.58991897E-11
   1.96920002       7.35965594E-11
   1.98119998       6.38313083E-11
   1.99319994       4.63990860E-11
   2.00519991       2.18302997E-11
   2.01719999      -8.55647150E-12
   2.02920008      -4.26779931E-11
   2.04119992      -7.77956519E-11
   2.05320001      -1.10709809E-10
   2.06520009      -1.38027936E-10
   2.07719994      -1.56484603E-10
   2.08920002      -1.63283123E-10
   2.10120010      -1.56422431E-10
   2.11319995      -1.34972811E-10
   2.12520003      -9.92662758E-11
   2.13720012      -5.09757375E-11
   2.14919996       6.93263979E-12
   2.16120005       7.03764755E-11
   2.17319989       1.34453490E-10
   2.18519998       1.93834462E-10
   2.19720006       2.43220194E-10
   2.20919991       2.77822404E-10
   2.22119999       2.93823854E-10
   2.23320007       2.88772589E-10
   2.24519992       2.61868249E-10
   2.25720000       2.14105400E-10
   2.26920009       1.48249288E-10
   2.28119993       6.86355833E-11
   2.29320002      -1.91979106E-11
   2.30520010      -1.09019314E-10
   2.31719995      -1.94502678E-10
   2.32920003      -2.69856193E-10
   2.34120011      -3.30403566E-10
   2.35319996      -3.73040349E-10
   2.36520004      -3.96494726E-10
   2.37719989      -4.01338907E-10
   2.38919997      -3.89725197E-10
   2.40120006      -3.64853509E-10
   2.41319990      -3.30217520E-10
   2.42519999      -2.88709723E-10
   2.43720007      -2.41699633E-10
   2.44919991      -1.88217344E-10
   2.46120000      -1.24383143E-10
   2.47320008      -4.32143696E-11
   2.48519993       6.50832790E-11
   2.49720001       2.12272491E-10
   2.50920010       4.10672191E-10
   2.52119994       6.71219913E-10
   2.53320003       1.00111597E-09
   2.54520011       1.40121981E-09
   2.55719995       1.86342786E-09
   2.56920004       2.36830644E-09
   2.58119988       2.88328517E-09
   2.59319997       3.36172445E-09
   2.60520005       3.74314846E-09
   2.61719990       3.95489019E-09
   2.62919998       3.91531874E-09
   2.64120007       3.53869600E-09
   2.65319991       2.74158607E-09
   2.66520000       1.45056644E-09
   2.67720008      -3.89183852E-10
   2.68919992      -2.80501911E-09
   2.70120001      -5.78847681E-09
   2.71320009      -9.28837718E-09
   2.72519994      -1.32064528E-08
   2.73720002      -1.73966761E-08
   2.74920011      -2.16694822E-08
   2.76119995      -2.58020911E-08
   2.77320004      -2.95560394E-08
   2.78520012      -3.27028502E-08
   2.79719996      -3.50585623E-08
   2.80920005      -3.65275170E-08
   2.82119989      -3.71553313E-08
   2.83319998      -3.71905671E-08
   2.84520006      -3.71539954E-08
   2.85719991      -3.79137290E-08
   2.86919999      -4.07638545E-08
   2.88120008      -4.75035407E-08
   2.89319992      -6.05129387E-08
   2.90520000      -8.28216713E-08
   2.91720009      -1.18165225E-07
   2.92919993      -1.71024411E-07
   2.94120002      -2.46642770E-07
   2.95320010      -3.51017093E-07
   2.96519995      -4.90856905E-07
   2.97720003      -6.73508794E-07
   2.98920012      -9.06842786E-07
   3.00119996      -1.19910044E-06
   3.01320004      -1.55870271E-06
   3.02519989      -1.99402120E-06
   3.03719997      -2.51311485E-06
   3.04920006      -3.12343946E-06
   3.06119990      -3.83153520E-06
   3.07319999      -4.64270170E-06
   3.08520007      -5.56067516E-06
   3.09719992      -6.58731278E-06
   3.10920000      -7.72230214E-06
   3.12120008      -8.96291203E-06
   3.13319993      -1.03037864E-05
   3.14520001      -1.17368045E-05
   3.15720010      -1.32510222E-05
   3.16919994      -1.48326781E-05
   3.18120003      -1.64653102E-05
   3.19320011      -1.81299547E-05
   3.20519996      -1.98054313E-05
   3.21720004      -2.14687407E-05
   3.22919989      -2.30955229E-05
   3.24119997      -2.46605905E-05
   3.25320005      -2.61385412E-05
   3.26519990      -2.75043858E-05
   3.27719998      -2.87342100E-05
   3.28920007      -2.98058294E-05
   3.30119991      -3.06994334E-05
   3.31320000      -3.13981691E-05
   3.32520008      -3.18886669E-05
   3.33719993      -3.21614789E-05
   3.34920001      -3.22114101E-05
   3.36120009      -3.20377439E-05
   3.37319994      -3.16443147E-05
   3.38520002      -3.10394717E-05
   3.39720011      -3.02359094E-05
   3.40919995      -2.92503482E-05
   3.42120004      -2.81031225E-05
   3.43319988      -2.68176391E-05
   3.44519997      -2.54197657E-05
   3.45720005      -2.39371475E-05
   3.46919990      -2.23984607E-05
   3.48119998      -2.08326674E-05
   3.49320006      -1.92682728E-05
   3.50519991      -1.77325819E-05
   3.51719999      -1.62510387E-05
   3.52920008      -1.48466288E-05
   3.54119992      -1.35393584E-05
   3.55320001      -1.23458503E-05
   3.56520009      -1.12790476E-05
   3.57719994      -1.03480506E-05
   3.58920002      -9.55805262E-06
   3.60120010      -8.91042691E-06
   3.61319995      -8.40290704E-06
   3.62520003      -8.02988507E-06
   3.63720012      -7.78279627E-06
   3.64919996      -7.65058303E-06
   3.66120005      -7.62021591E-06
   3.67319989      -7.67725305E-06
   3.68519998      -7.80640949E-06
   3.69720006      -7.99213558E-06
   3.70919991      -8.21915182E-06
   3.72119999      -8.47295451E-06
   3.73320007      -8.74024681E-06
   3.74519992      -9.00930900E-06
   3.75720000      -9.27026485E-06
   3.76920009      -9.51526999E-06
   3.78119993      -9.73859551E-06
   3.79320002      -9.93661797E-06
   3.80520010      -1.01077294E-05
   3.81719995      -1.02521526E-05
   3.82920003      -1.03717075E-05
   3.84120011      -1.04695109E-05
   3.85319996      -1.05496547E-05
   3.86520004      -1.06168627E-05
   3.87719989      -1.06761499E-05
   3.88919997      -1.07325031E-05
   3.90120006      -1.07905962E-05
   3.91319990      -1.08545491E-05
   3.92519999      -1.09277489E-05
   3.93720007      -1.10127285E-05
   3.94919991      -1.11111085E-05
   3.96120000      -1.12236012E-05
   3.97320008      -1.13500728E-05
   3.98519993      -1.14896493E-05
   3.99720001      -1.16408546E-05
   4.00920010      -1.18017851E-05
   4.02120018      -1.19702800E-05
   4.03319979      -1.21441071E-05
   4.04519987      -1.23211212E-05
   4.05719995      -1.24994240E-05
   4.06920004      -1.26774712E-05
   4.08120012      -1.28541724E-05
   4.09320021      -1.30289463E-05
   4.10519981      -1.32017485E-05
   4.11719990      -1.33730691E-05
   4.12919998      -1.35439050E-05
   4.14120007      -1.37157131E-05
   4.15320015      -1.38903506E-05
   4.16520023      -1.40700040E-05
   4.17719984      -1.42571143E-05
   4.18919992      -1.44543119E-05
   4.20120001      -1.46643451E-05
   4.21320009      -1.48900217E-05
   4.22520018      -1.51341610E-05
   4.23719978      -1.53995479E-05
   4.24919987      -1.56888982E-05
   4.26119995      -1.60048312E-05
   4.27320004      -1.63498335E-05
   4.28520012      -1.67262478E-05
   4.29720020      -1.71362390E-05
   4.30919981      -1.75817695E-05
   4.32119989      -1.80645711E-05
   4.33319998      -1.85861009E-05
   4.34520006      -1.91475174E-05
   4.35720015      -1.97496065E-05
   4.36920023      -2.03927448E-05
   4.38119984      -2.10768412E-05
   4.39319992      -2.18012428E-05
   4.40520000      -2.25646854E-05
   4.41720009      -2.33652045E-05
   4.42920017      -2.42000642E-05
   4.44119978      -2.50656831E-05
   4.45319986      -2.59575663E-05
   4.46519995      -2.68702534E-05
   4.47720003      -2.77972886E-05
   4.48920012      -2.87312014E-05
   4.50120020      -2.96635480E-05
   4.51319981      -3.05849462E-05
   4.52519989      -3.14852005E-05
   4.53719997      -3.23534259E-05
   4.54920006      -3.31782685E-05
   4.56120014      -3.39481303E-05
   4.57320023      -3.46514862E-05
   4.58519983      -3.52771858E-05
   4.59719992      -3.58148391E-05
   4.60920000      -3.62551982E-05
   4.62120008      -3.65905507E-05
   4.63320017      -3.68150795E-05
   4.64519978      -3.69252230E-05
   4.65719986      -3.69199806E-05
   4.66919994      -3.68011097E-05
   4.68120003      -3.65732885E-05
   4.69320011      -3.62441242E-05
   4.70520020      -3.58240832E-05
   4.71719980      -3.53262549E-05
   4.72919989      -3.47660534E-05
   4.74119997      -3.41607411E-05
   4.75320005      -3.35288569E-05
   4.76520014      -3.28896058E-05
   4.77720022      -3.22621090E-05
   4.78919983      -3.16646911E-05
   4.80119991      -3.11141193E-05
   4.81320000      -3.06249131E-05
   4.82520008      -3.02087137E-05
   4.83720016      -2.98737614E-05
   4.84919977      -2.96245198E-05
   4.86119986      -2.94614747E-05
   4.87319994      -2.93810899E-05
   4.88520002      -2.93759786E-05
   4.89720011      -2.94352485E-05
   4.90920019      -2.95450245E-05
   4.92119980      -2.96891303E-05
   4.93319988      -2.98498780E-05
   4.94519997      -3.00089450E-05
   4.95720005      -3.01482851E-05
   4.96920013      -3.02510325E-05
   4.98120022      -3.03023444E-05
   4.99319983      -3.02901171E-05
   5.00519991      -3.02055923E-05
   5.01719999      -3.00437587E-05
   5.02920008      -2.98035611E-05
   5.04120016      -2.94879155E-05
   5.05319977      -2.91034921E-05
   5.06519985      -2.86603226E-05
   5.07719994      -2.81712400E-05
   5.08920002      -2.76511782E-05
   5.10120010      -2.71163881E-05
   5.11320019      -2.65836043E-05
   5.12519979      -2.60692195E-05
   5.13719988      -2.55885061E-05
   5.14919996      -2.51549209E-05
   5.16120005      -2.47795524E-05
   5.17320013      -2.44707207E-05
   5.18520021      -2.42337210E-05
   5.19719982      -2.40707795E-05
   5.20919991      -2.39811488E-05
   5.22119999      -2.39613892E-05
   5.23320007      -2.40057452E-05
   5.24520016      -2.41066646E-05
   5.25719976      -2.42553469E-05
   5.26919985      -2.44423481E-05
   5.28119993      -2.46581603E-05
   5.29320002      -2.48937667E-05
   5.30520010      -2.51411111E-05
   5.31720018      -2.53934741E-05
   5.32919979      -2.56457515E-05
   5.34119987      -2.58946056E-05
   5.35319996      -2.61384939E-05
   5.36520004      -2.63775946E-05
   5.37720013      -2.66136212E-05
   5.38920021      -2.68495678E-05
   5.40119982      -2.70893761E-05
   5.41319990      -2.73375754E-05
   5.42519999      -2.75989223E-05
   5.43720007      -2.78780190E-05
   5.44920015      -2.81790053E-05
   5.46120024      -2.85052720E-05
   5.47319984      -2.88592546E-05
   5.48519993      -2.92422974E-05
   5.49720001      -2.96545968E-05
   5.50920010      -3.00952051E-05
   5.52120018      -3.05621070E-05
   5.53319979      -3.10523574E-05
   5.54519987      -3.15622201E-05
   5.55719995      -3.20873623E-05
   5.56920004      -3.26230002E-05
   5.58120012      -3.31640658E-05
   5.59320021      -3.37052807E-05
   5.60519981      -3.42412277E-05
   5.61719990      -3.47663226E-05
   5.62919998      -3.52747811E-05
   5.64120007      -3.57604586E-05
   5.65320015      -3.62167266E-05
   5.66520023      -3.66362910E-05
   5.67719984      -3.70110065E-05
   5.68919992      -3.73317525E-05
   5.70120001      -3.75883101E-05
   5.71320009      -3.77694050E-05
   5.72520018      -3.78627265E-05
   5.73719978      -3.78551595E-05
   5.74919987      -3.77330798E-05
   5.76119995      -3.74827650E-05
   5.77320004      -3.70909038E-05
   5.78520012      -3.65451706E-05
   5.79720020      -3.58348407E-05
   5.80919981      -3.49514157E-05
   5.82119989      -3.38891950E-05
   5.83319998      -3.26457885E-05
   5.84520006      -3.12225093E-05
   5.85720015      -2.96246180E-05
   5.86920023      -2.78614134E-05
   5.88119984      -2.59461503E-05
   5.89319992      -2.38957564E-05
   5.90520000      -2.17304132E-05
   5.91720009      -1.94729619E-05
   5.92920017      -1.71481988E-05
   5.94119978      -1.47820965E-05
   5.95319986      -1.24009666E-05
   5.96519995      -1.00306297E-05
   5.97720003      -7.69562394E-06
   5.98920012      -5.41849840E-06
   6.00120020      -3.21921948E-06
   6.01319981      -1.11471695E-06
   6.02519989       8.81410188E-07
   6.03719997       2.75901971E-06
   6.04920006       4.51139522E-06
   6.06120014       6.13504835E-06
   6.07320023       7.62939908E-06
   6.08519983       8.99633960E-06
   6.09719992       1.02397235E-05
   6.10920000       1.13648075E-05
   6.12120008       1.23776890E-05
   6.13320017       1.32847554E-05
   6.14519978       1.40921929E-05
   6.15719986       1.48055715E-05
   6.16919994       1.54295212E-05
   6.18120003       1.59675255E-05
   6.19320011       1.64218309E-05
   6.20520020       1.67934704E-05
   6.21719980       1.70824169E-05
   6.22919989       1.72878263E-05
   6.24119997       1.74083798E-05
   6.25320005       1.74426859E-05
   6.26520014       1.73897333E-05
   6.27720022       1.72493455E-05
   6.28919983       1.70226267E-05
   6.30119991       1.67123544E-05
   6.31320000       1.63232962E-05
   6.32520008       1.58624207E-05
   6.33720016       1.53389810E-05
   6.34919977       1.47644696E-05
   6.36119986       1.41524233E-05
   6.37319994       1.35180808E-05
   6.38520002       1.28779138E-05
   6.39720011       1.22490428E-05
   6.40920019       1.16485617E-05
   6.42119980       1.10928095E-05
   6.43319988       1.05966346E-05
   6.44519997       1.01726719E-05
   6.45720005       9.83070004E-06
   6.46920013       9.57710836E-06
   6.48120022       9.41450526E-06
   6.49319983       9.34150648E-06
   6.50519991       9.35271055E-06
   6.51719999       9.43887335E-06
   6.52920008       9.58727924E-06
   6.54120016       9.78228036E-06
   6.55319977       1.00059970E-05
   6.56519985       1.02391141E-05
   6.57719994       1.04617638E-05
   6.58920002       1.06544185E-05
   6.60120010       1.07987726E-05
   6.61320019       1.08785498E-05
   6.62519979       1.08802087E-05
   6.63719988       1.07935030E-05
   6.64919996       1.06118869E-05
   6.66120005       1.03327320E-05
   6.67320013       9.95736991E-06
   6.68520021       9.49095556E-06
   6.69719982       8.94216555E-06
   6.70919991       8.32276601E-06
   6.72119999       7.64705874E-06
   6.73320007       6.93125276E-06
   6.74520016       6.19277989E-06
   6.75719976       5.44959585E-06
   6.76919985       4.71949170E-06
   6.78119993       4.01943907E-06
   6.79320002       3.36499875E-06
   6.80520010       2.76980882E-06
   6.81720018       2.24516702E-06
   6.82919979       1.79971687E-06
   6.84119987       1.43924785E-06
   6.85319996       1.16660556E-06
   6.86520004       9.81715402E-07
   6.87720013       8.81707081E-07
   6.88920021       8.61134197E-07
   6.90119982       9.12272810E-07
   6.91319990       1.02548393E-06
   6.92519999       1.18962271E-06
   6.93720007       1.39247243E-06
   6.94920015       1.62118965E-06
   6.96120024       1.86273587E-06
   6.97319984       2.10428357E-06
   6.98519993       2.33358082E-06
   6.99720001       2.53926601E-06
   7.00920010       2.71112390E-06
   7.02120018       2.84028442E-06
   7.03319979       2.91936453E-06
   7.04519987       2.94256006E-06
   7.05719995       2.90569506E-06
   7.06920004       2.80623931E-06
   7.08120012       2.64329810E-06
   7.09320021       2.41758744E-06
   7.10519981       2.13139447E-06
   7.11719990       1.78852872E-06
   7.12919998       1.39425947E-06
   7.14120007       9.55237965E-07
   7.15320015       4.79397102E-07
   7.16520023      -2.41786005E-08
   7.17719984      -5.45420278E-07
   7.18919992      -1.07348455E-06
   7.20120001      -1.59701062E-06
   7.21320009      -2.10442340E-06
   7.22520018      -2.58427599E-06
   7.23719978      -3.02562194E-06
   7.24919987      -3.41839655E-06
   7.26119995      -3.75379068E-06
   7.27320004      -4.02458500E-06
   7.28520012      -4.22542325E-06
   7.29720020      -4.35299989E-06
   7.30919981      -4.40613530E-06
   7.32119989      -4.38573488E-06
   7.33319998      -4.29461943E-06
   7.34520006      -4.13723956E-06
   7.35720015      -3.91928597E-06
   7.36920023      -3.64722450E-06
   7.38119984      -3.32779518E-06
   7.39319992      -2.96750704E-06
   7.40520000      -2.57218585E-06
   7.41720009      -2.14660599E-06
   7.42920017      -1.69425005E-06
   7.44119978      -1.21722371E-06
   7.45319986      -7.16341674E-07
   7.46519995      -1.91387713E-07
   7.47720003       3.58466821E-07
   7.48920012       9.34112165E-07
   7.50120020       1.53586097E-06
   7.51319981       2.16277249E-06
   7.52519989       2.81199982E-06
   7.53719997       3.47821970E-06
   7.54920006       4.15320437E-06
   7.56120014       4.82558198E-06
   7.57320023       5.48082699E-06
   7.58519983       6.10149573E-06
   7.59719992       6.66771712E-06
   7.60920000       7.15791975E-06
   7.62120008       7.54976327E-06
   7.63320017       7.82122697E-06
   7.64519978       7.95178767E-06
   7.65719986       7.92362516E-06
   7.66919994       7.72277235E-06
   7.68120003       7.34014429E-06
   7.69320011       6.77237176E-06
   7.70520020       6.02239425E-06
   7.71719980       5.09975507E-06
   7.72919989       4.02059004E-06
   7.74119997       2.80728614E-06
   7.75320005       1.48783477E-06
   7.76520014       9.48948511E-08
   7.77720022      -1.33538265E-06
   7.78919983      -2.76471815E-06
   7.80119991      -4.15418845E-06
   7.81320000      -5.46576030E-06
   7.82520008      -6.66380492E-06
   7.83720016      -7.71651321E-06
   7.84919977      -8.59715146E-06
   7.86119986      -9.28509780E-06
   7.87319994      -9.76661158E-06
   7.88520002      -1.00352936E-05
   7.89720011      -1.00922316E-05
   7.90920019      -9.94581387E-06
   7.92119980      -9.61122259E-06
   7.93319988      -9.10963172E-06
   7.94519997      -8.46714647E-06
   7.95720005      -7.71354007E-06
   7.96920013      -6.88083128E-06
   7.98120022      -6.00179465E-06
   7.99319983      -5.10844484E-06
   8.00520039      -4.23059691E-06
   8.01720047      -3.39455619E-06
   8.02919960      -2.62200660E-06
   8.04119968      -1.92915900E-06
   8.05319977      -1.32620278E-06
   8.06519985      -8.17086743E-07
   8.07719994      -3.99651043E-07
   8.08920002      -6.61015491E-08
   8.10120010       1.96192545E-07
   8.11320019       4.03617094E-07
   8.12520027       5.75004037E-07
   8.13720036       7.30163265E-07
   8.14920044       8.88338832E-07
   8.16119957       1.06667358E-06
   8.17319965       1.27877320E-06
   8.18519974       1.53345582E-06
   8.19719982       1.83376278E-06
   8.20919991       2.17629622E-06
   8.22119999       2.55093096E-06
   8.23320007       2.94092411E-06
   8.24520016       3.32343257E-06
   8.25720024       3.67041503E-06
   8.26920033       3.94988501E-06
   8.28120041       4.12744930E-06
   8.29319954       4.16806324E-06
   8.30519962       4.03791137E-06
   8.31719971       3.70631642E-06
   8.32919979       3.14757858E-06
   8.34119987       2.34264871E-06
   8.35319996       1.28054739E-06
   8.36520004      -4.05482581E-08
   8.37720013      -1.61261210E-06
   8.38920021      -3.41750342E-06
   8.40120029      -5.42715816E-06
   8.41320038      -7.60422381E-06
   8.42520046      -9.90312219E-06
   8.43719959      -1.22714882E-05
   8.44919968      -1.46519260E-05
   8.46119976      -1.69840077E-05
   8.47319984      -1.92064272E-05
   8.48519993      -2.12592076E-05
   8.49720001      -2.30858914E-05
   8.50920010      -2.46355903E-05
   8.52120018      -2.58648415E-05
   8.53320026      -2.67391824E-05
   8.54520035      -2.72343768E-05
   8.55720043      -2.73372843E-05
   8.56919956      -2.70463152E-05
   8.58119965      -2.63714555E-05
   8.59319973      -2.53339203E-05
   8.60519981      -2.39654019E-05
   8.61719990      -2.23069710E-05
   8.62919998      -2.04077060E-05
   8.64120007      -1.83230477E-05
   8.65320015      -1.61130138E-05
   8.66520023      -1.38402766E-05
   8.67720032      -1.15682151E-05
   8.68920040      -9.35898788E-06
   8.70119953      -7.27170254E-06
   8.71319962      -5.36072639E-06
   8.72519970      -3.67419671E-06
   8.73719978      -2.25276995E-06
   8.74919987      -1.12863881E-06
   8.76119995      -3.24837742E-07
   8.77320004       1.45145265E-07
   8.78520012       2.77455825E-07
   8.79720020       7.76618521E-08
   8.80920029      -4.39738670E-07
   8.82120037      -1.25206577E-06
   8.83320045      -2.32942693E-06
   8.84519958      -3.63586992E-06
   8.85719967      -5.13067152E-06
   8.86919975      -6.76971376E-06
   8.88119984      -8.50689685E-06
   8.89319992      -1.02955364E-05
   8.90520000      -1.20897093E-05
   8.91720009      -1.38454834E-05
   8.92920017      -1.55220241E-05
   8.94120026      -1.70825333E-05
   8.95320034      -1.84949931E-05
   8.96520042      -1.97327499E-05
   8.97719955      -2.07748672E-05
   8.98919964      -2.16063327E-05
   9.00119972      -2.22180697E-05
   9.01319981      -2.26068150E-05
   9.02519989      -2.27748751E-05
   9.03719997      -2.27297696E-05
   9.04920006      -2.24838113E-05
   9.06120014      -2.20536385E-05
   9.07320023      -2.14596930E-05
   9.08520031      -2.07256835E-05
   9.09720039      -1.98780272E-05
   9.10919952      -1.89452730E-05
   9.12119961      -1.79575036E-05
   9.13319969      -1.69457235E-05
   9.14519978      -1.59412011E-05
   9.15719986      -1.49748075E-05
   9.16919994      -1.40763104E-05
   9.18120003      -1.32736586E-05
   9.19320011      -1.25922525E-05
   9.20520020      -1.20542227E-05
   9.21720028      -1.16777501E-05
   9.22920036      -1.14764325E-05
   9.24120045      -1.14587519E-05
   9.25319958      -1.16276578E-05
   9.26519966      -1.19803017E-05
   9.27719975      -1.25079541E-05
   9.28919983      -1.31961197E-05
   9.30119991      -1.40248640E-05
   9.31320000      -1.49693606E-05
   9.32520008      -1.60006366E-05
   9.33720016      -1.70865223E-05
   9.34920025      -1.81927408E-05
   9.36120033      -1.92841435E-05
   9.37320042      -2.03259842E-05
   9.38519955      -2.12852246E-05
   9.39719963      -2.21318096E-05
   9.40919971      -2.28398167E-05
   9.42119980      -2.33884548E-05
   9.43319988      -2.37628556E-05
   9.44519997      -2.39546116E-05
