 -0.622799993         1.00000002E-24
 -0.610800028         1.00000002E-24
 -0.598800004         1.00000002E-24
 -0.586799979         1.00000002E-24
 -0.574800014         1.00000002E-24
 -0.562799990         1.00000002E-24
 -0.550800025         1.00000012E-24
 -0.538800001         1.00000022E-24
 -0.526799977         1.00000022E-24
 -0.514800012         1.00000022E-24
 -0.502799988         1.00000022E-24
 -0.490799993         1.00000022E-24
 -0.478799999         1.00000002E-24
 -0.466800004         9.99999428E-25
 -0.454800010         9.99997259E-25
 -0.442799985         9.99988482E-25
 -0.430799991         9.99957421E-25
 -0.418799996         9.99860786E-25
 -0.406800002         9.99596419E-25
 -0.394800007         9.98959315E-25
 -0.382800013         9.97615885E-25
 -0.370799989         9.95201477E-25
 -0.358799994         9.91766678E-25
 -0.346799999         9.88942458E-25
 -0.334800005         9.92196114E-25
 -0.322800010         1.01407862E-24
 -0.310799986         1.07690508E-24
 -0.298799992         1.21043379E-24
 -0.286799997         1.43614070E-24
 -0.274800003         1.72672482E-24
 -0.262800008         1.93254415E-24
 -0.250800014         1.68353725E-24
 -0.238800004         3.13632533E-25
 -0.226799995        -3.08479087E-24
 -0.214800000        -9.30425702E-24
 -0.202800006        -1.81708698E-23
 -0.190799996        -2.71102463E-23
 -0.178800002        -2.93635675E-23
 -0.166800007        -1.26711012E-23
 -0.154799998         3.99996655E-23
 -0.142800003         1.45489655E-22
 -0.130799994         3.09181221E-22
 -0.118799999         5.06996284E-22
 -0.106799997         6.63987329E-22
  -9.48000029E-02     6.38652853E-22
  -8.28000009E-02     2.28526971E-22
  -7.07999989E-02    -7.83588437E-22
  -5.88000007E-02    -2.52688834E-21
  -4.67999987E-02    -4.88319168E-21
  -3.48000005E-02    -7.30115895E-21
  -2.28000004E-02    -8.65584734E-21
  -1.08000003E-02    -7.26568712E-21
   1.20000006E-03    -1.19646889E-21
   1.31999999E-02     1.10504649E-20
   2.52000000E-02     2.94737248E-20
   3.72000001E-02     5.13210091E-20
   4.91999984E-02     7.00716135E-20
   6.12000003E-02     7.52783342E-20
   7.32000023E-02     5.39684168E-20
   8.51999968E-02    -5.87499941E-21
   9.71999988E-02    -1.09747377E-19
  0.109200001        -2.49821883E-19
  0.121200003        -3.98802669E-19
  0.133200005        -5.07247107E-19
  0.145199999        -5.07551510E-19
  0.157199994        -3.27177307E-19
  0.169200003         8.82284671E-20
  0.181199998         7.44386554E-19
  0.193200007         1.56721661E-18
  0.205200002         2.38139591E-18
  0.217199996         2.91133785E-18
  0.229200006         2.81636056E-18
  0.241200000         1.76653333E-18
  0.253199995        -4.44373471E-19
  0.265199989        -3.76625424E-18
  0.277200013        -7.77282927E-18
  0.289200008        -1.15991840E-17
  0.301200002        -1.39852138E-17
  0.313199997        -1.34641181E-17
  0.325199991        -8.70882301E-18
  0.337199986         9.93857506E-19
  0.349200010         1.52263172E-17
  0.361200005         3.20200920E-17
  0.373199999         4.77094418E-17
  0.385199994         5.72342876E-17
  0.397199988         5.50102735E-17
  0.409200013         3.63600639E-17
  0.421200007        -6.80789600E-19
  0.433200002        -5.35756247E-17
  0.445199996        -1.14081230E-16
  0.457199991        -1.68257973E-16
  0.469199985        -1.98218839E-16
  0.481200010        -1.85810732E-16
  0.493200004        -1.17885400E-16
  0.505200028         7.83383302E-18
  0.517199993         1.77878454E-16
  0.529200017         3.61057138E-16
  0.541199982         5.11091686E-16
  0.553200006         5.74765641E-16
  0.565199971         5.05064412E-16
  0.577199996         2.77017493E-16
  0.589200020        -9.76999565E-17
  0.601199985        -5.62295463E-16
  0.613200009        -1.01708963E-15
  0.625199974        -1.33512965E-15
  0.637199998        -1.39051861E-15
  0.649200022        -1.09463794E-15
  0.661199987        -4.31596771E-16
  0.673200011         5.17935289E-16
  0.685199976         1.57469460E-15
  0.697200000         2.48670980E-15
  0.709200025         2.98219930E-15
  0.721199989         2.84009808E-15
  0.733200014         1.96131898E-15
  0.745199978         4.19948321E-16
  0.757200003        -1.52462945E-15
  0.769200027        -3.46555145E-15
  0.781199992        -4.93392372E-15
  0.793200016        -5.51464273E-15
  0.805199981        -4.96313323E-15
  0.817200005        -3.28860521E-15
  0.829200029        -7.74656999E-16
  0.841199994         2.07650191E-15
  0.853200018         4.66768305E-15
  0.865199983         6.46689199E-15
  0.877200007         7.15700573E-15
  0.889199972         6.72562922E-15
  0.901199996         5.45979269E-15
  0.913200021         3.83816251E-15
  0.925199986         2.34784446E-15
  0.937200010         1.28283532E-15
  0.949199975         5.95642251E-16
  0.961199999        -1.34851907E-16
  0.973200023        -1.58786882E-15
  0.985199988        -4.45354974E-15
  0.997200012        -9.11893987E-15
   1.00919998        -1.53856471E-14
   1.02119994        -2.23224064E-14
   1.03320003        -2.83262556E-14
   1.04519999        -3.14078733E-14
   1.05719995        -2.96466343E-14
   1.06920004        -2.17011891E-14
   1.08120000        -7.23412470E-15
   1.09319997         1.28741800E-14
   1.10520005         3.65876186E-14
   1.11720002         6.10331487E-14
   1.12919998         8.29757676E-14
   1.14119995         9.93004981E-14
   1.15320003         1.07358133E-13
   1.16520000         1.05092808E-13
   1.17719996         9.09697597E-14
   1.18920004         6.38231330E-14
   1.20120001         2.28069889E-14
   1.21319997        -3.23765672E-14
   1.22520006        -1.00888753E-13
   1.23720002        -1.79874033E-13
   1.24919999        -2.63526099E-13
   1.26119995        -3.42461004E-13
   1.27320004        -4.03783073E-13
   1.28520000        -4.32126936E-13
   1.29719996        -4.11739165E-13
   1.30920005        -3.29380647E-13
   1.32120001        -1.77561172E-13
   1.33319998         4.25525094E-14
   1.34519994         3.19224654E-13
   1.35720003         6.29742623E-13
   1.36919999         9.41724563E-13
   1.38119996         1.21600440E-12
   1.39320004         1.41065534E-12
   1.40520000         1.48554736E-12
   1.41719997         1.40684437E-12
   1.42920005         1.15101017E-12
   1.44120002         7.08137921E-13
   1.45319998         8.46310259E-14
   1.46519995        -6.94651259E-13
   1.47720003        -1.58476455E-12
   1.48920000        -2.51980880E-12
   1.50119996        -3.41339262E-12
   1.51320004        -4.16126205E-12
   1.52520001        -4.64699373E-12
   1.53719997        -4.75137724E-12
   1.54920006        -4.36554872E-12
   1.56120002        -3.40713503E-12
   1.57319999        -1.83778318E-12
   1.58519995         3.20266654E-13
   1.59720004         2.97130614E-12
   1.60920000         5.93969015E-12
   1.62119997         8.97197160E-12
   1.63320005         1.17489603E-11
   1.64520001         1.39079477E-11
   1.65719998         1.50741451E-11
   1.66919994         1.48993613E-11
   1.68120003         1.31050136E-11
   1.69319999         9.52584886E-12
   1.70519996         4.15026477E-12
   1.71720004        -2.84730052E-12
   1.72920001        -1.10865093E-11
   1.74119997        -1.99782534E-11
   1.75320005        -2.87425674E-11
   1.76520002        -3.64498952E-11
   1.77719998        -4.20863414E-11
   1.78919995        -4.46410652E-11
   1.80120003        -4.32111673E-11
   1.81320000        -3.71163586E-11
   1.82519996        -2.60132471E-11
   1.83720005        -9.99722180E-12
   1.84920001         1.03208744E-11
   1.86119998         3.37755761E-11
   1.87320006         5.86558579E-11
   1.88520002         8.27702420E-11
   1.89719999         1.03571957E-10
   1.90919995         1.18343432E-10
   1.92120004         1.24433686E-10
   1.93320000         1.19536062E-10
   1.94519997         1.01986829E-10
   1.95720005         7.10590406E-11
   1.96920002         2.72195461E-11
   1.98119998        -2.76854963E-11
   1.99319994        -9.03523159E-11
   2.00519991        -1.56079344E-10
   2.01719999        -2.18986940E-10
   2.02920008        -2.72403655E-10
   2.04119992        -3.09407333E-10
   2.05320001        -3.23488264E-10
   2.06520009        -3.09281184E-10
   2.07719994        -2.63296135E-10
   2.08920002        -1.84569596E-10
   2.10120010        -7.51537929E-11
   2.11319995         5.96276015E-11
   2.12520003         2.11212908E-10
   2.13720012         3.68156033E-10
   2.14919996         5.16801435E-10
   2.16120005         6.42251918E-10
   2.17319989         7.29571348E-10
   2.18519998         7.65137731E-10
   2.19720006         7.38045736E-10
   2.20919991         6.41441233E-10
   2.22119999         4.73666495E-10
   2.23320007         2.39097964E-10
   2.24519992        -5.14329135E-11
   2.25720000        -3.80722870E-10
   2.26920009        -7.25842331E-10
   2.28119993        -1.05936104E-09
   2.29320002        -1.35112332E-09
   2.30520010        -1.57048974E-09
   2.31719995        -1.68890568E-09
   2.32920003        -1.68260972E-09
   2.34120011        -1.53525825E-09
   2.35319996        -1.24022037E-09
   2.36520004        -8.02307720E-10
   2.37719989        -2.38726705E-10
   2.38919997         4.20901869E-10
   2.40120006         1.13554333E-09
   2.41319990         1.85477012E-09
   2.42519999         2.52171972E-09
   2.43720007         3.07682413E-09
   2.44919991         3.46207507E-09
   2.46120000         3.62554542E-09
   2.47320008         3.52584784E-09
   2.48519993         3.13621662E-09
   2.49720001         2.44790410E-09
   2.50920010         1.47261892E-09
   2.52119994         2.43781217E-10
   2.53320003        -1.18356525E-09
   2.54520011        -2.73427414E-09
   2.55719995        -4.31605640E-09
   2.56920004        -5.82379345E-09
   2.58119988        -7.14503967E-09
   2.59319997        -8.16645152E-09
   2.60520005        -8.78082940E-09
   2.61719990        -8.89438212E-09
   2.62919998        -8.43379855E-09
   2.64120007        -7.35270644E-09
   2.65319991        -5.63708635E-09
   2.66520000        -3.30927152E-09
   2.67720008        -4.30162739E-10
   2.68919992         2.90061419E-09
   2.70120001         6.54685994E-09
   2.71320009         1.03404476E-08
   2.72519994         1.40885783E-08
   2.73720002         1.75837354E-08
   2.74920011         2.06163229E-08
   2.76119995         2.29899477E-08
   2.77320004         2.45391778E-08
   2.78520012         2.51495731E-08
   2.79719996         2.47796397E-08
   2.80920005         2.34842847E-08
   2.82119989         2.14392806E-08
   2.83319998         1.89660980E-08
   2.84520006         1.65564344E-08
   2.85719991         1.48956989E-08
   2.86919999         1.48846606E-08
   2.88120008         1.76584081E-08
   2.89319992         2.46017784E-08
   2.90520000         3.73603761E-08
   2.91720009         5.78462931E-08
   2.92919993         8.82376625E-08
   2.94120002         1.30971202E-07
   2.95320010         1.88726830E-07
   2.96519995         2.64403809E-07
   2.97720003         3.61087331E-07
   2.98920012         4.82005362E-07
   3.00119996         6.30474858E-07
   3.01320004         8.09837388E-07
   3.02519989         1.02338345E-06
   3.03719997         1.27426676E-06
   3.04920006         1.56540682E-06
   3.06119990         1.89938351E-06
   3.07319999         2.27832243E-06
   3.08520007         2.70377473E-06
   3.09719992         3.17659328E-06
   3.10920000         3.69680788E-06
   3.12120008         4.26350789E-06
   3.13319993         4.87473153E-06
   3.14520001         5.52736947E-06
   3.15720010         6.21709160E-06
   3.16919994         6.93830225E-06
   3.18120003         7.68412337E-06
   3.19320011         8.44642273E-06
   3.20519996         9.21588071E-06
   3.21720004         9.98210999E-06
   3.22919989         1.07338101E-05
   3.24119997         1.14589911E-05
   3.25320005         1.21452204E-05
   3.26519990         1.27799258E-05
   3.27719998         1.33507219E-05
   3.28920007         1.38457617E-05
   3.30119991         1.42541057E-05
   3.31320000         1.45660806E-05
   3.32520008         1.47736237E-05
   3.33719993         1.48706013E-05
   3.34920001         1.48530780E-05
   3.36120009         1.47195251E-05
   3.37319994         1.44709675E-05
   3.38520002         1.41110322E-05
   3.39720011         1.36459321E-05
   3.40919995         1.30843455E-05
   3.42120004         1.24372145E-05
   3.43319988         1.17174595E-05
   3.44519997         1.09396142E-05
   3.45720005         1.01194073E-05
   3.46919990         9.27328529E-06
   3.48119998         8.41792371E-06
   3.49320006         7.56971622E-06
   3.50519991         6.74427702E-06
   3.51719999         5.95598249E-06
   3.52920008         5.21755373E-06
   3.54119992         4.53971325E-06
   3.55320001         3.93091841E-06
   3.56520009         3.39718849E-06
   3.57719994         2.94202778E-06
   3.58920002         2.56644762E-06
   3.60120010         2.26908242E-06
   3.61319995         2.04639400E-06
   3.62520003         1.89295054E-06
   3.63720012         1.80176676E-06
   3.64919996         1.76468598E-06
   3.66120005         1.77278662E-06
   3.67319989         1.81679138E-06
   3.68519998         1.88746151E-06
   3.69720006         1.97595796E-06
   3.70919991         2.07415496E-06
   3.72119999         2.17489151E-06
   3.73320007         2.27215764E-06
   3.74519992         2.36120536E-06
   3.75720000         2.43858835E-06
   3.76920009         2.50213543E-06
   3.78119993         2.55086047E-06
   3.79320002         2.58482237E-06
   3.80520010         2.60494903E-06
   3.81719995         2.61283640E-06
   3.82920003         2.61053628E-06
   3.84120011         2.60034994E-06
   3.85319996         2.58463410E-06
   3.86520004         2.56563681E-06
   3.87719989         2.54536053E-06
   3.88919997         2.52546715E-06
   3.90120006         2.50722087E-06
   3.91319990         2.49146888E-06
   3.92519999         2.47865614E-06
   3.93720007         2.46886998E-06
   3.94919991         2.46190484E-06
   3.96120000         2.45734122E-06
   3.97320008         2.45462661E-06
   3.98519993         2.45315709E-06
   3.99720001         2.45234492E-06
   4.00920010         2.45167371E-06
   4.02120018         2.45072988E-06
   4.03319979         2.44921421E-06
   4.04519987         2.44693092E-06
   4.05719995         2.44375633E-06
   4.06920004         2.43959062E-06
   4.08120012         2.43429963E-06
   4.09320021         2.42765191E-06
   4.10519981         2.41925795E-06
   4.11719990         2.40851887E-06
   4.12919998         2.39459200E-06
   4.14120007         2.37638142E-06
   4.15320015         2.35254788E-06
   4.16520023         2.32155776E-06
   4.17719984         2.28175554E-06
   4.18919992         2.23146685E-06
   4.20120001         2.16912872E-06
   4.21320009         2.09343511E-06
   4.22520018         2.00349791E-06
   4.23719978         1.89900663E-06
   4.24919987         1.78038033E-06
   4.26119995         1.64889889E-06
   4.27320004         1.50679932E-06
   4.28520012         1.35732955E-06
   4.29720020         1.20474544E-06
   4.30919981         1.05424976E-06
   4.32119989         9.11861207E-07
   4.33319998         7.84220390E-07
   4.34520006         6.78332356E-07
   4.35720015         6.01255863E-07
   4.36920023         5.59753232E-07
   4.38119984         5.59916145E-07
   4.39319992         6.06787751E-07
   4.40520000         7.04004378E-07
   4.41720009         8.53476990E-07
   4.42920017         1.05513629E-06
   4.44119978         1.30676290E-06
   4.45319986         1.60391653E-06
   4.46519995         1.93997948E-06
   4.47720003         2.30631917E-06
   4.48920012         2.69256770E-06
   4.50120020         3.08701215E-06
   4.51319981         3.47707987E-06
   4.52519989         3.84989517E-06
   4.53719997         4.19288062E-06
   4.54920006         4.49437221E-06
   4.56120014         4.74421404E-06
   4.57320023         4.93429479E-06
   4.58519983         5.05899789E-06
   4.59719992         5.11553708E-06
   4.60920000         5.10415111E-06
   4.62120008         5.02814282E-06
   4.63320017         4.89375952E-06
   4.64519978         4.70990881E-06
   4.65719986         4.48773426E-06
   4.66919994         4.24005520E-06
   4.68120003         3.98071143E-06
   4.69320011         3.72383943E-06
   4.70520020         3.48312619E-06
   4.71719980         3.27107000E-06
   4.72919989         3.09830148E-06
   4.74119997         2.97299334E-06
   4.75320005         2.90039588E-06
   4.76520014         2.88252386E-06
   4.77720022         2.91801507E-06
   4.78919983         3.00216948E-06
   4.80119991         3.12716611E-06
   4.81320000         3.28245324E-06
   4.82520008         3.45528861E-06
   4.83720016         3.63140362E-06
   4.84919977         3.79575818E-06
   4.86119986         3.93333949E-06
   4.87319994         4.02997102E-06
   4.88520002         4.07308153E-06
   4.89720011         4.05239507E-06
   4.90920019         3.96050564E-06
   4.92119980         3.79330959E-06
   4.93319988         3.55026509E-06
   4.94519997         3.23447716E-06
   4.95720005         2.85259375E-06
   4.96920013         2.41452426E-06
   4.98120022         1.93299593E-06
   4.99319983         1.42297165E-06
   5.00519991         9.00954717E-07
   5.01719999         3.84223000E-07
   5.02920008        -1.09972369E-07
   5.04120016        -5.65202924E-07
   5.05319977        -9.66614834E-07
   5.06519985        -1.30159685E-06
   5.07719994        -1.56033786E-06
   5.08920002        -1.73624233E-06
   5.10120010        -1.82619112E-06
   5.11320019        -1.83063526E-06
   5.12519979        -1.75352113E-06
   5.13719988        -1.60205707E-06
   5.14919996        -1.38633436E-06
   5.16120005        -1.11882639E-06
   5.17320013        -8.13793974E-07
   5.18520021        -4.86630029E-07
   5.19719982        -1.53176131E-07
   5.20919991         1.70952688E-07
   5.22119999         4.71001130E-07
   5.23320007         7.33639922E-07
   5.24520016         9.47432966E-07
   5.25719976         1.10319559E-06
   5.26919985         1.19422498E-06
   5.28119993         1.21640380E-06
   5.29320002         1.16817785E-06
   5.30520010         1.05041750E-06
   5.31720018         8.66179619E-07
   5.32919979         6.20385322E-07
   5.34119987         3.19444780E-07
   5.35319996        -2.91530764E-08
   5.36520004        -4.17252210E-07
   5.37720013        -8.36423510E-07
   5.38920021        -1.27831947E-06
   5.40119982        -1.73496915E-06
   5.41319990        -2.19900062E-06
   5.42519999        -2.66379061E-06
   5.43720007        -3.12353063E-06
   5.44920015        -3.57322187E-06
   5.46120024        -4.00860199E-06
   5.47319984        -4.42601959E-06
   5.48519993        -4.82226869E-06
   5.49720001        -5.19440391E-06
   5.50920010        -5.53954942E-06
   5.52120018        -5.85471798E-06
   5.53319979        -6.13666634E-06
   5.54519987        -6.38178199E-06
   5.55719995        -6.58603221E-06
   5.56920004        -6.74496596E-06
   5.58120012        -6.85378791E-06
   5.59320021        -6.90748038E-06
   5.60519981        -6.90099796E-06
   5.61719990        -6.82950622E-06
   5.62919998        -6.68865505E-06
   5.64120007        -6.47488105E-06
   5.65320015        -6.18571585E-06
   5.66520023        -5.82008170E-06
   5.67719984        -5.37856795E-06
   5.68919992        -4.86365343E-06
   5.70120001        -4.27988289E-06
   5.71320009        -3.63395725E-06
   5.72520018        -2.93476046E-06
   5.73719978        -2.19328012E-06
   5.74919987        -1.42245005E-06
   5.76119995        -6.36892082E-07
   5.77320004         1.47440787E-07
   5.78520012         9.13683948E-07
   5.79720020         1.64455651E-06
   5.80919981         2.32289904E-06
   5.82119989         2.93224980E-06
   5.83319998         3.45740978E-06
   5.84520006         3.88499438E-06
   5.85720015         4.20394326E-06
   5.86920023         4.40596023E-06
   5.88119984         4.48587389E-06
   5.89319992         4.44189845E-06
   5.90520000         4.27577970E-06
   5.91720009         3.99281816E-06
   5.92920017         3.60176659E-06
   5.94119978         3.11460008E-06
   5.95319986         2.54615816E-06
   5.96519995         1.91367508E-06
   5.97720003         1.23621419E-06
   5.98920012         5.34029425E-07
   6.00120020        -1.72135856E-07
   6.01319981        -8.61762089E-07
   6.02519989        -1.51526910E-06
   6.03719997        -2.11469137E-06
   6.04920006        -2.64430014E-06
   6.06120014        -3.09113784E-06
   6.07320023        -3.44544537E-06
   6.08519983        -3.70096973E-06
   6.09719992        -3.85513340E-06
   6.10920000        -3.90905507E-06
   6.12120008        -3.86742886E-06
   6.13320017        -3.73825242E-06
   6.14519978        -3.53243354E-06
   6.15719986        -3.26327654E-06
   6.16919994        -2.94588040E-06
   6.18120003        -2.59647891E-06
   6.19320011        -2.23174629E-06
   6.20520020        -1.86810973E-06
   6.21719980        -1.52108987E-06
   6.22919989        -1.20470702E-06
   6.24119997        -9.30975432E-07
   6.25320005        -7.09506253E-07
   6.26520014        -5.47237846E-07
   6.27720022        -4.48299261E-07
   6.28919983        -4.14012362E-07
   6.30119991        -4.43024788E-07
   6.31320000        -5.31566343E-07
   6.32520008        -6.73809041E-07
   6.33720016        -8.62310742E-07
   6.34919977        -1.08851543E-06
   6.36119986        -1.34328525E-06
   6.37319994        -1.61743230E-06
   6.38520002        -1.90222818E-06
   6.39720011        -2.18986543E-06
   6.40920019        -2.47384946E-06
   6.42119980        -2.74930471E-06
   6.43319988        -3.01318414E-06
   6.44519997        -3.26437294E-06
   6.45720005        -3.50368396E-06
   6.46920013        -3.73374905E-06
   6.48120022        -3.95881352E-06
   6.49319983        -4.18444370E-06
   6.50519991        -4.41716884E-06
   6.51719999        -4.66406664E-06
   6.52920008        -4.93232892E-06
   6.54120016        -5.22881192E-06
   6.55319977        -5.55960378E-06
   6.56519985        -5.92962579E-06
   6.57719994        -6.34227899E-06
   6.58920002        -6.79916548E-06
   6.60120010        -7.29988005E-06
   6.61320019        -7.84189342E-06
   6.62519979        -8.42052941E-06
   6.63719988        -9.02903503E-06
   6.64919996        -9.65875097E-06
   6.66120005        -1.02993608E-05
   6.67320013        -1.09392304E-05
   6.68520021        -1.15657958E-05
   6.69719982        -1.21660123E-05
   6.70919991        -1.27268249E-05
   6.72119999        -1.32356436E-05
   6.73320007        -1.36808176E-05
   6.74520016        -1.40520742E-05
   6.75719976        -1.43409179E-05
   6.76919985        -1.45409658E-05
   6.78119993        -1.46482216E-05
   6.79320002        -1.46612656E-05
   6.80520010        -1.45813592E-05
   6.81720018        -1.44124670E-05
   6.82919979        -1.41611790E-05
   6.84119987        -1.38365522E-05
   6.85319996        -1.34498587E-05
   6.86520004        -1.30142680E-05
   6.87720013        -1.25444531E-05
   6.88920021        -1.20561435E-05
   6.90119982        -1.15656430E-05
   6.91319990        -1.10893225E-05
   6.92519999        -1.06430944E-05
   6.93720007        -1.02419071E-05
   6.94920015        -9.89924774E-06
   6.96120024        -9.62668764E-06
   6.97319984        -9.43347368E-06
   6.98519993        -9.32618696E-06
   6.99720001        -9.30846545E-06
   7.00920010        -9.38082303E-06
   7.02120018        -9.54056031E-06
   7.03319979        -9.78177195E-06
   7.04519987        -1.00954612E-05
   7.05719995        -1.04697665E-05
   7.06920004        -1.08902732E-05
   7.08120012        -1.13404412E-05
   7.09320021        -1.18020971E-05
   7.10519981        -1.22560023E-05
   7.11719990        -1.26824807E-05
   7.12919998        -1.30620674E-05
   7.14120007        -1.33761796E-05
   7.15320015        -1.36077679E-05
   7.16520023        -1.37419374E-05
   7.17719984        -1.37665202E-05
   7.18919992        -1.36725494E-05
   7.20120001        -1.34546453E-05
   7.21320009        -1.31112793E-05
   7.22520018        -1.26449022E-05
   7.23719978        -1.20619306E-05
   7.24919987        -1.13725873E-05
   7.26119995        -1.05905920E-05
   7.27320004        -9.73272381E-06
   7.28520012        -8.81824599E-06
   7.29720020        -7.86823603E-06
   7.30919981        -6.90483103E-06
   7.32119989        -5.95041593E-06
   7.33319998        -5.02678768E-06
   7.34520006        -4.15433169E-06
   7.35720015        -3.35123013E-06
   7.36920023        -2.63274910E-06
   7.38119984        -2.01062062E-06
   7.39319992        -1.49255368E-06
   7.40520000        -1.08189352E-06
   7.41720009        -7.77444882E-07
   7.42920017        -5.73469208E-07
   7.44119978        -4.59861212E-07
   7.45319986        -4.22500477E-07
   7.46519995        -4.43769267E-07
   7.47720003        -5.03221543E-07
   7.48920012        -5.78382242E-07
   7.50120020        -6.45649322E-07
   7.51319981        -6.81268887E-07
   7.52519989        -6.62347304E-07
   7.53719997        -5.67861832E-07
   7.54920006        -3.79631501E-07
   7.56120014        -8.32065368E-08
   7.57320023         3.31360752E-07
   7.58519983         8.68900145E-07
   7.59719992         1.52869063E-06
   7.60920000         2.30423825E-06
   7.62120008         3.18327761E-06
   7.63320017         4.14800616E-06
   7.64519978         5.17555191E-06
   7.65719986         6.23865844E-06
   7.66919994         7.30657121E-06
   7.68120003         8.34609091E-06
   7.69320011         9.32275361E-06
   7.70520020         1.02020995E-05
   7.71719980         1.09509656E-05
   7.72919989         1.15387538E-05
   7.74119997         1.19386259E-05
   7.75320005         1.21285575E-05
   7.76520014         1.20922205E-05
   7.77720022         1.18196340E-05
   7.78919983         1.13075757E-05
   7.80119991         1.05597210E-05
   7.81320000         9.58650344E-06
   7.82520008         8.40472148E-06
   7.83720016         7.03688193E-06
   7.84919977         5.51034782E-06
   7.86119986         3.85630392E-06
   7.87319994         2.10859889E-06
   7.88520002         3.02525251E-07
   7.89720011        -1.52642144E-06
   7.90920019        -3.34373635E-06
   7.92119980        -5.11701273E-06
   7.93319988        -6.81691199E-06
   7.94519997        -8.41796646E-06
   7.95720005        -9.89918499E-06
   7.96920013        -1.12444486E-05
   7.98120022        -1.24426888E-05
   7.99319983        -1.34878655E-05
   8.00520039        -1.43787383E-05
   8.01720047        -1.51184704E-05
   8.02919960        -1.57140930E-05
   8.04119968        -1.61758562E-05
   8.05319977        -1.65165075E-05
   8.06519985        -1.67505405E-05
   8.07719994        -1.68934366E-05
   8.08920002        -1.69609448E-05
   8.10120010        -1.69684245E-05
   8.11320019        -1.69302566E-05
   8.12520027        -1.68593633E-05
   8.13720036        -1.67668331E-05
   8.14920044        -1.66616464E-05
   8.16119957        -1.65505226E-05
   8.17319965        -1.64378671E-05
   8.18519974        -1.63258155E-05
   8.19719982        -1.62143751E-05
   8.20919991        -1.61016324E-05
   8.22119999        -1.59840420E-05
   8.23320007        -1.58567618E-05
   8.24520016        -1.57140257E-05
   8.25720024        -1.55495345E-05
   8.26920033        -1.53568744E-05
   8.28120041        -1.51299037E-05
   8.29319954        -1.48631498E-05
   8.30519962        -1.45521562E-05
   8.31719971        -1.41938053E-05
   8.32919979        -1.37865791E-05
   8.34119987        -1.33307594E-05
   8.35319996        -1.28285810E-05
   8.36520004        -1.22842748E-05
   8.37720013        -1.17040618E-05
   8.38920021        -1.10960427E-05
   8.40120029        -1.04700111E-05
   8.41320038        -9.83717928E-06
   8.42520046        -9.20982438E-06
   8.43719959        -8.60087675E-06
   8.44919968        -8.02344584E-06
   8.46119976        -7.49032097E-06
   8.47319984        -7.01344879E-06
   8.48519993        -6.60343312E-06
   8.49720001        -6.26905603E-06
   8.50920010        -6.01686315E-06
   8.52120018        -5.85082262E-06
   8.53320026        -5.77208857E-06
   8.54520035        -5.77886794E-06
   8.55720043        -5.86642454E-06
   8.56919956        -6.02720411E-06
   8.58119965        -6.25108851E-06
   8.59319973        -6.52578274E-06
   8.60519981        -6.83729695E-06
   8.61719990        -7.17052808E-06
   8.62919998        -7.50990603E-06
   8.64120007        -7.84007079E-06
   8.65320015        -8.14657051E-06
   8.66520023        -8.41651854E-06
   8.67720032        -8.63921105E-06
   8.68920040        -8.80665175E-06
   8.70119953        -8.91397031E-06
   8.71319962        -8.95971061E-06
   8.72519970        -8.94597360E-06
   8.73719978        -8.87839997E-06
   8.74919987        -8.76599643E-06
   8.76119995        -8.62079924E-06
   8.77320004        -8.45739669E-06
   8.78520012        -8.29231158E-06
   8.79720020        -8.14328541E-06
   8.80920029        -8.02846534E-06
   8.82120037        -7.96556014E-06
   8.83320045        -7.97097073E-06
   8.84519958        -8.05894342E-06
   8.85719967        -8.24078597E-06
   8.86919975        -8.52417361E-06
   8.88119984        -8.91258333E-06
   8.89319992        -9.40487735E-06
   8.90520000        -9.99506756E-06
   8.91720009        -1.06722682E-05
   8.92920017        -1.14208506E-05
   8.94120026        -1.22208030E-05
   8.95320034        -1.30482858E-05
   8.96520042        -1.38763689E-05
   8.97719955        -1.46759285E-05
   8.98919964        -1.54166701E-05
   9.00119972        -1.60682448E-05
   9.01319981        -1.66014015E-05
   9.02519989        -1.69891628E-05
   9.03719997        -1.72079253E-05
   9.04920006        -1.72384880E-05
   9.06120014        -1.70669464E-05
   9.07320023        -1.66853988E-05
   9.08520031        -1.60924646E-05