 -0.622799993       0.00000000    
 -0.610800028       0.00000000    
 -0.598800004       0.00000000    
 -0.586799979       0.00000000    
 -0.574800014       0.00000000    
 -0.562799990       0.00000000    
 -0.550800025       0.00000000    
 -0.538800001       0.00000000    
 -0.526799977       0.00000000    
 -0.514800012       0.00000000    
 -0.502799988      -1.59364329E-34
 -0.490799993      -2.77942003E-33
 -0.478799999      -2.58621923E-32
 -0.466800004      -1.73099866E-31
 -0.454800010      -9.42373226E-31
 -0.442799985      -4.42934961E-30
 -0.430799991      -1.84575875E-29
 -0.418799996      -6.88205667E-29
 -0.406800002      -2.29968169E-28
 -0.394800007      -6.87844291E-28
 -0.382800013      -1.83599017E-27
 -0.370799989      -4.34627153E-27
 -0.358799994      -9.00526709E-27
 -0.346799999      -1.58489752E-26
 -0.334800005      -2.18640488E-26
 -0.322800010      -1.66155461E-26
 -0.310799986       2.36700704E-26
 -0.298799992       1.39866062E-25
 -0.286799997       3.82242133E-25
 -0.274800003       7.75429020E-25
 -0.262800008       1.23791840E-24
 -0.250800014       1.45004990E-24
 -0.238800004       7.03677930E-25
 -0.226799995      -2.15904741E-24
 -0.214800000      -8.51276606E-24
 -0.202800006      -1.91447217E-23
 -0.190799996      -3.26516313E-23
 -0.178800002      -4.31092195E-23
 -0.166800007      -3.77362532E-23
 -0.154799998       3.75891235E-24
 -0.142800003       1.05484265E-22
 -0.130799994       2.84335081E-22
 -0.118799999       5.29936915E-22
 -0.106799997       7.77709366E-22
  -9.48000029E-02   8.83854500E-22
  -8.28000009E-02   6.19321090E-22
  -7.07999989E-02  -2.93739616E-22
  -5.88000007E-02  -2.08030936E-21
  -4.67999987E-02  -4.73726216E-21
  -3.48000005E-02  -7.80827641E-21
  -2.28000004E-02  -1.01805012E-20
  -1.08000003E-02  -1.00262740E-20
   1.20000006E-03  -5.04502949E-21
   1.31999999E-02   6.85902364E-21
   2.52000000E-02   2.64287922E-20
   3.72000001E-02   5.15951258E-20
   4.91999984E-02   7.61290765E-20
   6.12000003E-02   8.90876105E-20
   7.32000023E-02   7.58716877E-20
   8.51999968E-02   2.15897468E-20
   9.71999988E-02  -8.30843342E-20
  0.109200001      -2.34271612E-19
  0.121200003      -4.07351917E-19
  0.133200005      -5.52543931E-19
  0.145199999      -5.97230916E-19
  0.157199994      -4.58247513E-19
  0.169200003      -6.54965486E-20
  0.181199998       6.05087168E-19
  0.193200007       1.49564150E-18
  0.205200002       2.43845938E-18
  0.217199996       3.15000055E-18
  0.229200006       3.26063410E-18
  0.241200000       2.38908538E-18
  0.253199995       2.60397232E-19
  0.265199989      -3.14855216E-18
  0.277200013      -7.46879904E-18
  0.289200008      -1.18517379E-17
  0.301200002      -1.49884052E-17
  0.313199997      -1.52826267E-17
  0.325199991      -1.11996690E-17
  0.337199986      -1.76737271E-18
  0.349200010       1.28524453E-17
  0.361200005       3.08665423E-17
  0.373199999       4.86173453E-17
  0.385199994       6.08129422E-17
  0.397199988       6.13658959E-17
  0.409200013       4.48620214E-17
  0.421200007       8.48903947E-18
  0.433200002      -4.59702614E-17
  0.445199996      -1.10676144E-16
  0.457199991      -1.71492858E-16
  0.469199985      -2.09574639E-16
  0.481200010      -2.05052396E-16
  0.493200004      -1.42536957E-16
  0.505200028      -1.74544771E-17
  0.517199993       1.58437142E-16
  0.529200017       3.54390803E-16
  0.541199982       5.22783229E-16
  0.553200006       6.07104565E-16
  0.565199971       5.55461602E-16
  0.577199996       3.37348077E-16
  0.589200020      -4.03765187E-17
  0.601199985      -5.23479279E-16
  0.613200009      -1.01130133E-15
  0.625199974      -1.37178532E-15
  0.637199998      -1.47025396E-15
  0.649200022      -1.20722026E-15
  0.661199987      -5.56348869E-16
  0.673200011       4.08820505E-16
  0.685199976       1.51033270E-15
  0.697200000       2.49037957E-15
  0.709200025       3.06463487E-15
  0.721199989       2.99512968E-15
  0.733200014       2.16536117E-15
  0.745199978       6.35918138E-16
  0.757200003      -1.33961860E-15
  0.769200027      -3.35054216E-15
  0.781199992      -4.91509206E-15
  0.793200016      -5.59948833E-15
  0.805199981      -5.13965913E-15
  0.817200005      -3.52978534E-15
  0.829200029      -1.04677592E-15
  0.841199994       1.80444953E-15
  0.853200018       4.41690158E-15
  0.865199983       6.24679345E-15
  0.877200007       6.96943961E-15
  0.889199972       6.57415474E-15
  0.901199996       5.36063520E-15
  0.913200021       3.82818912E-15
  0.925199986       2.48509260E-15
  0.937200010       1.63696073E-15
  0.949199975       1.22869403E-15
  0.961199999       8.06484739E-16
  0.973200023      -3.66056035E-16
  0.985199988      -3.05270971E-15
  0.997200012      -7.71648709E-15
   1.00919998      -1.42201873E-14
   1.02119994      -2.16631997E-14
   1.03320003      -2.84322296E-14
   1.04519999      -3.24839710E-14
   1.05719995      -3.18053790E-14
   1.06920004      -2.49352303E-14
   1.08120000      -1.14017530E-14
   1.09319997       8.05188673E-15
   1.10520005       3.15215315E-14
   1.11720002       5.62555848E-14
   1.12919998       7.91244647E-14
   1.14119995       9.70926627E-14
   1.15320003       1.07546222E-13
   1.16520000       1.08393153E-13
   1.17719996       9.79584930E-14
   1.18920004       7.48022792E-14
   1.20120001       3.76542974E-14
   1.21319997      -1.43489160E-14
   1.22520006      -8.10335482E-14
   1.23720002      -1.60232057E-13
   1.24919999      -2.46744357E-13
   1.26119995      -3.31591498E-13
   1.27320004      -4.01965977E-13
   1.28520000      -4.42182125E-13
   1.29719996      -4.35707162E-13
   1.30920005      -3.68065685E-13
   1.32120001      -2.30133295E-13
   1.33319998      -2.11601315E-14
   1.34519994       2.49152993E-13
   1.35720003       5.60042572E-13
   1.36919999       8.80756893E-13
   1.38119996       1.17319175E-12
   1.39320004       1.39566668E-12
   1.40520000       1.50725786E-12
   1.41719997       1.47212700E-12
   1.42920005       1.26344681E-12
   1.44120002       8.66781202E-13
   1.45319998       2.82977363E-13
   1.46519995      -4.69294362E-13
   1.47720003      -1.35133669E-12
   1.48920000      -2.30283024E-12
   1.50119996      -3.24147415E-12
   1.51320004      -4.06478930E-12
   1.52520001      -4.65506453E-12
   1.53719997      -4.88820009E-12
   1.54920006      -4.64659431E-12
   1.56120002      -3.83543241E-12
   1.57319999      -2.40080026E-12
   1.58519995      -3.47303973E-13
   1.59720004       2.24756715E-12
   1.60920000       5.22511808E-12
   1.62119997       8.34548056E-12
   1.63320005       1.12975107E-11
   1.64520001       1.37189791E-11
   1.65719998       1.52263722E-11
   1.66919994       1.54525767E-11
   1.68120003       1.40897493E-11
   1.69319999       1.09339725E-11
   1.70519996       5.92766374E-12
   1.71720004      -8.04759146E-13
   1.72920001      -8.93267404E-12
   1.74119997      -1.79111986E-11
   1.75320005      -2.69934110E-11
   1.76520002      -3.52658874E-11
   1.77719998      -4.17087961E-11
   1.78919995      -4.52792699E-11
   1.80120003      -4.50141383E-11
   1.81320000      -4.01449256E-11
   1.82519996      -3.02154551E-11
   1.83720005      -1.51904201E-11
   1.84920001       4.45792752E-12
   1.86119998       2.76976150E-11
   1.87320006       5.29308646E-11
   1.88520002       7.80431691E-11
   1.89719999       1.00513251E-10
   1.90919995       1.17584970E-10
   1.92120004       1.26496688E-10
   1.93320000       1.24757399E-10
   1.94519997       1.10451155E-10
   1.95720005       8.25447696E-11
   1.96920002       4.11667124E-11
   1.98119998      -1.21789176E-11
   1.99319994      -7.45005863E-11
   2.00519991      -1.41343562E-10
   2.01719999      -2.06974701E-10
   2.02920008      -2.64738426E-10
   2.04119992      -3.07574993E-10
   2.05320001      -3.28672201E-10
   2.06520009      -3.22199711E-10
   2.07719994      -2.84058305E-10
   2.08920002      -2.12565826E-10
   2.10120010      -1.08997693E-10
   2.11319995       2.20926819E-11
   2.12520003       1.72832998E-10
   2.13720012       3.32307570E-10
   2.14919996       4.87157981E-10
   2.16120005       6.22487784E-10
   2.17319989       7.23021532E-10
   2.18519998       7.74441788E-10
   2.19720006       7.64805441E-10
   2.20919991       6.85927648E-10
   2.22119999       5.34609412E-10
   2.23320007       3.13587295E-10
   2.24519992       3.20886928E-11
   2.25720000      -2.94104519E-10
   2.26920009      -6.43153697E-10
   2.28119993      -9.88252924E-10
   2.29320002      -1.29929378E-09
   2.30520010      -1.54503221E-09
   2.31719995      -1.69562986E-09
   2.32920003      -1.72539016E-09
   2.34120011      -1.61546598E-09
   2.35319996      -1.35629752E-09
   2.36520004      -9.49535450E-10
   2.37719989      -4.09227346E-10
   2.38919997       2.37903697E-10
   2.40120006       9.53193191E-10
   2.41319990       1.68780667E-09
   2.42519999       2.38548625E-09
   2.43720007       2.98612823E-09
   2.44919991       3.42997586E-09
   2.46120000       3.66215436E-09
   2.47320008       3.63724273E-09
   2.48519993       3.32356143E-09
   2.49720001       2.70685852E-09
   2.50920010       1.79310478E-09
   2.52119994       6.10152706E-10
   2.53320003      -7.91929522E-10
   2.54520011      -2.34196817E-09
   2.55719995      -3.95026944E-09
   2.56920004      -5.51263302E-09
   2.58119988      -6.91564317E-09
   2.59319997      -8.04301070E-09
   2.60520005      -8.78264661E-09
   2.61719990      -9.03411035E-09
   2.62919998      -8.71599060E-09
   2.64120007      -7.77280462E-09
   2.65319991      -6.18095841E-09
   2.66520000      -3.95336297E-09
   2.67720008      -1.14231047E-09
   2.68919992       2.15970974E-09
   2.70120001       5.82154192E-09
   2.71320009       9.67746416E-09
   2.72519994       1.35340086E-08
   2.73720002       1.71796088E-08
   2.74920011       2.03970831E-08
   2.76119995       2.29788899E-08
   2.77320004       2.47450274E-08
   2.78520012       2.55633044E-08
   2.79719996       2.53716568E-08
   2.80920005       2.42020342E-08
   2.82119989       2.22053327E-08
   2.83319998       1.96767083E-08
   2.84520006       1.70805610E-08
   2.85719991       1.50744306E-08
   2.86919999       1.45309880E-08
   2.88120008       1.65572480E-08
   2.89319992       2.25101928E-08
   2.90520000       3.40079076E-08
   2.91720009       5.29353805E-08
   2.92919993       8.14441705E-08
   2.94120002       1.21945078E-07
   2.95320010       1.77093085E-07
   2.96519995       2.49763843E-07
   2.97720003       3.43021128E-07
   2.98920012       4.60074517E-07
   3.00119996       6.04227012E-07
   3.01320004       7.78812137E-07
   3.02519989       9.87120416E-07
   3.03719997       1.23231530E-06
   3.04920006       1.51733843E-06
   3.06119990       1.84480632E-06
   3.07319999       2.21689743E-06
   3.08520007       2.63523407E-06
   3.09719992       3.10075984E-06
   3.10920000       3.61361640E-06
   3.12120008       4.17302408E-06
   3.13319993       4.77717049E-06
   3.14520001       5.42311409E-06
   3.15720010       6.10670622E-06
   3.16919994       6.82254222E-06
   3.18120003       7.56393865E-06
   3.19320011       8.32295609E-06
   3.20519996       9.09045957E-06
   3.21720004       9.85622682E-06
   3.22919989       1.06091029E-05
   3.24119997       1.13372089E-05
   3.25320005       1.20281829E-05
   3.26519990       1.26694804E-05
   3.27719998       1.32486939E-05
   3.28920007       1.37539018E-05
   3.30119991       1.41740338E-05
   3.31320000       1.44992327E-05
   3.32520008       1.47212013E-05
   3.33719993       1.48335275E-05
   3.34920001       1.48319605E-05
   3.36120009       1.47146247E-05
   3.37319994       1.44821797E-05
   3.38520002       1.41378860E-05
   3.39720011       1.36875951E-05
   3.40919995       1.31396455E-05
   3.42120004       1.25046699E-05
   3.43319988       1.17953223E-05
   3.44519997       1.10259289E-05
   3.45720005       1.02120675E-05
   3.46919990       9.37010827E-06
   3.48119998       8.51671666E-06
   3.49320006       7.66834819E-06
   3.50519991       6.84074621E-06
   3.51719999       6.04847719E-06
   3.52920008       5.30450416E-06
   3.54119992       4.61983291E-06
   3.55320001       4.00323188E-06
   3.56520009       3.46104548E-06
   3.57719994       2.99710337E-06
   3.58920002       2.61272544E-06
   3.60120010       2.30682804E-06
   3.61319995       2.07611515E-06
   3.62520003       1.91534969E-06
   3.63720012       1.81768621E-06
   3.64919996       1.77505069E-06
   3.66120005       1.77854656E-06
   3.67319989       1.81886674E-06
   3.68519998       1.88669424E-06
   3.69720006       1.97307145E-06
   3.70919991       2.06972322E-06
   3.72119999       2.16932222E-06
   3.73320007       2.26568454E-06
   3.74519992       2.35389643E-06
   3.75720000       2.43036448E-06
   3.76920009       2.49279856E-06
   3.78119993       2.54013025E-06
   3.79320002       2.57237912E-06
   3.80520010       2.59047829E-06
   3.81719995       2.59607123E-06
   3.82920003       2.59129843E-06
   3.84120011       2.57858164E-06
   3.85319996       2.56042244E-06
   3.86520004       2.53922622E-06
   3.87719989       2.51715574E-06
   3.88919997       2.49602226E-06
   3.90120006       2.47721914E-06
   3.91319990       2.46169157E-06
   3.92519999       2.44994476E-06
   3.93720007       2.44208218E-06
   3.94919991       2.43786781E-06
   3.96120000       2.43680438E-06
   3.97320008       2.43821933E-06
   3.98519993       2.44135094E-06
   3.99720001       2.44542639E-06
   4.00920010       2.44972443E-06
   4.02120018       2.45362207E-06
   4.03319979       2.45661727E-06
   4.04519987       2.45832985E-06
   4.05719995       2.45848128E-06
   4.06920004       2.45685555E-06
   4.08120012       2.45324759E-06
   4.09320021       2.44740318E-06
   4.10519981       2.43895806E-06
   4.11719990       2.42738543E-06
   4.12919998       2.41195403E-06
   4.14120007       2.39170959E-06
   4.15320015       2.36547794E-06
   4.16520023       2.33189780E-06
   4.17719984       2.28948352E-06
   4.18919992       2.23671736E-06
   4.20120001       2.17216643E-06
   4.21320009       2.09462155E-06
   4.22520018       2.00324985E-06
   4.23719978       1.89774983E-06
   4.24919987       1.77850382E-06
   4.26119995       1.64670996E-06
   4.27320004       1.50448568E-06
   4.28520012       1.35492928E-06
   4.29720020       1.20212940E-06
   4.30919981       1.05111508E-06
   4.32119989       9.07739945E-07
   4.33319998       7.78503022E-07
   4.34520006       6.70303507E-07
   4.35720015       5.90142520E-07
   4.36920023       5.44781244E-07
   4.38119984       5.40371502E-07
   4.39319992       5.82080361E-07
   4.40520000       6.73727413E-07
   4.41720009       8.17458897E-07
   4.42920017       1.01348257E-06
   4.44119978       1.25988129E-06
   4.45319986       1.55252701E-06
   4.46519995       1.88510444E-06
   4.47720003       2.24925498E-06
   4.48920012       2.63483798E-06
   4.50120020       3.03030379E-06
   4.51319981       3.42316707E-06
   4.52519989       3.80055189E-06
   4.53719997       4.14978831E-06
   4.54920006       4.45902742E-06
   4.56120014       4.71783915E-06
   4.57320023       4.91775972E-06
   4.58519983       5.05275557E-06
   4.59719992       5.11957887E-06
   4.60920000       5.11798498E-06
   4.62120008       5.05079424E-06
   4.63320017       4.92380377E-06
   4.64519978       4.74552689E-06
   4.65719986       4.52679342E-06
   4.66919994       4.28021212E-06
   4.68120003       4.01952866E-06
   4.69320011       3.75891614E-06
   4.70520020       3.51222411E-06
   4.71719980       3.29223940E-06
   4.72919989       3.10999167E-06
   4.74119997       2.97414385E-06
   4.75320005       2.89050490E-06
   4.76520014       2.86168893E-06
   4.77720022       2.88694287E-06
   4.78919983       2.96215580E-06
   4.80119991       3.08004815E-06
   4.81320000       3.23053337E-06
   4.82520008       3.40123347E-06
   4.83720016       3.57812678E-06
   4.84919977       3.74628394E-06
   4.86119986       3.89066281E-06
   4.87319994       3.99691271E-06
   4.88520002       4.05215178E-06
   4.89720011       4.04567163E-06
   4.90920019       3.96953283E-06
   4.92119980       3.81902146E-06
   4.93319988       3.59294268E-06
   4.94519997       3.29373211E-06
   4.95720005       2.92738559E-06
   4.96920013       2.50320795E-06
   4.98120022       2.03339414E-06
   4.99319983       1.53246583E-06
   5.00519991       1.01659282E-06
   5.01719999       5.02835519E-07
   5.02920008       8.34651992E-09
   5.04120016      -4.50426171E-07
   5.05319977      -8.58495412E-07
   5.06519985      -1.20301365E-06
   5.07719994      -1.47384048E-06
   5.08920002      -1.66397297E-06
   5.10120010      -1.76982189E-06
   5.11320019      -1.79132235E-06
   5.12519979      -1.73187823E-06
   5.13719988      -1.59814579E-06
   5.14919996      -1.39967449E-06
   5.16120005      -1.14842123E-06
   5.17320013      -8.58171347E-07
   5.18520021      -5.43894487E-07
   5.19719982      -2.21070479E-07
   5.20919991       9.49805141E-08
   5.22119999       3.89727944E-07
   5.23320007       6.49994774E-07
   5.24520016       8.64424351E-07
   5.25719976       1.02383797E-06
   5.26919985       1.12146643E-06
   5.28119993       1.15305409E-06
   5.29320002       1.11683767E-06
   5.30520010       1.01341027E-06
   5.31720018       8.45488216E-07
   5.32919979       6.17596015E-07
   5.34119987       3.35698758E-07
   5.35319996       6.80493617E-09
   5.36520004      -3.61436093E-07
   5.37720013      -7.61115473E-07
   5.38920021      -1.18440482E-06
   5.40119982      -1.62383685E-06
   5.41319990      -2.07251651E-06
   5.42519999      -2.52425525E-06
   5.43720007      -2.97362703E-06
   5.44920015      -3.41595069E-06
   5.46120024      -3.84720943E-06
   5.47319984      -4.26391534E-06
   5.48519993      -4.66294296E-06
   5.49720001      -5.04133777E-06
   5.50920010      -5.39612847E-06
   5.52120018      -5.72415138E-06
   5.53319979      -6.02190812E-06
   5.54519987      -6.28546422E-06
   5.55719995      -6.51040727E-06
   5.56920004      -6.69186466E-06
   5.58120012      -6.82458176E-06
   5.59320021      -6.90306661E-06
   5.60519981      -6.92179356E-06
   5.61719990      -6.87544934E-06
   5.62919998      -6.75921910E-06
   5.64120007      -6.56909697E-06
   5.65320015      -6.30220165E-06
   5.66520023      -5.95708389E-06
   5.67719984      -5.53399968E-06
   5.68919992      -5.03514821E-06
   5.70120001      -4.46483818E-06
   5.71320009      -3.82959570E-06
   5.72520018      -3.13818077E-06
   5.73719978      -2.40150825E-06
   5.74919987      -1.63247910E-06
   5.76119995      -8.45719569E-07
   5.77320004      -5.72277834E-08
   5.78520012       7.16047339E-07
   5.79720020       1.45670924E-06
   5.80919981       2.14743591E-06
   5.82119989       2.77155982E-06
   5.83319998       3.31363117E-06
   5.84520006       3.75996660E-06
   5.85720015       4.09916674E-06
   5.86920023       4.32256820E-06
   5.88119984       4.42460805E-06
   5.89319992       4.40309168E-06
   5.90520000       4.25934377E-06
   5.91720009       3.99824012E-06
   5.92920017       3.62810624E-06
   5.94119978       3.16049591E-06
   5.95319986       2.60984439E-06
   5.96519995       1.99300848E-06
   5.97720003       1.32871332E-06
   5.98920012       6.36929599E-07
   6.00120020      -6.18071709E-08
   6.01319981      -7.47101240E-07
   6.02519989      -1.39939584E-06
   6.03719997      -2.00065119E-06
   6.04920006      -2.53496296E-06
   6.06120014      -2.98910368E-06
   6.07320023      -3.35296113E-06
   6.08519983      -3.61985485E-06
   6.09719992      -3.78671984E-06
   6.10920000      -3.85414523E-06
   6.12120008      -3.82627150E-06
   6.13320017      -3.71054375E-06
   6.14519978      -3.51733684E-06
   6.15719986      -3.25946803E-06
   6.16919994      -2.95161567E-06
   6.18120003      -2.60967840E-06
   6.19320011      -2.25009467E-06
   6.20520020      -1.88916420E-06
   6.21719980      -1.54239387E-06
   6.22919989      -1.22390281E-06
   6.24119997      -9.45908084E-07
   6.25320005      -7.18316755E-07
   6.26520014      -5.48439800E-07
   6.27720022      -4.40833333E-07
   6.28919983      -3.97276608E-07
   6.30119991      -4.16877583E-07
   6.31320000      -4.96305006E-07
   6.32520008      -6.30122258E-07
   6.33720016      -8.11210839E-07
   6.34919977      -1.03125376E-06
   6.36119986      -1.28125703E-06
   6.37319994      -1.55207795E-06
   6.38520002      -1.83493614E-06
   6.39720011      -2.12188047E-06
   6.40920019      -2.40619215E-06
   6.42119980      -2.68270696E-06
   6.43319988      -2.94804136E-06
   6.44519997      -3.20071786E-06
   6.45720005      -3.44118371E-06
   6.46920013      -3.67172584E-06
   6.48120022      -3.89628849E-06
   6.49319983      -4.12020063E-06
   6.50519991      -4.34983349E-06
   6.51719999      -4.59219882E-06
   6.52920008      -4.85451483E-06
   6.54120016      -5.14375824E-06
   6.55319977      -5.46622232E-06
   6.56519985      -5.82710709E-06
   6.57719994      -6.23015967E-06
   6.58920002      -6.67737322E-06
   6.60120010      -7.16877094E-06
   6.61320019      -7.70226961E-06
   6.62519979      -8.27363692E-06
   6.63719988      -8.87654551E-06
   6.64919996      -9.50271624E-06
   6.66120005      -1.01421510E-05
   6.67320013      -1.07834485E-05
   6.68520021      -1.14141803E-05
   6.69719982      -1.20213317E-05
   6.70919991      -1.25917668E-05
   6.72119999      -1.31127135E-05
   6.73320007      -1.35722421E-05
   6.74520016      -1.39597223E-05
   6.75719976      -1.42662302E-05
   6.76919985      -1.44849137E-05
   6.78119993      -1.46112670E-05
   6.79320002      -1.46433476E-05
   6.80520010      -1.45818931E-05
   6.81720018      -1.44303667E-05
   6.82919979      -1.41948949E-05
   6.84119987      -1.38841260E-05
   6.85319996      -1.35089986E-05
   6.86520004      -1.30824355E-05
   6.87720013      -1.26189552E-05
   6.88920021      -1.21342346E-05
   6.90119982      -1.16446208E-05
   6.91319990      -1.11666168E-05
   6.92519999      -1.07163496E-05
   6.93720007      -1.03090460E-05
   6.94920015      -9.95852770E-06
   6.96120024      -9.67673805E-06
   6.97319984      -9.47332501E-06
   6.98519993      -9.35527441E-06
   6.99720001      -9.32663352E-06
   7.00920010      -9.38830817E-06
   7.02120018      -9.53795552E-06
   7.03319979      -9.76999308E-06
   7.04519987      -1.00756979E-05
   7.05719995      -1.04434257E-05
   7.06920004      -1.08589302E-05
   7.08120012      -1.13057786E-05
   7.09320021      -1.17658592E-05
   7.10519981      -1.22199544E-05
   7.11719990      -1.26483656E-05
   7.12919998      -1.30315766E-05
   7.14120007      -1.33509193E-05
   7.15320015      -1.35892369E-05
   7.16520023      -1.37315028E-05
   7.17719984      -1.37653906E-05
   7.18919992      -1.36817534E-05
   7.20120001      -1.34750126E-05
   7.21320009      -1.31434190E-05
   7.22520018      -1.26891873E-05
   7.23719978      -1.21184867E-05
   7.24919987      -1.14412796E-05
   7.26119995      -1.06710186E-05
   7.27320004      -9.82420988E-06
   7.28520012      -8.91985201E-06
   7.29720020      -7.97876328E-06
   7.30919981      -7.02284206E-06
   7.32119989      -6.07426591E-06
   7.33319998      -5.15467173E-06
   7.34520006      -4.28434078E-06
   7.35720015      -3.48142612E-06
   7.36920023      -2.76124433E-06
   7.38119984      -2.13566591E-06
   7.39319992      -1.61262574E-06
   7.40520000      -1.19577646E-06
   7.41720009      -8.84300164E-07
   7.42920017      -6.72890451E-07
   7.44119978      -5.51907419E-07
   7.45319986      -5.07706943E-07
   7.46519995      -5.23134077E-07
   7.47720003      -5.78167601E-07
   7.48920012      -6.50694517E-07
   7.50120020      -7.17389526E-07
   7.51319981      -7.54669031E-07
   7.52519989      -7.39686129E-07
   7.53719997      -6.51328207E-07
   7.54920006      -4.71181266E-07
   7.56120014      -1.84418852E-07
   7.57320023       2.19417970E-07
   7.58519983       7.45786963E-07
   7.59719992       1.39468762E-06
   7.60920000       2.16040485E-06
   7.62120008       3.03147294E-06
   7.63320017       3.99086866E-06
   7.64519978       5.01643444E-06
   7.65719986       6.08152732E-06
   7.66919994       7.15586611E-06
   7.68120003       8.20655805E-06
   7.69320011       9.19926333E-06
   7.70520020       1.00994439E-05
   7.71719980       1.08736622E-05
   7.72919989       1.14908626E-05
   7.74119997       1.19235710E-05
   7.75320005       1.21489884E-05
   7.76520014       1.21498924E-05
   7.77720022       1.19153337E-05
   7.78919983       1.14410805E-05
   7.80119991       1.07298019E-05
   7.81320000       9.79097331E-06
   7.82520008       8.64051617E-06
   7.83720016       7.30018564E-06
   7.84919977       5.79674224E-06
   7.86119986       4.16093917E-06
   7.87319994       2.42637566E-06
   7.88520002       6.28277633E-07
   7.89720011      -1.19775177E-06
   7.90920019      -3.01694718E-06
   7.92119980      -4.79650907E-06
   7.93319988      -6.50660650E-06
   7.94519997      -8.12120470E-06
   7.95720005      -9.61870319E-06
   7.96920013      -1.09823613E-05
   7.98120022      -1.22005031E-05
   7.99319983      -1.32665082E-05
   8.00520039      -1.41786113E-05
   8.01720047      -1.49395191E-05
   8.02919960      -1.55558828E-05
   8.04119968      -1.60376585E-05
   8.05319977      -1.63973818E-05
   8.06519985      -1.66494119E-05
   8.07719994      -1.68091701E-05
   8.08920002      -1.68923925E-05
   8.10120010      -1.69144641E-05
   8.11320019      -1.68898205E-05
   8.12520027      -1.68314436E-05
   8.13720036      -1.67504859E-05
   8.14920044      -1.66559930E-05
   8.16119957      -1.65547317E-05
   8.17319965      -1.64511493E-05
   8.18519974      -1.63474178E-05
   8.19719982      -1.62435699E-05
   8.20919991      -1.61377193E-05
   8.22119999      -1.60263462E-05
   8.23320007      -1.59046340E-05
   8.24520016      -1.57668510E-05
   8.25720024      -1.56067435E-05
   8.26920033      -1.54179597E-05
   8.28120041      -1.51944350E-05
   8.29319954      -1.49307862E-05
   8.30519962      -1.46226603E-05
   8.31719971      -1.42670351E-05
   8.32919979      -1.38624819E-05
   8.34119987      -1.34093589E-05
   8.35319996      -1.29099371E-05
   8.36520004      -1.23684604E-05
   8.37720013      -1.17911186E-05
   8.38920021      -1.11859399E-05
   8.40120029      -1.05626023E-05
   8.41320038      -9.93215963E-06
   8.42520046      -9.30669830E-06
   8.43719959      -8.69892028E-06
   8.44919968      -8.12169492E-06
   8.46119976      -7.58756141E-06
   8.47319984      -7.10823360E-06
   8.48519993      -6.69411338E-06
   8.49720001      -6.35383458E-06
   8.50920010      -6.09386598E-06
   8.52120018      -5.91818616E-06
   8.53320026      -5.82805069E-06
   8.54520035      -5.82186658E-06
   8.55720043      -5.89518595E-06
   8.56919956      -6.04082197E-06
   8.58119965      -6.24909353E-06
   8.59319973      -6.50818492E-06
   8.60519981      -6.80461198E-06
   8.61719990      -7.12378051E-06
   8.62919998      -7.45060743E-06
   8.64120007      -7.77017704E-06
   8.65320015      -8.06840580E-06
   8.66520023      -8.33268950E-06
   8.67720032      -8.55248891E-06
   8.68920040      -8.71984776E-06
   8.70119953      -8.82979839E-06
   8.71319962      -8.88065097E-06
   8.72519970      -8.87414080E-06
   8.73719978      -8.81543019E-06
   8.74919987      -8.71295288E-06
   8.76119995      -8.57811392E-06
   8.77320004      -8.42483405E-06
   8.78520012      -8.26898122E-06
   8.79720020      -8.12767757E-06
   8.80920029      -8.01853821E-06
   8.82120037      -7.95884262E-06
   8.83320045      -7.96470158E-06
   8.84519958      -8.05022955E-06
   8.85719967      -8.22677521E-06
   8.86919975      -8.50223296E-06
   8.88119984      -8.88047180E-06
   8.89319992      -9.36090873E-06
   8.90520000      -9.93825051E-06
   8.91720009      -1.06024136E-05
   8.92920017      -1.13386486E-05
   8.94120026      -1.21278545E-05
   8.95320034      -1.29470891E-05
   8.96520042      -1.37702582E-05
   8.97719955      -1.45689646E-05
   8.98919964      -1.53134915E-05
   9.00119972      -1.59738793E-05
   9.01319981      -1.65210568E-05
   9.02519989      -1.69279865E-05
   9.03719997      -1.71707652E-05
   9.04920006      -1.72296568E-05
   9.06120014      -1.70899930E-05
   9.07320023      -1.67429098E-05
   9.08520031      -1.61859007E-05
   9.09720039      -1.54231348E-05
   9.10919952      -1.44655560E-05
   9.12119961      -1.33307258E-05
   9.13319969      -1.20424265E-05
   9.14519978      -1.06300286E-05
   9.15719986      -9.12763244E-06
   9.16919994      -7.57302996E-06
   9.18120003      -6.00649309E-06
   9.19320011      -4.46945205E-06
   9.20520020      -3.00310103E-06
   9.21720028      -1.64698258E-06
   9.22920036      -4.37609572E-07
   9.24120045       5.92826552E-07
   9.25319958       1.41760586E-06
   9.26519966       2.01644434E-06
   9.27719975       2.37623021E-06
   9.28919983       2.49150230E-06
   9.30119991       2.36464894E-06
   9.31320000       2.00581326E-06
   9.32520008       1.43251077E-06
   9.33720016       6.68965811E-07
   9.34920025      -2.54804974E-07
   9.36120033      -1.30412775E-06
   9.37320042      -2.44097873E-06
   9.38519955      -3.62540914E-06
   9.39719963      -4.81702500E-06
   9.40919971      -5.97646522E-06
   9.42119980      -7.06680657E-06
   9.43319988      -8.05484160E-06
   9.44519997      -8.91218224E-06
