 -0.622799993         1.00000002E-24
 -0.610800028         1.00000002E-24
 -0.598800004         1.00000002E-24
 -0.586799979         1.00000002E-24
 -0.574800014         1.00000002E-24
 -0.562799990         1.00000002E-24
 -0.550800025         1.00000002E-24
 -0.538800001         1.00000012E-24
 -0.526799977         1.00000022E-24
 -0.514800012         1.00000032E-24
 -0.502799988         1.00000032E-24
 -0.490799993         1.00000041E-24
 -0.478799999         1.00000051E-24
 -0.466800004         1.00000110E-24
 -0.454800010         1.00000406E-24
 -0.442799985         1.00001402E-24
 -0.430799991         1.00004183E-24
 -0.418799996         1.00010277E-24
 -0.406800002         1.00020236E-24
 -0.394800007         1.00028993E-24
 -0.382800013         1.00017258E-24
 -0.370799989         9.99445056E-25
 -0.358799994         9.97656807E-25
 -0.346799999         9.95219522E-25
 -0.334800005         9.95798053E-25
 -0.322800010         1.01065073E-24
 -0.310799986         1.06365705E-24
 -0.298799992         1.19147392E-24
 -0.286799997         1.42604289E-24
 -0.274800003         1.73881510E-24
 -0.262800008         1.92487642E-24
 -0.250800014         1.42410880E-24
 -0.238800004        -8.67733191E-25
 -0.226799995        -6.64339132E-24
 -0.214800000        -1.77989440E-23
 -0.202800006        -3.52422631E-23
 -0.190799996        -5.65939731E-23
 -0.178800002        -7.28927166E-23
 -0.166800007        -6.52978794E-23
 -0.154799998        -4.08180140E-24
 -0.142800003         1.46485664E-22
 -0.130799994         4.13310128E-22
 -0.118799999         7.87325441E-22
 -0.106799997         1.18665087E-21
  -9.48000029E-02     1.42135438E-21
  -8.28000009E-02     1.18191276E-21
  -7.07999989E-02     8.20458129E-23
  -5.88000007E-02    -2.21398203E-21
  -4.67999987E-02    -5.76722521E-21
  -3.48000005E-02    -1.00708424E-20
  -2.28000004E-02    -1.37756478E-20
  -1.08000003E-02    -1.45872768E-20
   1.20000006E-03    -9.52860125E-21
   1.31999999E-02     4.26147578E-21
   2.52000000E-02     2.81431304E-20
   3.72000001E-02     6.01890024E-20
   4.91999984E-02     9.34954298E-20
   6.12000003E-02     1.15398442E-19
   7.32000023E-02     1.08558266E-19
   8.51999968E-02     5.47178424E-20
   9.71999988E-02    -5.86560493E-20
  0.109200001        -2.29686601E-19
  0.121200003        -4.33514011E-19
  0.133200005        -6.17210378E-19
  0.145199999        -7.02134530E-19
  0.157199994        -5.97059897E-19
  0.169200003        -2.23231180E-19
  0.181199998         4.51191042E-19
  0.193200007         1.37442976E-18
  0.205200002         2.38354823E-18
  0.217199996         3.19984377E-18
  0.229200006         3.45979665E-18
  0.241200000         2.78840703E-18
  0.253199995         9.11331764E-19
  0.265199989        -2.21146282E-18
  0.277200013        -6.26191316E-18
  0.289200008        -1.04917852E-17
  0.301200002        -1.37466557E-17
  0.313199997        -1.46209070E-17
  0.325199991        -1.17554855E-17
  0.337199986        -4.25397110E-18
  0.349200010         7.85209468E-18
  0.361200005         2.32018305E-17
  0.373199999         3.89119160E-17
  0.385199994         5.07395367E-17
  0.397199988         5.37108158E-17
  0.409200013         4.32358538E-17
  0.421200007         1.65958123E-17
  0.433200002        -2.54765077E-17
  0.445199996        -7.75551241E-17
  0.457199991        -1.29140390E-16
  0.469199985        -1.65626824E-16
  0.481200010        -1.70899181E-16
  0.493200004        -1.31446345E-16
  0.505200028        -4.13557947E-17
  0.517199993         9.29951848E-17
  0.529200017         2.50125309E-16
  0.541199982         3.94120486E-16
  0.553200006         4.79918492E-16
  0.565199971         4.63295153E-16
  0.577199996         3.14172249E-16
  0.589200020         3.03057271E-17
  0.601199985        -3.52751688E-16
  0.613200009        -7.59748902E-16
  0.625199974        -1.08512554E-15
  0.637199998        -1.21439569E-15
  0.649200022        -1.05466550E-15
  0.661199987        -5.67678040E-16
  0.673200011         2.03966434E-16
  0.685199976         1.12728587E-15
  0.697200000         1.99346345E-15
  0.709200025         2.55828916E-15
  0.721199989         2.60273235E-15
  0.733200014         2.00020690E-15
  0.745199978         7.71835374E-16
  0.757200003        -8.89515249E-16
  0.769200027        -2.64017734E-15
  0.781199992        -4.05429398E-15
  0.793200016        -4.72852670E-15
  0.805199981        -4.39782810E-15
  0.817200005        -3.02912556E-15
  0.829200029        -8.60765257E-16
  0.841199994         1.63295395E-15
  0.853200018         3.85259595E-15
  0.865199983         5.23633057E-15
  0.877200007         5.43089193E-15
  0.889199972         4.41764189E-15
  0.901199996         2.54707445E-15
  0.913200021         4.57890341E-16
  0.925199986        -1.10906608E-15
  0.937200010        -1.55565118E-15
  0.949199975        -6.57484867E-16
  0.961199999         1.29755029E-15
  0.973200023         3.52331486E-15
  0.985199988         4.92058507E-15
  0.997200012         4.39885639E-15
   1.00919998         1.25097174E-15
   1.02119994        -4.53177916E-15
   1.03320003        -1.21122645E-14
   1.04519999        -1.98964448E-14
   1.05719995        -2.58609696E-14
   1.06920004        -2.80474598E-14
   1.08120000        -2.50922770E-14
   1.09319997        -1.66375245E-14
   1.10520005        -3.49299680E-15
   1.11720002         1.25133914E-14
   1.12919998         2.89656469E-14
   1.14119995         4.34483348E-14
   1.15320003         5.41136553E-14
   1.16520000         6.00431976E-14
   1.17719996         6.12776431E-14
   1.18920004         5.84918737E-14
   1.20120001         5.24145614E-14
   1.21319997         4.31919583E-14
   1.22520006         2.99414288E-14
   1.23720002         1.07103293E-14
   1.24919999        -1.70464686E-14
   1.26119995        -5.55080714E-14
   1.27320004        -1.05244189E-13
   1.28520000        -1.64003549E-13
   1.29719996        -2.25896911E-13
   1.30920005        -2.81292242E-13
   1.32120001        -3.17608705E-13
   1.33319998        -3.21009576E-13
   1.34519994        -2.78795216E-13
   1.35720003        -1.82126951E-13
   1.36919999        -2.86120818E-14
   1.38119996         1.75737449E-13
   1.39320004         4.15589926E-13
   1.40520000         6.66699280E-13
   1.41719997         8.97721459E-13
   1.42920005         1.07332730E-12
   1.44120002         1.15830295E-12
   1.45319998         1.12216898E-12
   1.46519995         9.43746383E-13
   1.47720003         6.15068055E-13
   1.48920000         1.44098546E-13
   1.50119996        -4.44133500E-13
   1.51320004        -1.10816499E-12
   1.52520001        -1.79241702E-12
   1.53719997        -2.43090075E-12
   1.54920006        -2.95186597E-12
   1.56120002        -3.28292666E-12
   1.57319999        -3.35632628E-12
   1.58519995        -3.11422307E-12
   1.59720004        -2.51413365E-12
   1.60920000        -1.53481351E-12
   1.62119997        -1.82799359E-13
   1.63320005         1.50049721E-12
   1.64520001         3.43184053E-12
   1.65719998         5.48079681E-12
   1.66919994         7.46800278E-12
   1.68120003         9.16948722E-12
   1.69319999         1.03291993E-11
   1.70519996         1.06810004E-11
   1.71720004         9.97980084E-12
   1.72920001         8.03956034E-12
   1.74119997         4.77383237E-12
   1.75320005         2.32932001E-13
   1.76520002        -5.36895398E-12
   1.77719998        -1.16430641E-11
   1.78919995        -1.80365584E-11
   1.80120003        -2.38664921E-11
   1.81320000        -2.83764019E-11
   1.82519996        -3.08114298E-11
   1.83720005        -3.05051470E-11
   1.84920001        -2.69692203E-11
   1.86119998        -1.99762394E-11
   1.87320006        -9.62601960E-12
   1.88520002         3.61323927E-12
   1.89719999         1.88958710E-11
   1.90919995         3.50265476E-11
   1.92120004         5.05271762E-11
   1.93320000         6.37420811E-11
   1.94519997         7.29772145E-11
   1.95720005         7.66653269E-11
   1.96920002         7.35447536E-11
   1.98119998         6.28355840E-11
   1.99319994         4.43939989E-11
   2.00519991         1.88240430E-11
   2.01719999        -1.24728804E-11
   2.02920008        -4.73263338E-11
   2.04119992        -8.29117539E-11
   2.05320001        -1.15951228E-10
   2.06520009        -1.42988524E-10
   2.07719994        -1.60716454E-10
   2.08920002        -1.66325301E-10
   2.10120010        -1.57835953E-10
   2.11319995        -1.34379674E-10
   2.12520003        -9.63900904E-11
   2.13720012        -4.56803657E-11
   2.14919996         1.46101221E-11
   2.16120005         8.02026362E-11
   2.17319989         1.45988471E-10
   2.18519998         2.06437645E-10
   2.19720006         2.56073052E-10
   2.20919991         2.89968133E-10
   2.22119999         3.04222869E-10
   2.23320007         2.96370734E-10
   2.24519992         2.65674149E-10
   2.25720000         2.13272192E-10
   2.26920009         1.42156009E-10
   2.28119993         5.69621642E-11
   2.29320002        -3.64074014E-11
   2.30520010        -1.31310754E-10
   2.31719995        -2.20988783E-10
   2.32920003        -2.99220676E-10
   2.34120011        -3.60935781E-10
   2.35319996        -4.02702344E-10
   2.36520004        -4.23019925E-10
   2.37719989        -4.22359203E-10
   2.38919997        -4.02920475E-10
   2.40120006        -3.68115621E-10
   2.41319990        -3.21817129E-10
   2.42519999        -2.67454947E-10
   2.43720007        -2.07073331E-10
   2.44919991        -1.40482306E-10
   2.46120000        -6.46450601E-11
   2.47320008         2.65636384E-11
   2.48519993         1.42117429E-10
   2.49720001         2.93044589E-10
   2.50920010         4.91059637E-10
   2.52119994         7.46659956E-10
   2.53320003         1.06679232E-09
   2.54520011         1.45225820E-09
   2.55719995         1.89508786E-09
   2.56920004         2.37615838E-09
   2.58119988         2.86336710E-09
   2.59319997         3.31067196E-09
   2.60520005         3.65830322E-09
   2.61719990         3.83439325E-09
   2.62919998         3.75819509E-09
   2.64120007         3.34494166E-09
   2.65319991         2.51226728E-09
   2.66520000         1.18792898E-09
   2.67720008        -6.81594670E-10
   2.68919992        -3.12225512E-09
   2.70120001        -6.12412920E-09
   2.71320009        -9.63462643E-09
   2.72519994        -1.35542999E-08
   2.73720002        -1.77364612E-08
   2.74920011        -2.19918093E-08
   2.76119995        -2.60993058E-08
   2.77320004        -2.98244203E-08
   2.78520012        -3.29456569E-08
   2.79719996        -3.52901175E-08
   2.80920005        -3.67783883E-08
   2.82119989        -3.74787561E-08
   2.83319998        -3.76700982E-08
   2.84520006        -3.79123009E-08
   2.85719991        -3.91224368E-08
   2.86919999        -4.26541256E-08
   2.88120008        -5.03770394E-08
   2.89319992        -6.47527258E-08
   2.90520000        -8.89023966E-08
   2.91720009        -1.26662030E-07
   2.92919993        -1.82619672E-07
   2.94120002        -2.62130044E-07
   2.95320010        -3.71301439E-07
   2.96519995        -5.16950706E-07
   2.97720003        -7.06522655E-07
   2.98920012        -9.47970989E-07
   3.00119996        -1.24960025E-06
   3.01320004        -1.61986804E-06
   3.02519989        -2.06714981E-06
   3.03719997        -2.59947137E-06
   3.04920006        -3.22421192E-06
   3.06119990        -3.94778863E-06
   3.07319999        -4.77533058E-06
   3.08520007        -5.71035298E-06
   3.09719992        -6.75444289E-06
   3.10920000        -7.90697413E-06
   3.12120008        -9.16485806E-06
   3.13319993        -1.05223480E-05
   3.14520001        -1.19709093E-05
   3.15720010        -1.34991651E-05
   3.16919994        -1.50929245E-05
   3.18120003        -1.67353064E-05
   3.19320011        -1.84069486E-05
   3.20519996        -2.00863196E-05
   3.21720004        -2.17501147E-05
   3.22919989        -2.33737373E-05
   3.24119997        -2.49318509E-05
   3.25320005        -2.63989805E-05
   3.26519990        -2.77501640E-05
   3.27719998        -2.89616146E-05
   3.28920007        -3.00113770E-05
   3.30119991        -3.08799681E-05
   3.31320000        -3.15509496E-05
   3.32520008        -3.20114632E-05
   3.33719993        -3.22526321E-05
   3.34920001        -3.22698907E-05
   3.36120009        -3.20631989E-05
   3.37319994        -3.16370788E-05
   3.38520002        -3.10005707E-05
   3.39720011        -3.01670316E-05
   3.40919995        -2.91538163E-05
   3.42120004        -2.79818214E-05
   3.43319988        -2.66749466E-05
   3.44519997        -2.52594582E-05
   3.45720005        -2.37632903E-05
   3.46919990        -2.22153049E-05
   3.48119998        -2.06445311E-05
   3.49320006        -1.90794217E-05
   3.50519991        -1.75471196E-05
   3.51719999        -1.60728123E-05
   3.52920008        -1.46791235E-05
   3.54119992        -1.33856202E-05
   3.55320001        -1.22084239E-05
   3.56520009        -1.11599320E-05
   3.57719994        -1.02486665E-05
   3.58920002        -9.47924400E-06
   3.60120010        -8.85246391E-06
   3.61319995        -8.36551862E-06
   3.62520003        -8.01230271E-06
   3.63720012        -7.78381400E-06
   3.64919996        -7.66862286E-06
   3.66120005        -7.65340610E-06
   3.67319989        -7.72350722E-06
   3.68519998        -7.86351120E-06
   3.69720006        -8.05781656E-06
   3.70919991        -8.29116925E-06
   3.72119999        -8.54916198E-06
   3.73320007        -8.81865799E-06
   3.74519992        -9.08814309E-06
   3.75720000        -9.34799300E-06
   3.76920009        -9.59063800E-06
   3.78119993        -9.81064022E-06
   3.79320002        -1.00046727E-05
   3.80520010        -1.01714131E-05
   3.81719995        -1.03113562E-05
   3.82920003        -1.04265664E-05
   3.84120011        -1.05203790E-05
   3.85319996        -1.05970648E-05
   3.86520004        -1.06614907E-05
   3.87719989        -1.07187725E-05
   3.88919997        -1.07739615E-05
   3.90120006        -1.08317536E-05
   3.91319990        -1.08962595E-05
   3.92519999        -1.09708226E-05
   3.93720007        -1.10579067E-05
   3.94919991        -1.11590380E-05
   3.96120000        -1.12748194E-05
   3.97320008        -1.14049899E-05
   3.98519993        -1.15485391E-05
   3.99720001        -1.17038535E-05
   4.00920010        -1.18688849E-05
   4.02120018        -1.20413379E-05
   4.03319979        -1.22188458E-05
   4.04519987        -1.23991504E-05
   4.05719995        -1.25802471E-05
   4.06920004        -1.27605117E-05
   4.08120012        -1.29388009E-05
   4.09320021        -1.31145061E-05
   4.10519981        -1.32875857E-05
   4.11719990        -1.34585653E-05
   4.12919998        -1.36285116E-05
   4.14120007        -1.37989800E-05
   4.15320015        -1.39719596E-05
   4.16520023        -1.41497949E-05
   4.17719984        -1.43351081E-05
   4.18919992        -1.45307231E-05
   4.20120001        -1.47395949E-05
   4.21320009        -1.49647376E-05
   4.22520018        -1.52091698E-05
   4.23719978        -1.54758545E-05
   4.24919987        -1.57676659E-05
   4.26119995        -1.60873387E-05
   4.27320004        -1.64374396E-05
   4.28520012        -1.68203405E-05
   4.29720020        -1.72381842E-05
   4.30919981        -1.76928606E-05
   4.32119989        -1.81859741E-05
   4.33319998        -1.87188125E-05
   4.34520006        -1.92923071E-05
   4.35720015        -1.99069909E-05
   4.36920023        -2.05629585E-05
   4.38119984        -2.12598006E-05
   4.39319992        -2.19965623E-05
   4.40520000        -2.27716646E-05
   4.41720009        -2.35828484E-05
   4.42920017        -2.44271050E-05
   4.44119978        -2.53006092E-05
   4.45319986        -2.61986661E-05
   4.46519995        -2.71156532E-05
   4.47720003        -2.80450004E-05
   4.48920012        -2.89791733E-05
   4.50120020        -2.99096973E-05
   4.51319981        -3.08272211E-05
   4.52519989        -3.17215927E-05
   4.53719997        -3.25820365E-05
   4.54920006        -3.33973185E-05
   4.56120014        -3.41560008E-05
   4.57320023        -3.48467292E-05
   4.58519983        -3.54585645E-05
   4.59719992        -3.59813348E-05
   4.60920000        -3.64060252E-05
   4.62120008        -3.67251596E-05
   4.63320017        -3.69331829E-05
   4.64519978        -3.70267844E-05
   4.65719986        -3.70052330E-05
   4.66919994        -3.68705550E-05
   4.68120003        -3.66276836E-05
   4.69320011        -3.62844912E-05
   4.70520020        -3.58516918E-05
   4.71719980        -3.53426185E-05
   4.72919989        -3.47728856E-05
   4.74119997        -3.41599480E-05
   4.75320005        -3.35224868E-05
   4.76520014        -3.28798051E-05
   4.77720022        -3.22510714E-05
   4.78919983        -3.16545920E-05
   4.80119991        -3.11070507E-05
   4.81320000        -3.06228249E-05
   4.82520008        -3.02133376E-05
   4.83720016        -2.98865634E-05
   4.84919977        -2.96466442E-05
   4.86119986        -2.94936908E-05
   4.87319994        -2.94237652E-05
   4.88520002        -2.94290639E-05
   4.89720011        -2.94982656E-05
   4.90920019        -2.96170856E-05
   4.92119980        -2.97689621E-05
   4.93319988        -2.99358671E-05
   4.94519997        -3.00992069E-05
   4.95720005        -3.02407316E-05
   4.96920013        -3.03434608E-05
   4.98120022        -3.03925299E-05
   4.99319983        -3.03759134E-05
   5.00519991        -3.02850294E-05
   5.01719999        -3.01151304E-05
   5.02920008        -2.98655104E-05
   5.04120016        -2.95394912E-05
   5.05319977        -2.91441957E-05
   5.06519985        -2.86901450E-05
   5.07719994        -2.81906468E-05
   5.08920002        -2.76610972E-05
   5.10120010        -2.71181634E-05
   5.11320019        -2.65789422E-05
   5.12519979        -2.60601100E-05
   5.13719988        -2.55771374E-05
   5.14919996        -2.51435922E-05
   5.16120005        -2.47705866E-05
   5.17320013        -2.44663588E-05
   5.18520021        -2.42360529E-05
   5.19719982        -2.40816680E-05
   5.20919991        -2.40021691E-05
   5.22119999        -2.39937854E-05
   5.23320007        -2.40504032E-05
   5.24520016        -2.41641028E-05
   5.25719976        -2.43257291E-05
   5.26919985        -2.45255051E-05
   5.28119993        -2.47536409E-05
   5.29320002        -2.50008688E-05
   5.30520010        -2.52589471E-05
   5.31720018        -2.55210343E-05
   5.32919979        -2.57819556E-05
   5.34119987        -2.60383549E-05
   5.35319996        -2.62887170E-05
   5.36520004        -2.65332856E-05
   5.37720013        -2.67738651E-05
   5.38920021        -2.70135461E-05
   5.40119982        -2.72563848E-05
   5.41319990        -2.75070197E-05
   5.42519999        -2.77703093E-05
   5.43720007        -2.80509576E-05
   5.44920015        -2.83531717E-05
   5.46120024        -2.86804079E-05
   5.47319984        -2.90351327E-05
   5.48519993        -2.94187012E-05
   5.49720001        -2.98312880E-05
   5.50920010        -3.02719036E-05
   5.52120018        -3.07384580E-05
   5.53319979        -3.12279080E-05
   5.54519987        -3.17363993E-05
   5.55719995        -3.22594533E-05
   5.56920004        -3.27921480E-05
   5.58120012        -3.33292555E-05
   5.59320021        -3.38653335E-05
   5.60519981        -3.43948122E-05
   5.61719990        -3.49119582E-05
   5.62919998        -3.54108306E-05
   5.64120007        -3.58851466E-05
   5.65320015        -3.63281433E-05
   5.66520023        -3.67323883E-05
   5.67719984        -3.70896159E-05
   5.68919992        -3.73905968E-05
   5.70120001        -3.76250464E-05
   5.71320009        -3.77816214E-05
   5.72520018        -3.78480181E-05
   5.73719978        -3.78111763E-05
   5.74919987        -3.76575699E-05
   5.76119995        -3.73736621E-05
   5.77320004        -3.69463887E-05
   5.78520012        -3.63637446E-05
   5.79720020        -3.56153942E-05
   5.80919981        -3.46932829E-05
   5.82119989        -3.35922123E-05
   5.83319998        -3.23103377E-05
   5.84520006        -3.08495510E-05
   5.85720015        -2.92157074E-05
   5.86920023        -2.74187078E-05
   5.88119984        -2.54724018E-05
   5.89319992        -2.33942774E-05
   5.90520000        -2.12050363E-05
   5.91720009        -1.89279672E-05
   5.92920017        -1.65882466E-05
   5.94119978        -1.42121198E-05
   5.95319986        -1.18260659E-05
   5.96519995        -9.45594911E-06
   5.97720003        -7.12622978E-06
   5.98920012        -4.85926194E-06
   6.00120020        -2.67470159E-06
   6.01319981        -5.89069998E-07
   6.02519989         1.38452117E-06
   6.03719997         3.23647851E-06
   6.04920006         4.96066650E-06
   6.06120014         6.55419535E-06
   6.07320023         8.01707301E-06
   6.08519983         9.35175467E-06
   6.09719992         1.05626159E-05
   6.10920000         1.16553792E-05
   6.12120008         1.26365376E-05
   6.13320017         1.35128030E-05
   6.14519978         1.42906074E-05
   6.15719986         1.49756834E-05
   6.16919994         1.55727521E-05
   6.18120003         1.60853106E-05
   6.19320011         1.65155616E-05
   6.20520020         1.68644547E-05
   6.21719980         1.71318479E-05
   6.22919989         1.73167737E-05
   6.24119997         1.74177967E-05
   6.25320005         1.74334418E-05
   6.26520014         1.73626559E-05
   6.27720022         1.72052660E-05
   6.28919983         1.69624454E-05
   6.30119991         1.66370901E-05
   6.31320000         1.62341330E-05
   6.32520008         1.57607519E-05
   6.33720016         1.52264411E-05
   6.34919977         1.46429365E-05
   6.36119986         1.40240154E-05
   6.37319994         1.33851345E-05
   6.38520002         1.27429385E-05
   6.39720011         1.21146613E-05
   6.40920019         1.15174344E-05
   6.42119980         1.09675502E-05
   6.43319988         1.04797109E-05
   6.44519997         1.00663065E-05
   6.45720005         9.73677834E-06
   6.46920013         9.49708647E-06
   6.48120022         9.34933632E-06
   6.49319983         9.29158705E-06
   6.50519991         9.31784052E-06
   6.51719999         9.41825419E-06
   6.52920008         9.57952398E-06
   6.54120016         9.78546632E-06
   6.55319977         1.00177313E-05
   6.56519985         1.02566346E-05
   6.57719994         1.04820501E-05
   6.58920002         1.06743209E-05
   6.60120010         1.08151480E-05
   6.61320019         1.08883969E-05
   6.62519979         1.08807899E-05
   6.63719988         1.07824608E-05
   6.64919996         1.05873341E-05
   6.66120005         1.02933227E-05
   6.67320013         9.90234730E-06
   6.68520021         9.42017050E-06
   6.69719982         8.85608097E-06
   6.70919991         8.22242691E-06
   6.72119999         7.53404902E-06
   6.73320007         6.80763014E-06
   6.74520016         6.06099093E-06
   6.75719976         5.31237902E-06
   6.76919985         4.57976785E-06
   6.78119993         3.88019907E-06
   6.79320002         3.22918982E-06
   6.80520010         2.64022515E-06
   6.81720018         2.12435111E-06
   6.82919979         1.68987515E-06
   6.84119987         1.34217908E-06
   6.85319996         1.08364861E-06
   6.86520004         9.13711517E-07
   6.87720013         8.28979978E-07
   6.88920021         8.23486744E-07
   6.90119982         8.89000091E-07
   6.91319990         1.01540297E-06
   6.92519999         1.19111826E-06
   6.93720007         1.40355860E-06
   6.94920015         1.63958236E-06
   6.96120024         1.88593663E-06
   6.97319984         2.12966779E-06
   6.98519993         2.35848938E-06
   6.99720001         2.56109411E-06
   7.00920010         2.72740544E-06
   7.02120018         2.84877092E-06
   7.03319979         2.91809420E-06
   7.04519987         2.92991763E-06
   7.05719995         2.88045931E-06
   7.06920004         2.76761511E-06
   7.08120012         2.59093440E-06
   7.09320021         2.35157700E-06
   7.10519981         2.05225751E-06
   7.11719990         1.69717953E-06
   7.12919998         1.29196042E-06
   7.14120007         8.43544171E-07
   7.15320015         3.60096124E-07
   7.16520023        -1.49128482E-07
   7.17719984        -6.73949273E-07
   7.18919992        -1.20346670E-06
   7.20120001        -1.72631439E-06
   7.21320009        -2.23095731E-06
   7.22520018        -2.70603027E-06
   7.23719978        -3.14070576E-06
   7.24919987        -3.52507254E-06
   7.26119995        -3.85050134E-06
   7.27320004        -4.10997563E-06
   7.28520012        -4.29835745E-06
   7.29720020        -4.41256543E-06
   7.30919981        -4.45164642E-06
   7.32119989        -4.41672455E-06
   7.33319998        -4.31083299E-06
   7.34520006        -4.13862017E-06
   7.35720015        -3.90596006E-06
   7.36920023        -3.61949037E-06
   7.38119984        -3.28610827E-06
   7.39319992        -2.91246965E-06
   7.40520000        -2.50453968E-06
   7.41720009        -2.06722757E-06
   7.42920017        -1.60415209E-06
   7.44119978        -1.11756242E-06
   7.45319986        -6.08428138E-07
   7.46519995        -7.67034223E-08
   7.47720003         4.78252616E-07
   7.48920012         1.05712650E-06
   7.50120020         1.66001723E-06
   7.51319981         2.28576914E-06
   7.52519989         2.93133144E-06
   7.53719997         3.59120259E-06
   7.54920006         4.25701774E-06
   7.56120014         4.91732499E-06
   7.57320023         5.55758970E-06
   7.58519983         6.16044235E-06
   7.59719992         6.70617737E-06
   7.60920000         7.17348757E-06
   7.62120008         7.54039456E-06
   7.63320017         7.78533740E-06
   7.64519978         7.88833859E-06
   7.65719986         7.83219821E-06
   7.66919994         7.60363037E-06
   7.68120003         7.19426180E-06
   7.69320011         6.60144451E-06
   7.70520020         5.82881967E-06
   7.71719980         4.88658225E-06
   7.72919989         3.79144353E-06
   7.74119997         2.56626367E-06
   7.75320005         1.23938287E-06
   7.76520014        -1.56330501E-07
   7.77720022        -1.58466639E-06
   7.78919983        -3.00743795E-06
   7.80119991        -4.38596271E-06
   7.81320000        -5.68258702E-06
   7.82520008        -6.86217936E-06
   7.83720016        -7.89352816E-06
   7.84919977        -8.75057049E-06
   7.86119986        -9.41339567E-06
   7.87319994        -9.86899340E-06
   7.88520002        -1.01116775E-05
   7.89720011        -1.01432106E-05
   7.90920019        -9.97259031E-06
   7.92119980        -9.61552541E-06
   7.93319988        -9.09361370E-06
   7.94519997        -8.43327871E-06
   7.95720005        -7.66449011E-06
   7.96920013        -6.81934807E-06
   7.98120022        -5.93059167E-06
   7.99319983        -5.03009414E-06
   8.00520039        -4.14743499E-06
   8.01720047        -3.30860598E-06
   8.02919960        -2.53492340E-06
   8.04119968        -1.84220107E-06
   8.05319977        -1.24022586E-06
   8.06519985        -7.32568310E-07
   8.07719994        -3.16738237E-07
   8.08920002         1.53164788E-08
   8.10120010         2.76394786E-07
   8.11320019         4.82947371E-07
   8.12520027         6.53761504E-07
   8.13720036         8.08491791E-07
   8.14920044         9.66122684E-07
   8.16119957         1.14344425E-06
   8.17319965         1.35363268E-06
   8.18519974         1.60502213E-06
   8.19719982         1.90014043E-06
   8.20919991         2.23507845E-06
   8.22119999         2.59923263E-06
   8.23320007         2.97545125E-06
   8.24520016         3.34058382E-06
   8.25720024         3.66641439E-06
   8.26920033         3.92094080E-06
   8.28120041         4.06993149E-06
   8.29319954         4.07869084E-06
   8.30519962         3.91393814E-06
   8.31719971         3.54570352E-06
   8.32919979         2.94915185E-06
   8.34119987         2.10622488E-06
   8.35319996         1.00702766E-06
   8.36520004        -3.49124264E-07
   8.37720013        -1.95305256E-06
   8.38920021        -3.78549703E-06
   8.40120029        -5.81734776E-06
   8.41320038        -8.01032729E-06
   8.42520046        -1.03180892E-05
   8.43719959        -1.26876939E-05
   8.44919968        -1.50613905E-05
   8.46119976        -1.73786339E-05
   8.47319984        -1.95782413E-05
   8.48519993        -2.16006119E-05
   8.49720001        -2.33898827E-05
   8.50920010        -2.48959859E-05
   8.52120018        -2.60764646E-05
   8.53320026        -2.68980257E-05
   8.54520035        -2.73377391E-05
   8.55720043        -2.73838632E-05
   8.56919956        -2.70362543E-05
   8.58119965        -2.63063685E-05
   8.59319973        -2.52168520E-05
   8.60519981        -2.38007487E-05
   8.61719990        -2.21003629E-05
   8.62919998        -2.01658404E-05
   8.64120007        -1.80535080E-05
   8.65320015        -1.58240382E-05
   8.66520023        -1.35405335E-05
   8.67720032        -1.12665466E-05
   8.68920040        -9.06417245E-06
   8.70119953        -6.99220664E-06
   8.71319962        -5.10447171E-06
   8.72519970        -3.44834143E-06
   8.73719978        -2.06351206E-06
   8.74919987        -9.81048061E-07
   8.76119995        -2.22725802E-07
   8.77320004         1.99315423E-07
   8.78520012         2.82610813E-07
   8.79720020         3.41129365E-08
   8.80920029        -5.30349041E-07
   8.82120037        -1.38685766E-06
   8.83320045        -2.50441394E-06
   8.84519958        -3.84611894E-06
   8.85719967        -5.37048436E-06
   8.86919975        -7.03282421E-06
   8.88119984        -8.78667561E-06
   8.89319992        -1.05852032E-05
   8.90520000        -1.23825330E-05
   8.91720009        -1.41349819E-05
   8.92920017        -1.58021412E-05
   8.94120026        -1.73477893E-05
   8.95320034        -1.87406222E-05
   8.96520042        -1.99547831E-05
   8.97719955        -2.09701975E-05
   8.98919964        -2.17727411E-05
   9.00119972        -2.23542265E-05
   9.01319981        -2.27122491E-05
   9.02519989        -2.28499302E-05
   9.03719997        -2.27755390E-05
   9.04920006        -2.25020704E-05
   9.06120014        -2.20467482E-05
   9.07320023        -2.14305146E-05
   9.08520031        -2.06774785E-05