 -0.622799993         1.00000002E-24
 -0.610800028         1.00000002E-24
 -0.598800004         1.00000002E-24
 -0.586799979         1.00000002E-24
 -0.574800014         1.00000002E-24
 -0.562799990         1.00000002E-24
 -0.550800025         1.00000002E-24
 -0.538800001         1.00000002E-24
 -0.526799977         1.00000002E-24
 -0.514800012         1.00000012E-24
 -0.502799988         1.00000022E-24
 -0.490799993         1.00000032E-24
 -0.478799999         1.00000041E-24
 -0.466800004         1.00000041E-24
 -0.454800010         1.00000041E-24
 -0.442799985         1.00000041E-24
 -0.430799991         1.00000041E-24
 -0.418799996         1.00000032E-24
 -0.406800002         1.00000022E-24
 -0.394800007         9.99999822E-25
 -0.382800013         9.99999132E-25
 -0.370799989         9.99997653E-25
 -0.358799994         9.99995385E-25
 -0.346799999         9.99992624E-25
 -0.334800005         9.99990356E-25
 -0.322800010         9.99990159E-25
 -0.310799986         9.99988285E-25
 -0.298799992         9.99964422E-25
 -0.286799997         9.99862659E-25
 -0.274800003         9.99578669E-25
 -0.262800008         9.98985840E-25
 -0.250800014         9.98063859E-25
 -0.238800004         9.97201240E-25
 -0.226799995         9.97694771E-25
 -0.214800000         1.00229777E-24
 -0.202800006         1.01535461E-24
 -0.190799996         1.04165247E-24
 -0.178800002         1.08286512E-24
 -0.166800007         1.13078980E-24
 -0.154799998         1.15806023E-24
 -0.142800003         1.11003980E-24
 -0.130799994         9.05830242E-25
 -0.118799999         4.60141333E-25
 -0.106799997        -2.62177897E-25
  -9.48000029E-02    -1.15537840E-24
  -8.28000009E-02    -1.86273331E-24
  -7.07999989E-02    -1.69682620E-24
  -5.88000007E-02     3.23039749E-25
  -4.67999987E-02     5.20735722E-24
  -3.48000005E-02     1.34198982E-23
  -2.28000004E-02     2.39988921E-23
  -1.08000003E-02     3.35763688E-23
   1.20000006E-03     3.57558621E-23
   1.31999999E-02     2.15548985E-23
   2.52000000E-02    -1.82996766E-23
   3.72000001E-02    -8.87128046E-23
   4.91999984E-02    -1.83490523E-22
   6.12000003E-02    -2.78182647E-22
   7.32000023E-02    -3.25802482E-22
   8.51999968E-02    -2.60084361E-22
   9.71999988E-02    -1.10581054E-23
  0.109200001         4.64454492E-22
  0.121200003         1.13999393E-21
  0.133200005         1.87480304E-21
  0.145199999         2.38688297E-21
  0.157199994         2.26980521E-21
  0.169200003         1.07846520E-21
  0.181199998        -1.50407184E-21
  0.193200007        -5.43424826E-21
  0.205200002        -1.00657646E-20
  0.217199996        -1.39953644E-20
  0.229200006        -1.51222688E-20
  0.241200000        -1.10382737E-20
  0.253199995         1.98748684E-22
  0.265199989         1.89816948E-20
  0.277200013         4.30084578E-20
  0.289200008         6.64954209E-20
  0.301200002         8.02771870E-20
  0.313199997         7.32720658E-20
  0.325199991         3.55272974E-20
  0.337199986        -3.74377260E-20
  0.349200010        -1.39922900E-19
  0.361200005        -2.52537802E-19
  0.373199999        -3.41811683E-19
  0.385199994        -3.64652001E-19
  0.397199988        -2.78449984E-19
  0.409200013        -5.59662260E-20
  0.421200007         2.97987525E-19
  0.433200002         7.33040686E-19
  0.445199996         1.14897600E-18
  0.457199991         1.40610261E-18
  0.469199985         1.35297993E-18
  0.481200010         8.69406839E-19
  0.493200004        -8.32995757E-20
  0.505200028        -1.41809694E-18
  0.517199993        -2.90030037E-18
  0.529200017        -4.16267063E-18
  0.541199982        -4.76544996E-18
  0.553200006        -4.29785303E-18
  0.565199971        -2.50376218E-18
  0.577199996         5.97860194E-19
  0.589200020         4.63378059E-18
  0.601199985         8.87161795E-18
  0.613200009         1.23090514E-17
  0.625199974         1.38549783E-17
  0.637199998         1.25751148E-17
  0.649200022         7.95277663E-18
  0.661199987         1.04309291E-19
  0.673200011        -1.01075159E-17
  0.685199976        -2.11001631E-17
  0.697200000        -3.07473522E-17
  0.709200025        -3.66836040E-17
  0.721199989        -3.66938742E-17
  0.733200014        -2.91355478E-17
  0.745199978        -1.33435772E-17
  0.757200003         1.00213055E-17
  0.769200027         3.87174327E-17
  0.781199992         6.88072458E-17
  0.793200016         9.47563516E-17
  0.805199981         1.09850790E-16
  0.817200005         1.07046039E-16
  0.829200029         8.03189000E-17
  0.841199994         2.64761539E-17
  0.853200018        -5.28177585E-17
  0.865199983        -1.49262068E-16
  0.877200007        -2.47053994E-16
  0.889199972        -3.23663174E-16
  0.901199996        -3.52812807E-16
  0.913200021        -3.09798754E-16
  0.925199986        -1.78600616E-16
  0.937200010         4.05499851E-17
  0.949199975         3.25157023E-16
  0.961199999         6.28318399E-16
  0.973200023         8.82461265E-16
  0.985199988         1.00993252E-15
  0.997200012         9.39757432E-16
   1.00919998         6.27896683E-16
   1.02119994         7.65339730E-17
   1.03320003        -6.53092048E-16
   1.04519999        -1.43952964E-15
   1.05719995        -2.11503026E-15
   1.06920004        -2.49472358E-15
   1.08120000        -2.41718978E-15
   1.09319997        -1.78867249E-15
   1.10520005        -6.20508226E-16
   1.11720002         9.51048593E-16
   1.12919998         2.67105085E-15
   1.14119995         4.20151085E-15
   1.15320003         5.18301493E-15
   1.16520000         5.31171947E-15
   1.17719996         4.41561282E-15
   1.18920004         2.51167758E-15
   1.20120001        -1.72290459E-16
   1.21319997        -3.22092177E-15
   1.22520006        -6.09941098E-15
   1.23720002        -8.25534065E-15
   1.24919999        -9.23345364E-15
   1.26119995        -8.77727050E-15
   1.27320004        -6.89219994E-15
   1.28520000        -3.85207079E-15
   1.29719996        -1.43741478E-16
   1.30920005         3.64010376E-15
   1.32120001         6.93551043E-15
   1.33319998         9.33527378E-15
   1.34519994         1.06752316E-14
   1.35720003         1.10516963E-14
   1.36919999         1.07593911E-14
   1.38119996         1.01607989E-14
   1.39320004         9.51928237E-15
   1.40520000         8.84381425E-15
   1.41719997         7.79768706E-15
   1.42920005         5.71415118E-15
   1.44120002         1.73908654E-15
   1.45319998        -4.91155781E-15
   1.46519995        -1.46265853E-14
   1.47720003        -2.70820472E-14
   1.48920000        -4.10205961E-14
   1.50119996        -5.42100883E-14
   1.51320004        -6.36355118E-14
   1.52520001        -6.59319333E-14
   1.53719997        -5.80112469E-14
   1.54920006        -3.77837240E-14
   1.56120002        -4.83897810E-15
   1.57319999         3.90591591E-14
   1.58519995         8.97902358E-14
   1.59720004         1.41086158E-13
   1.60920000         1.85144475E-13
   1.62119997         2.13587205E-13
   1.63320005         2.18644086E-13
   1.64520001         1.94397937E-13
   1.65719998         1.37916751E-13
   1.66919994         5.01124648E-14
   1.68120003        -6.37975458E-14
   1.69319999        -1.94301836E-13
   1.70519996        -3.28105951E-13
   1.71720004        -4.49127524E-13
   1.72920001        -5.39925147E-13
   1.74119997        -5.83480963E-13
   1.75320005        -5.65224516E-13
   1.76520002        -4.75148187E-13
   1.77719998        -3.09814267E-13
   1.78919995        -7.40101543E-14
   1.80120003         2.18228335E-13
   1.81320000         5.43502905E-13
   1.82519996         8.70075062E-13
   1.83720005         1.16013937E-12
   1.84920001         1.37329688E-12
   1.86119998         1.47097883E-12
   1.87320006         1.42137517E-12
   1.88520002         1.20427225E-12
   1.89719999         8.15138213E-13
   1.90919995         2.67833688E-13
   1.92120004        -4.04523854E-13
   1.93320000        -1.15078184E-12
   1.94519997        -1.90502432E-12
   1.95720005        -2.59160076E-12
   1.96920002        -3.13142177E-12
   1.98119998        -3.44892973E-12
   1.99319994        -3.47916205E-12
   2.00519991        -3.17439716E-12
   2.01719999        -2.51001672E-12
   2.02920008        -1.48929740E-12
   2.04119992        -1.46931011E-13
   2.05320001         1.44898167E-12
   2.06520009         3.19679179E-12
   2.07719994         4.96347451E-12
   2.08920002         6.58964506E-12
   2.10120010         7.89792884E-12
   2.11319995         8.70500286E-12
   2.12520003         8.83725558E-12
   2.13720012         8.14946808E-12
   2.14919996         6.54527040E-12
   2.16120005         3.99748247E-12
   2.17319989         5.65900788E-13
   2.18519998        -3.59019476E-12
   2.19720006        -8.20751973E-12
   2.20919991        -1.29245243E-11
   2.22119999        -1.72988811E-11
   2.23320007        -2.08370352E-11
   2.24519992        -2.30347928E-11
   2.25720000        -2.34264552E-11
   2.26920009        -2.16386440E-11
   2.28119993        -1.74439022E-11
   2.29320002        -1.08084219E-11
   2.30520010        -1.92821215E-12
   2.31719995         8.75161835E-12
   2.32920003         2.05386819E-11
   2.34120011         3.25189077E-11
   2.35319996         4.36066461E-11
   2.36520004         5.26178406E-11
   2.37719989         5.83627174E-11
   2.38919997         5.97523420E-11
   2.40120006         5.59117544E-11
   2.41319990         4.62912382E-11
   2.42519999         3.07662680E-11
   2.43720007         9.71676732E-12
   2.44919991        -1.59236947E-11
   2.46120000        -4.46570975E-11
   2.47320008        -7.44555945E-11
   2.48519993        -1.02846433E-10
   2.49720001        -1.27049260E-10
   2.50920010        -1.44164264E-10
   2.52119994        -1.51405180E-10
   2.53320003        -1.46365989E-10
   2.54520011        -1.27304708E-10
   2.55719995        -9.34221173E-11
   2.56920004        -4.51088750E-11
   2.58119988         1.58687612E-11
   2.59319997         8.62750218E-11
   2.60520005         1.61430022E-10
   2.61719990         2.35376135E-10
   2.62919998         3.01196484E-10
   2.64120007         3.51484120E-10
   2.65319991         3.78943626E-10
   2.66520000         3.77090636E-10
   2.67720008         3.40998396E-10
   2.68919992         2.68026878E-10
   2.70120001         1.58460550E-10
   2.71320009         1.59784859E-11
   2.72519994        -1.52115681E-10
   2.73720002        -3.34964112E-10
   2.74920011        -5.18566357E-10
   2.76119995        -6.86546542E-10
   2.77320004        -8.21260115E-10
   2.78520012        -9.05190811E-10
   2.79719996        -9.22553756E-10
   2.80920005        -8.60992388E-10
   2.82119989        -7.13230086E-10
   2.83319998        -4.78521667E-10
   2.84520006        -1.63746447E-10
   2.85719991         2.16010307E-10
   2.86919999         6.37516206E-10
   2.88120008         1.07018483E-09
   2.89319992         1.47764456E-09
   2.90520000         1.82006565E-09
   2.91720009         2.05715445E-09
   2.92919993         2.15165286E-09
   2.94120002         2.07310857E-09
   2.95320010         1.80162263E-09
   2.96519995         1.33123623E-09
   2.97720003         6.72599809E-10
   2.98920012        -1.45424089E-10
   3.00119996        -1.07552378E-09
   3.01320004        -2.05329309E-09
   3.02519989        -3.00029090E-09
   3.03719997        -3.82877730E-09
   3.04920006        -4.44795045E-09
   3.06119990        -4.77134199E-09
   3.07319999        -4.72487871E-09
   3.08520007        -4.25499724E-09
   3.09719992        -3.33610894E-09
   3.10920000        -1.97667083E-09
   3.12120008        -2.23163862E-10
   3.13319993         1.83864746E-09
   3.14520001         4.08562206E-09
   3.15720010         6.36255448E-09
   3.16919994         8.49086579E-09
   3.18120003         1.02803508E-08
   3.19320011         1.15433672E-08
   3.20519996         1.21105970E-08
   3.21720004         1.18472459E-08
   3.22919989         1.06684590E-08
   3.24119997         8.55261284E-09
   3.25320005         5.55123236E-09
   3.26519990         1.79443327E-09
   3.27719998        -2.50896237E-09
   3.28920007        -7.07711045E-09
   3.30119991        -1.15667103E-08
   3.31320000        -1.55900626E-08
   3.32520008        -1.87368201E-08
   3.33719993        -2.05992094E-08
   3.34920001        -2.07992805E-08
   3.36120009        -1.90164702E-08
   3.37319994        -1.50138160E-08
   3.38520002        -8.66126015E-09
   3.39720011         4.52815667E-11
   3.40919995         1.09699592E-08
   3.42120004         2.38285285E-08
   3.43319988         3.81853091E-08
   3.44519997         5.34548832E-08
   3.45720005         6.89074184E-08
   3.46919990         8.36762553E-08
   3.48119998         9.67661293E-08
   3.49320006         1.07060274E-07
   3.50519991         1.13325314E-07
   3.51719999         1.14212675E-07
   3.52920008         1.08256089E-07
   3.54119992         9.38656015E-08
   3.55320001         6.93188937E-08
   3.56520009         3.27512382E-08
   3.57719994        -1.78529529E-08
   3.58920002        -8.46651673E-08
   3.60120010        -1.70010836E-07
   3.61319995        -2.76358065E-07
   3.62520003        -4.06293793E-07
   3.63720012        -5.62486321E-07
   3.64919996        -7.47632441E-07
   3.66120005        -9.64389415E-07
   3.67319989        -1.21529240E-06
   3.68519998        -1.50266135E-06
   3.69720006        -1.82849840E-06
   3.70919991        -2.19438243E-06
   3.72119999        -2.60136653E-06
   3.73320007        -3.04988043E-06
   3.74519992        -3.53965061E-06
   3.75720000        -4.06963727E-06
   3.76920009        -4.63799688E-06
   3.78119993        -5.24207371E-06
   3.79320002        -5.87842260E-06
   3.80520010        -6.54285759E-06
   3.81719995        -7.23054154E-06
   3.82920003        -7.93609343E-06
   3.84120011        -8.65372658E-06
   3.85319996        -9.37739605E-06
   3.86520004        -1.01009628E-05
   3.87719989        -1.08183658E-05
   3.88919997        -1.15237754E-05
   3.90120006        -1.22117526E-05
   3.91319990        -1.28773754E-05
   3.92519999        -1.35163582E-05
   3.93720007        -1.41251321E-05
   3.94919991        -1.47009014E-05
   3.96120000        -1.52416715E-05
   3.97320008        -1.57462491E-05
   3.98519993        -1.62142042E-05
   3.99720001        -1.66458267E-05
   4.00920010        -1.70420572E-05
   4.02120018        -1.74043907E-05
   4.03319979        -1.77347847E-05
   4.04519987        -1.80355582E-05
   4.05719995        -1.83092961E-05
   4.06920004        -1.85587396E-05
   4.08120012        -1.87867026E-05
   4.09320021        -1.89959883E-05
   4.10519981        -1.91893068E-05
   4.11719990        -1.93692267E-05
   4.12919998        -1.95381217E-05
   4.14120007        -1.96981382E-05
   4.15320015        -1.98511643E-05
   4.16520023        -1.99988281E-05
   4.17719984        -2.01424864E-05
   4.18919992        -2.02832416E-05
   4.20120001        -2.04219486E-05
   4.21320009        -2.05592478E-05
   4.22520018        -2.06955829E-05
   4.23719978        -2.08312522E-05
   4.24919987        -2.09664322E-05
   4.26119995        -2.11012248E-05
   4.27320004        -2.12356917E-05
   4.28520012        -2.13698986E-05
   4.29720020        -2.15039345E-05
   4.30919981        -2.16379503E-05
   4.32119989        -2.17721627E-05
   4.33319998        -2.19068679E-05
   4.34520006        -2.20424336E-05
   4.35720015        -2.21792798E-05
   4.36920023        -2.23178577E-05
   4.38119984        -2.24586111E-05
   4.39319992        -2.26019311E-05
   4.40520000        -2.27481123E-05
   4.41720009        -2.28973040E-05
   4.42920017        -2.30494752E-05
   4.44119978        -2.32043658E-05
   4.45319986        -2.33614737E-05
   4.46519995        -2.35200405E-05
   4.47720003        -2.36790693E-05
   4.48920012        -2.38373486E-05
   4.50120020        -2.39935052E-05
   4.51319981        -2.41460712E-05
   4.52519989        -2.42935766E-05
   4.53719997        -2.44346320E-05
   4.54920006        -2.45680421E-05
   4.56120014        -2.46929048E-05
   4.57320023        -2.48087017E-05
   4.58519983        -2.49153873E-05
   4.59719992        -2.50134472E-05
   4.60920000        -2.51039273E-05
   4.62120008        -2.51884503E-05
   4.63320017        -2.52691771E-05
   4.64519978        -2.53487706E-05
   4.65719986        -2.54302959E-05
   4.66919994        -2.55171235E-05
   4.68120003        -2.56128060E-05
   4.69320011        -2.57209304E-05
   4.70520020        -2.58449945E-05
   4.71719980        -2.59882709E-05
   4.72919989        -2.61536843E-05
   4.74119997        -2.63437123E-05
   4.75320005        -2.65603194E-05
   4.76520014        -2.68049025E-05
   4.77720022        -2.70782821E-05
   4.78919983        -2.73807091E-05
   4.80119991        -2.77119143E-05
   4.81320000        -2.80711538E-05
   4.82520008        -2.84572961E-05
   4.83720016        -2.88689134E-05
   4.84919977        -2.93043522E-05
   4.86119986        -2.97618390E-05
   4.87319994        -3.02395438E-05
   4.88520002        -3.07356604E-05
   4.89720011        -3.12484335E-05
   4.90920019        -3.17762206E-05
   4.92119980        -3.23174791E-05
   4.93319988        -3.28707902E-05
   4.94519997        -3.34348370E-05
   4.95720005        -3.40083971E-05
   4.96920013        -3.45903063E-05
   4.98120022        -3.51794333E-05
   4.99319983        -3.57746503E-05
   5.00519991        -3.63748295E-05
   5.01719999        -3.69788213E-05
   5.02920008        -3.75854324E-05
   5.04120016        -3.81934478E-05
   5.05319977        -3.88016379E-05
   5.06519985        -3.94087474E-05
   5.07719994        -4.00135395E-05
   5.08920002        -4.06147883E-05
   5.10120010        -4.12113186E-05
   5.11320019        -4.18020027E-05
   5.12519979        -4.23857746E-05
   5.13719988        -4.29616412E-05
   5.14919996        -4.35286893E-05
   5.16120005        -4.40860749E-05
   5.17320013        -4.46330414E-05
   5.18520021        -4.51689157E-05
   5.19719982        -4.56931339E-05
   5.20919991        -4.62052267E-05
   5.22119999        -4.67048667E-05
   5.23320007        -4.71918793E-05
   5.24520016        -4.76662899E-05
   5.25719976        -4.81283641E-05
   5.26919985        -4.85786404E-05
   5.28119993        -4.90179882E-05
   5.29320002        -4.94476226E-05
   5.30520010        -4.98691588E-05
   5.31720018        -5.02846051E-05
   5.32919979        -5.06963479E-05
   5.34119987        -5.11071303E-05
   5.35319996        -5.15199754E-05
   5.36520004        -5.19381101E-05
   5.37720013        -5.23648341E-05
   5.38920021        -5.28033670E-05
   5.40119982        -5.32566992E-05
   5.41319990        -5.37274027E-05
   5.42519999        -5.42174384E-05
   5.43720007        -5.47279597E-05
   5.44920015        -5.52591446E-05
   5.46120024        -5.58100473E-05
   5.47319984        -5.63784670E-05
   5.48519993        -5.69608710E-05
   5.49720001        -5.75523700E-05
   5.50920010        -5.81467575E-05
   5.52120018        -5.87365903E-05
   5.53319979        -5.93133482E-05
   5.54519987        -5.98676452E-05
   5.55719995        -6.03895169E-05
   5.56920004        -6.08687260E-05
   5.58120012        -6.12951408E-05
   5.59320021        -6.16591205E-05
   5.60519981        -6.19519342E-05
   5.61719990        -6.21661457E-05
   5.62919998        -6.22960288E-05
   5.64120007        -6.23379310E-05
   5.65320015        -6.22905864E-05
   5.66520023        -6.21553772E-05
   5.67719984        -6.19365455E-05
   5.68919992        -6.16413017E-05
   5.70120001        -6.12798613E-05
   5.71320009        -6.08653863E-05
   5.72520018        -6.04138440E-05
   5.73719978        -5.99437481E-05
   5.74919987        -5.94758349E-05
   5.76119995        -5.90326345E-05
   5.77320004        -5.86379647E-05
   5.78520012        -5.83163783E-05
   5.79720020        -5.80924861E-05
   5.80919981        -5.79903062E-05
   5.82119989        -5.80325395E-05
   5.83319998        -5.82398643E-05
   5.84520006        -5.86301830E-05
   5.85720015        -5.92179567E-05
   5.86920023        -6.00135318E-05
   5.88119984        -6.10225834E-05
   5.89319992        -6.22455482E-05
   5.90520000        -6.36772820E-05
   5.91720009        -6.53066891E-05
   5.92920017        -6.71165908E-05
   5.94119978        -6.90835877E-05
   5.95319986        -7.11782050E-05
   5.96519995        -7.33650086E-05
   5.97720003        -7.56029403E-05
   5.98920012        -7.78456888E-05
   6.00120020        -8.00422349E-05
   6.01319981        -8.21373687E-05
   6.02519989        -8.40723515E-05
   6.03719997        -8.57855775E-05
   6.04920006        -8.72132659E-05
   6.06120014        -8.82901586E-05
   6.07320023        -8.89501971E-05
   6.08519983        -8.91272721E-05
   6.09719992        -8.87558053E-05
   6.10920000        -8.77714701E-05
   6.12120008        -8.61117805E-05
   6.13320017        -8.37167463E-05
   6.14519978        -8.05294840E-05
   6.15719986        -7.64968718E-05
   6.16919994        -7.15701899E-05
   6.18120003        -6.57058117E-05
   6.19320011        -5.88659277E-05
   6.20520020        -5.10193058E-05
   6.21719980        -4.21420445E-05
   6.22919989        -3.22184133E-05
   6.24119997        -2.12416617E-05
   6.25320005        -9.21480841E-06
   6.26520014         3.84855639E-06
   6.27720022         1.79235703E-05
   6.28919983         3.29734576E-05
   6.30119991         4.89490412E-05
   6.31320000         6.57883502E-05
   6.32520008         8.34164530E-05
   6.33720016         1.01745441E-04
   6.34919977         1.20674747E-04
   6.36119986         1.40091463E-04
   6.37319994         1.59871168E-04
   6.38520002         1.79878814E-04
   6.39720011         1.99969931E-04
   6.40920019         2.19991940E-04
   6.42119980         2.39785848E-04
   6.43319988         2.59187887E-04
   6.44519997         2.78031570E-04
   6.45720005         2.96149432E-04
   6.46920013         3.13375494E-04
   6.48120022         3.29546921E-04
   6.49319983         3.44506581E-04
   6.50519991         3.58104764E-04
   6.51719999         3.70201335E-04
   6.52920008         3.80667741E-04
   6.54120016         3.89388646E-04
   6.55319977         3.96263727E-04
   6.56519985         4.01208963E-04
   6.57719994         4.04158141E-04
   6.58920002         4.05063911E-04
   6.60120010         4.03898564E-04
   6.61320019         4.00654826E-04
   6.62519979         3.95346287E-04
   6.63719988         3.88007407E-04
   6.64919996         3.78693658E-04
   6.66120005         3.67481087E-04
   6.67320013         3.54465592E-04
   6.68520021         3.39762220E-04
   6.69719982         3.23503918E-04
   6.70919991         3.05839989E-04
   6.72119999         2.86934577E-04
   6.73320007         2.66964635E-04
   6.74520016         2.46117677E-04
   6.75719976         2.24589472E-04
   6.76919985         2.02581476E-04
   6.78119993         1.80298099E-04
   6.79320002         1.57943927E-04
   6.80520010         1.35720940E-04
   6.81720018         1.13825663E-04
   6.82919979         9.24464839E-05
   6.84119987         7.17610019E-05
   6.85319996         5.19336245E-05
   6.86520004         3.31134070E-05
   6.87720013         1.54321442E-05
   6.88920021        -9.97195684E-07
   6.90119982        -1.60816508E-05
   6.91319990        -2.97490733E-05
   6.92519999        -4.19485186E-05
   6.93720007        -5.26502336E-05
   6.94920015        -6.18452250E-05
   6.96120024        -6.95444760E-05
   6.97319984        -7.57777234E-05
   6.98519993        -8.05920645E-05
   6.99720001        -8.40501016E-05
   7.00920010        -8.62280576E-05
   7.02120018        -8.72135643E-05
   7.03319979        -8.71035154E-05
   7.04519987        -8.60017026E-05
   7.05719995        -8.40166613E-05
   7.06920004        -8.12594226E-05
   7.08120012        -7.78415706E-05
   7.09320021        -7.38733288E-05
   7.10519981        -6.94619812E-05
   7.11719990        -6.47104389E-05
   7.12919998        -5.97161306E-05
   7.14120007        -5.45701223E-05
   7.15320015        -4.93564767E-05
   7.16520023        -4.41518787E-05
   7.17719984        -3.90254572E-05
   7.18919992        -3.40387523E-05
   7.20120001        -2.92459044E-05
   7.21320009        -2.46938780E-05
   7.22520018        -2.04227981E-05
   7.23719978        -1.64663143E-05
   7.24919987        -1.28519705E-05
   7.26119995        -9.60156922E-06
   7.27320004        -6.73148361E-06
   7.28520012        -4.25293547E-06
   7.29720020        -2.17223419E-06
   7.30919981        -4.90956324E-07
   7.32119989         7.93889171E-07
   7.33319998         1.68971962E-06
   7.34520006         2.20822767E-06
   7.35720015         2.36521259E-06
   7.36920023         2.18036689E-06
   7.38119984         1.67700807E-06
   7.39319992         8.81743404E-07
   7.40520000        -1.75944152E-07
   7.41720009        -1.46418142E-06
   7.42920017        -2.94926440E-06
   7.44119978        -4.59627063E-06
   7.45319986        -6.36971617E-06
   7.46519995        -8.23422488E-06
   7.47720003        -1.01551941E-05
   7.48920012        -1.20994182E-05
   7.50120020        -1.40356542E-05
   7.51319981        -1.59350893E-05
   7.52519989        -1.77717138E-05
   7.53719997        -1.95225603E-05
   7.54920006        -2.11678071E-05
   7.56120014        -2.26907614E-05
   7.57320023        -2.40777135E-05
   7.58519983        -2.53176604E-05
   7.59719992        -2.64019600E-05
   7.60920000        -2.73239075E-05
   7.62120008        -2.80782697E-05
   7.63320017        -2.86608283E-05
   7.64519978        -2.90679218E-05
   7.65719986        -2.92960776E-05
   7.66919994        -2.93416815E-05
   7.68120003        -2.92007971E-05
   7.69320011        -2.88690608E-05
   7.70520020        -2.83417285E-05
   7.71719980        -2.76138217E-05
   7.72919989        -2.66804145E-05
   7.74119997        -2.55369850E-05
   7.75320005        -2.41798716E-05
   7.76520014        -2.26067550E-05
   7.77720022        -2.08171750E-05
   7.78919983        -1.88130252E-05
   7.80119991        -1.65990150E-05
   7.81320000        -1.41830533E-05
   7.82520008        -1.15765424E-05
   7.83720016        -8.79456002E-06
   7.84919977        -5.85592079E-06
   7.86119986        -2.78309744E-06
   7.87319994         3.97976720E-07
   7.88520002         3.65823257E-06
   7.89720011         6.96590132E-06
   7.90920019         1.02870417E-05
   7.92119980         1.35861319E-05
   7.93319988         1.68267252E-05
   7.94519997         1.99721308E-05
   7.95720005         2.29860725E-05
   7.96920013         2.58333712E-05
   7.98120022         2.84805483E-05
   7.99319983         3.08964009E-05
   8.00520039         3.30525290E-05
   8.01720047         3.49237343E-05
   8.02919960         3.64884218E-05
   8.04119968         3.77288488E-05
   8.05319977         3.86313877E-05
   8.06519985         3.91866524E-05
   8.07719994         3.93896153E-05
   8.08920002         3.92396432E-05
   8.10120010         3.87405089E-05
   8.11320019         3.79003577E-05
   8.12520027         3.67315988E-05
   8.13720036         3.52508287E-05
   8.14920044         3.34786528E-05
   8.16119957         3.14394820E-05
   8.17319965         2.91613105E-05
   8.18519974         2.66753977E-05
   8.19719982         2.40159334E-05
   8.20919991         2.12196210E-05
   8.22119999         1.83252123E-05
   8.23320007         1.53729889E-05
   8.24520016         1.24041699E-05
   8.25720024         9.46030468E-06
   8.26920033         6.58260524E-06
   8.28120041         3.81127279E-06
   8.29319954         1.18481250E-06
   8.30519962        -1.26063355E-06
   8.31719971        -3.49192783E-06
   8.32919979        -5.47952277E-06
   8.34119987        -7.19798709E-06
   8.35319996        -8.62644720E-06
   8.36520004        -9.74893555E-06
   8.37720013        -1.05546333E-05
   8.38920021        -1.10380133E-05
   8.40120029        -1.11988656E-05
   8.41320038        -1.10422116E-05
   8.42520046        -1.05781301E-05
   8.43719959        -9.82147503E-06
   8.44919968        -8.79152049E-06
   8.46119976        -7.51153812E-06
   8.47319984        -6.00831572E-06
   8.48519993        -4.31163789E-06
   8.49720001        -2.45374281E-06
   8.50920010        -4.68757463E-07
   8.52120018         1.60786192E-06
   8.53320026         3.73989246E-06
   8.54520035         5.89089223E-06
   8.55720043         8.02472823E-06
   8.56919956         1.01060878E-05
   8.58119965         1.21009680E-05
   8.59319973         1.39771373E-05
   8.60519981         1.57045815E-05
   8.61719990         1.72559230E-05
   8.62919998         1.86068191E-05
   8.64120007         1.97363352E-05
   8.65320015         2.06272889E-05
   8.66520023         2.12665709E-05
   8.67720032         2.16454300E-05
   8.68920040         2.17596989E-05
   8.70119953         2.16099852E-05
   8.71319962         2.12017694E-05
   8.72519970         2.05454562E-05
   8.73719978         1.96563178E-05
   8.74919987         1.85543468E-05
   8.76119995         1.72639902E-05
   8.77320004         1.58137973E-05
   8.78520012         1.42359477E-05
   8.79720020         1.25656697E-05
   8.80920029         1.08405793E-05
   8.82120037         9.09993014E-06
   8.83320045         7.38380004E-06
   8.84519958         5.73225589E-06
   8.85719967         4.18448371E-06
   8.86919975         2.77793833E-06
   8.88119984         1.54752661E-06
   8.89319992         5.24841255E-07
   8.90520000        -2.62526299E-07
   8.91720009        -7.91585194E-07
   8.92920017        -1.04444314E-06
   8.94120026        -1.00869318E-06
   8.95320034        -6.77689002E-07
   8.96520042        -5.07061095E-08
   8.97719955         8.67005895E-07
   8.98919964         2.06428012E-06
   9.00119972         3.52419033E-06
   9.01319981         5.22430219E-06
   9.02519989         7.13702275E-06
   9.03719997         9.23002972E-06
   9.04920006         1.14667919E-05
   9.06120014         1.38071719E-05
   9.07320023         1.62081033E-05
   9.08520031         1.86243578E-05