 -0.622799993         1.00000002E-24
 -0.610800028         1.00000002E-24
 -0.598800004         1.00000002E-24
 -0.586799979         1.00000002E-24
 -0.574800014         1.00000002E-24
 -0.562799990         1.00000012E-24
 -0.550800025         1.00000022E-24
 -0.538800001         1.00000022E-24
 -0.526799977         1.00000022E-24
 -0.514800012         1.00000022E-24
 -0.502799988         1.00000012E-24
 -0.490799993         1.00000002E-24
 -0.478799999         9.99999921E-25
 -0.466800004         9.99999921E-25
 -0.454800010         9.99999921E-25
 -0.442799985         9.99999921E-25
 -0.430799991         1.00000002E-24
 -0.418799996         1.00000012E-24
 -0.406800002         1.00000012E-24
 -0.394800007         9.99999921E-25
 -0.382800013         9.99998935E-25
 -0.370799989         9.99996174E-25
 -0.358799994         9.99989764E-25
 -0.346799999         9.99978720E-25
 -0.334800005         9.99966789E-25
 -0.322800010         9.99970339E-25
 -0.310799986         1.00003029E-24
 -0.298799992         1.00021696E-24
 -0.286799997         1.00061247E-24
 -0.274800003         1.00123764E-24
 -0.262800008         1.00190522E-24
 -0.250800014         1.00201842E-24
 -0.238800004         1.00043665E-24
 -0.226799995         9.95658326E-25
 -0.214800000         9.86653775E-25
 -0.202800006         9.74554325E-25
 -0.190799996         9.64877171E-25
 -0.178800002         9.68957653E-25
 -0.166800007         1.00207324E-24
 -0.154799998         1.07520095E-24
 -0.142800003         1.17887443E-24
 -0.130799994         1.26260077E-24
 -0.118799999         1.22198923E-24
 -0.106799997         9.15489745E-25
  -9.48000029E-02     2.36654771E-25
  -8.28000009E-02    -7.44211920E-25
  -7.07999989E-02    -1.59316337E-24
  -5.88000007E-02    -1.36992471E-24
  -4.67999987E-02     1.30609521E-24
  -3.48000005E-02     7.77572700E-24
  -2.28000004E-02     1.83003802E-23
  -1.08000003E-02     3.05438896E-23
   1.20000006E-03     3.80707018E-23
   1.31999999E-02     2.98728498E-23
   2.52000000E-02    -7.67089212E-24
   3.72000001E-02    -8.51046558E-23
   4.91999984E-02    -2.00175992E-22
   6.12000003E-02    -3.25908884E-22
   7.32000023E-02    -4.01282536E-22
   8.51999968E-02    -3.32234892E-22
   9.71999988E-02    -1.18191093E-23
  0.109200001         6.34447429E-22
  0.121200003         1.58033421E-21
  0.133200005         2.62388334E-21
  0.145199999         3.33816410E-21
  0.157199994         3.09285921E-21
  0.169200003         1.19128629E-21
  0.181199998        -2.85502903E-21
  0.193200007        -8.94118426E-21
  0.205200002        -1.59705570E-20
  0.217199996        -2.16139628E-20
  0.229200006        -2.24413551E-20
  0.241200000        -1.46181280E-20
  0.253199995         4.76328482E-21
  0.265199989         3.58723319E-20
  0.277200013         7.43014468E-20
  0.289200008         1.09931231E-19
  0.301200002         1.27370964E-19
  0.313199997         1.08710079E-19
  0.325199991         3.88148169E-20
  0.337199986        -8.74536767E-20
  0.349200010        -2.57782282E-19
  0.361200005        -4.37342746E-19
  0.373199999        -5.69184944E-19
  0.385199994        -5.82653099E-19
  0.397199988        -4.10738498E-19
  0.409200013        -1.45514447E-20
  0.421200007         5.90188404E-19
  0.433200002         1.31266563E-18
  0.445199996         1.98190303E-18
  0.457199991         2.36532834E-18
  0.469199985         2.21479139E-18
  0.481200010         1.33654137E-18
  0.493200004        -3.27226240E-19
  0.505200028        -2.62584019E-18
  0.517199993        -5.16191680E-18
  0.529200017        -7.31127573E-18
  0.541199982        -8.31586425E-18
  0.553200006        -7.44828496E-18
  0.565199971        -4.22560253E-18
  0.577199996         1.37080754E-18
  0.589200020         8.72777289E-18
  0.601199985         1.65472006E-17
  0.613200009         2.29574036E-17
  0.625199974         2.58106457E-17
  0.637199998         2.31469670E-17
  0.649200022         1.37562460E-17
  0.661199987        -2.27378591E-18
  0.673200011        -2.31648523E-17
  0.685199976        -4.53548953E-17
  0.697200000        -6.38175997E-17
  0.709200025        -7.28415247E-17
  0.721199989        -6.72184701E-17
  0.733200014        -4.36764201E-17
  0.745199978        -2.28238735E-18
  0.757200003         5.25381218E-17
  0.769200027         1.11735676E-16
  0.781199992         1.62427594E-16
  0.793200016         1.89879760E-16
  0.805199981         1.80557275E-16
  0.817200005         1.25810532E-16
  0.829200029         2.54604803E-17
  0.841199994        -1.09659777E-16
  0.853200018        -2.57174291E-16
  0.865199983        -3.85382600E-16
  0.877200007        -4.58463624E-16
  0.889199972        -4.44180584E-16
  0.901199996        -3.22796236E-16
  0.913200021        -9.52177331E-17
  0.925199986         2.11949269E-16
  0.937200010         5.46551133E-16
  0.949199975         8.37508379E-16
  0.961199999         1.00775671E-15
  0.973200023         9.91621154E-16
  0.985199988         7.53105993E-16
  0.997200012         3.00554739E-16
   1.00919998        -3.06867570E-16
   1.02119994        -9.64140334E-16
   1.03320003        -1.53762314E-15
   1.04519999        -1.89221210E-15
   1.05719995        -1.92295453E-15
   1.06920004        -1.58351285E-15
   1.08120000        -9.03517551E-16
   1.09319997         1.12998794E-17
   1.10520005         9.98375712E-16
   1.11720002         1.87397548E-15
   1.12919998         2.47713007E-15
   1.14119995         2.71021596E-15
   1.15320003         2.56400388E-15
   1.16520000         2.11803003E-15
   1.17719996         1.51346015E-15
   1.18920004         9.03786802E-16
   1.20120001         3.96552053E-16
   1.21319997         4.32742722E-18
   1.22520006        -3.76595798E-16
   1.23720002        -9.46852286E-16
   1.24919999        -1.94153144E-15
   1.26119995        -3.53532303E-15
   1.27320004        -5.73837124E-15
   1.28520000        -8.31366819E-15
   1.29719996        -1.07469160E-14
   1.30920005        -1.22910020E-14
   1.32120001        -1.20907312E-14
   1.33319998        -9.37270078E-15
   1.34519994        -3.66533772E-15
   1.35720003         4.99944299E-15
   1.36919999         1.59544060E-14
   1.38119996         2.78769131E-14
   1.39320004         3.89018143E-14
   1.40520000         4.68612000E-14
   1.41719997         4.96172114E-14
   1.42920005         4.54328449E-14
   1.44120002         3.33161741E-14
   1.45319998         1.32779403E-14
   1.46519995        -1.35406340E-14
   1.47720003        -4.48880231E-14
   1.48920000        -7.75630441E-14
   1.50119996        -1.07688130E-13
   1.51320004        -1.31057532E-13
   1.52520001        -1.43524353E-13
   1.53719997        -1.41400428E-13
   1.54920006        -1.21856518E-13
   1.56120002        -8.33192971E-14
   1.57319999        -2.58606816E-14
   1.58519995         4.84380094E-14
   1.59720004         1.35188356E-13
   1.60920000         2.27532565E-13
   1.62119997         3.16206940E-13
   1.63320005         3.89926535E-13
   1.64520001         4.36167947E-13
   1.65719998         4.42379071E-13
   1.66919994         3.97575066E-13
   1.68120003         2.94194058E-13
   1.69319999         1.30001153E-13
   1.70519996        -9.02355041E-14
   1.71720004        -3.53606521E-13
   1.72920001        -6.38754566E-13
   1.74119997        -9.16629294E-13
   1.75320005        -1.15241941E-12
   1.76520002        -1.30863235E-12
   1.77719998        -1.34912643E-12
   1.78919995        -1.24374328E-12
   1.80120003        -9.73063427E-13
   1.81320000        -5.32726207E-13
   1.82519996         6.32533102E-14
   1.83720005         7.80691592E-13
   1.84920001         1.56536763E-12
   1.86119998         2.34531860E-12
   1.87320006         3.03534476E-12
   1.88520002         3.54356648E-12
   1.89719999         3.77968013E-12
   1.90919995         3.66439518E-12
   1.92120004         3.13937309E-12
   1.93320000         2.17689061E-12
   1.94519997         7.88334079E-13
   1.95720005        -9.69421592E-13
   1.96920002        -2.99073114E-12
   1.98119998        -5.12194454E-12
   1.99319994        -7.16704257E-12
   2.00519991        -8.89870989E-12
   2.01719999        -1.00750033E-11
   2.02920008        -1.04611996E-11
   2.04119992        -9.85569005E-12
   2.05320001        -8.11799586E-12
   2.06520009        -5.19627657E-12
   2.07719994        -1.15105527E-12
   2.08920002         3.82833392E-12
   2.10120010         9.41798722E-12
   2.11319995         1.51671471E-11
   2.12520003         2.05211126E-11
   2.13720012         2.48595936E-11
   2.14919996         2.75490013E-11
   2.16120005         2.80054122E-11
   2.17319989         2.57632440E-11
   2.18519998         2.05434107E-11
   2.19720006         1.23139155E-11
   2.20919991         1.33564611E-12
   2.22119999        -1.18133567E-11
   2.23320007        -2.62407266E-11
   2.24519992        -4.07734853E-11
   2.25720000        -5.40241532E-11
   2.26920009        -6.44880538E-11
   2.28119993        -7.06675898E-11
   2.29320002        -7.12162274E-11
   2.30520010        -6.50921053E-11
   2.31719995        -5.17083980E-11
   2.32920003        -3.10659450E-11
   2.34120011        -3.85276099E-12
   2.35319996         2.85046205E-11
   2.36520004         6.38509454E-11
   2.37719989         9.93826896E-11
   2.38919997         1.31803402E-10
   2.40120006         1.57551916E-10
   2.41319990         1.73093845E-10
   2.42519999         1.75258946E-10
   2.43720007         1.61599831E-10
   2.44919991         1.30741321E-10
   2.46120000         8.26852128E-11
   2.47320008         1.90345829E-11
   2.48519993        -5.68970530E-11
   2.49720001        -1.40120374E-10
   2.50920010        -2.24168004E-10
   2.52119994        -3.01462411E-10
   2.53320003        -3.63845343E-10
   2.54520011        -4.03243772E-10
   2.55719995        -4.12430229E-10
   2.56920004        -3.85820625E-10
   2.58119988        -3.20240140E-10
   2.59319997        -2.15581233E-10
   2.60520005        -7.52770901E-11
   2.61719990         9.34801264E-11
   2.62919998         2.79832768E-10
   2.64120007         4.69698447E-10
   2.65319991         6.46567022E-10
   2.66520000         7.92632349E-10
   2.67720008         8.90202134E-10
   2.68919992         9.23300547E-10
   2.70120001         8.79346207E-10
   2.71320009         7.50768059E-10
   2.72519994         5.36406919E-10
   2.73720002         2.42550091E-10
   2.74920011        -1.16544815E-10
   2.76119995        -5.18754706E-10
   2.77320004        -9.34905153E-10
   2.78520012        -1.33032496E-09
   2.79719996        -1.66711023E-09
   2.80920005        -1.90700544E-09
   2.82119989        -2.01473638E-09
   2.83319998        -1.96157091E-09
   2.84520006        -1.72883208E-09
   2.85719991        -1.31104516E-09
   2.86919999        -7.18399007E-10
   2.88120008         2.17967068E-11
   2.89319992         8.64926963E-10
   2.90520000         1.75035741E-09
   2.91720009         2.60429367E-09
   2.92919993         3.34419248E-09
   2.94120002         3.88456733E-09
   2.95320010         4.14389634E-09
   2.96519995         4.05220923E-09
   2.97720003         3.55880592E-09
   2.98920012         2.63949573E-09
   3.00119996         1.30268252E-09
   3.01320004        -4.06343875E-10
   3.02519989        -2.40351983E-09
   3.03719997        -4.56698146E-09
   3.04920006        -6.74122225E-09
   3.06119990        -8.74451889E-09
   3.07319999        -1.03794777E-08
   3.08520007        -1.14462839E-08
   3.09719992        -1.17579901E-08
   3.10920000        -1.11569038E-08
   3.12120008        -9.53097157E-09
   3.13319993        -6.82885348E-09
   3.14520001        -3.07235637E-09
   3.15720010         1.63515701E-09
   3.16919994         7.10566850E-09
   3.18120003         1.30698261E-08
   3.19320011         1.91875849E-08
   3.20519996         2.50667274E-08
   3.21720004         3.02895060E-08
   3.22919989         3.44471687E-08
   3.24119997         3.71817919E-08
   3.25320005         3.82344254E-08
   3.26519990         3.74980367E-08
   3.27719998         3.50736258E-08
   3.28920007         3.13272608E-08
   3.30119991         2.69458980E-08
   3.31320000         2.29893882E-08
   3.32520008         2.09362678E-08
   3.33719993         2.27207675E-08
   3.34920001         3.07586028E-08
   3.36120009         4.79593965E-08
   3.37319994         7.77238753E-08
   3.38520002         1.23924096E-07
   3.39720011         1.90865379E-07
   3.40919995         2.83229440E-07
   3.42120004         4.05998264E-07
   3.43319988         5.64358743E-07
   3.44519997         7.63589526E-07
   3.45720005         1.00893010E-06
   3.46919990         1.30543697E-06
   3.48119998         1.65782524E-06
   3.49320006         2.07030303E-06
   3.50519991         2.54640076E-06
   3.51719999         3.08879976E-06
   3.52920008         3.69916461E-06
   3.54119992         4.37798508E-06
   3.55320001         5.12443557E-06
   3.56520009         5.93625236E-06
   3.57719994         6.80963967E-06
   3.58920002         7.73920874E-06
   3.60120010         8.71795055E-06
   3.61319995         9.73724946E-06
   3.62520003         1.07869491E-05
   3.63720012         1.18554517E-05
   3.64919996         1.29298760E-05
   3.66120005         1.39962549E-05
   3.67319989         1.50397800E-05
   3.68519998         1.60450891E-05
   3.69720006         1.69965733E-05
   3.70919991         1.78787413E-05
   3.72119999         1.86765574E-05
   3.73320007         1.93758387E-05
   3.74519992         1.99636033E-05
   3.75720000         2.04284406E-05
   3.76920009         2.07608373E-05
   3.78119993         2.09534628E-05
   3.79320002         2.10014168E-05
   3.80520010         2.09024201E-05
   3.81719995         2.06569239E-05
   3.82920003         2.02681731E-05
   3.84120011         1.97421614E-05
   3.85319996         1.90875344E-05
   3.86520004         1.83154134E-05
   3.87719989         1.74391262E-05
   3.88919997         1.64739013E-05
   3.90120006         1.54364752E-05
   3.91319990         1.43446850E-05
   3.92519999         1.32170007E-05
   3.93720007         1.20720588E-05
   3.94919991         1.09281800E-05
   3.96120000         9.80291134E-06
   3.97320008         8.71258908E-06
   3.98519993         7.67195525E-06
   3.99720001         6.69382052E-06
   4.00920010         5.78880372E-06
   4.02120018         4.96514258E-06
   4.03319979         4.22859284E-06
   4.04519987         3.58240686E-06
   4.05719995         3.02739886E-06
   4.06920004         2.56209046E-06
   4.08120012         2.18292621E-06
   4.09320021         1.88455238E-06
   4.10519981         1.66014240E-06
   4.11719990         1.50175822E-06
   4.12919998         1.40072723E-06
   4.14120007         1.34802031E-06
   4.15320015         1.33461663E-06
   4.16520023         1.35183541E-06
   4.17719984         1.39162614E-06
   4.18919992         1.44680212E-06
   4.20120001         1.51121321E-06
   4.21320009         1.57985005E-06
   4.22520018         1.64887990E-06
   4.23719978         1.71561692E-06
   4.24919987         1.77843219E-06
   4.26119995         1.83661120E-06
   4.27320004         1.89017226E-06
   4.28520012         1.93965798E-06
   4.29720020         1.98591283E-06
   4.30919981         2.02986212E-06
   4.32119989         2.07230755E-06
   4.33319998         2.11374913E-06
   4.34520006         2.15424552E-06
   4.35720015         2.19332173E-06
   4.36920023         2.22992571E-06
   4.38119984         2.26243833E-06
   4.39319992         2.28873250E-06
   4.40520000         2.30627916E-06
   4.41720009         2.31229046E-06
   4.42920017         2.30389060E-06
   4.44119978         2.27830242E-06
   4.45319986         2.23303914E-06
   4.46519995         2.16608328E-06
   4.47720003         2.07604876E-06
   4.48920012         1.96230894E-06
   4.50120020         1.82508461E-06
   4.51319981         1.66548682E-06
   4.52519989         1.48550919E-06
   4.53719997         1.28797058E-06
   4.54920006         1.07641222E-06
   4.56120014         8.54952020E-07
   4.57320023         6.28108694E-07
   4.58519983         4.00602602E-07
   4.59719992         1.77146774E-07
   4.60920000        -3.77590794E-08
   4.62120008        -2.40019176E-07
   4.63320017        -4.26105601E-07
   4.64519978        -5.93184211E-07
   4.65719986        -7.39195912E-07
   4.66919994        -8.62886225E-07
   4.68120003        -9.63782099E-07
   4.69320011        -1.04211631E-06
   4.70520020        -1.09870336E-06
   4.71719980        -1.13477643E-06
   4.72919989        -1.15179193E-06
   4.74119997        -1.15121907E-06
   4.75320005        -1.13432247E-06
   4.76520014        -1.10196049E-06
   4.77720022        -1.05440756E-06
   4.78919983        -9.91218371E-07
   4.80119991        -9.11145094E-07
   4.81320000        -8.12116980E-07
   4.82520008        -6.91289131E-07
   4.83720016        -5.45161299E-07
   4.84919977        -3.69764507E-07
   4.86119986        -1.60909423E-07
   4.87319994         8.55144719E-08
   4.88520002         3.73205069E-07
   4.89720011         7.05097193E-07
   4.90920019         1.08301390E-06
   4.92119980         1.50734400E-06
   4.93319988         1.97676400E-06
   4.94519997         2.48802689E-06
   4.95720005         3.03583329E-06
   4.96920013         3.61279922E-06
   4.98120022         4.20953165E-06
   4.99319983         4.81481220E-06
   5.00519991         5.41588406E-06
   5.01719999         5.99883879E-06
   5.02920008         6.54908899E-06
   5.04120016         7.05189814E-06
   5.05319977         7.49296078E-06
   5.06519985         7.85898555E-06
   5.07719994         8.13827046E-06
   5.08920002         8.32122896E-06
   5.10120010         8.40085977E-06
   5.11320019         8.37310563E-06
   5.12519979         8.23711434E-06
   5.13719988         7.99536065E-06
   5.14919996         7.65364621E-06
   5.16120005         7.22095183E-06
   5.17320013         6.70916188E-06
   5.18520021         6.13266911E-06
   5.19719982         5.50787536E-06
   5.20919991         4.85260716E-06
   5.22119999         4.18547916E-06
   5.23320007         3.52521783E-06
   5.24520016         2.88998899E-06
   5.25719976         2.29674515E-06
   5.26919985         1.76062258E-06
   5.28119993         1.29440980E-06
   5.29320002         9.08107268E-07
   5.30520010         6.08591790E-07
   5.31720018         3.99399113E-07
   5.32919979         2.80628456E-07
   5.34119987         2.48969741E-07
   5.35319996         2.97850789E-07
   5.36520004         4.17697919E-07
   5.37720013         5.96297241E-07
   5.38920021         8.19243894E-07
   5.40119982         1.07046117E-06
   5.41319990         1.33277376E-06
   5.42519999         1.58851515E-06
   5.43720007         1.82014912E-06
   5.44920015         2.01088369E-06
   5.46120024         2.14526312E-06
   5.47319984         2.20971219E-06
   5.48519993         2.19302024E-06
   5.49720001         2.08674874E-06
   5.50920010         1.88554441E-06
   5.52120018         1.58735224E-06
   5.53319979         1.19351660E-06
   5.54519987         7.08767800E-07
   5.55719995         1.41089401E-07
   5.56920004        -4.98524173E-07
   5.58120012        -1.19641948E-06
   5.59320021        -1.93672986E-06
   5.60519981        -2.70190412E-06
   5.61719990        -3.47329706E-06
   5.62919998        -4.23180518E-06
   5.64120007        -4.95852328E-06
   5.65320015        -5.63539697E-06
   5.66520023        -6.24585709E-06
   5.67719984        -6.77539356E-06
   5.68919992        -7.21207743E-06
   5.70120001        -7.54698385E-06
   5.71320009        -7.77451805E-06
   5.72520018        -7.89262776E-06
   5.73719978        -7.90290505E-06
   5.74919987        -7.81055405E-06
   5.76119995        -7.62425452E-06
   5.77320004        -7.35590902E-06
   5.78520012        -7.02028501E-06
   5.79720020        -6.63457740E-06
   5.80919981        -6.21789377E-06
   5.82119989        -5.79069001E-06
   5.83319998        -5.37416645E-06
   5.84520006        -4.98965755E-06
   5.85720015        -4.65801395E-06
   5.86920023        -4.39901214E-06
   5.88119984        -4.23080201E-06
   5.89319992        -4.16940566E-06
   5.90520000        -4.22827952E-06
   5.91720009        -4.41795601E-06
   5.92920017        -4.74576973E-06
   5.94119978        -5.21566926E-06
   5.95319986        -5.82812936E-06
   5.96519995        -6.58015051E-06
   5.97720003        -7.46535488E-06
   5.98920012        -8.47416777E-06
   6.00120020        -9.59408135E-06
   6.01319981        -1.08099921E-05
   6.02519989        -1.21046023E-05
   6.03719997        -1.34588627E-05
   6.04920006        -1.48524623E-05
   6.06120014        -1.62643264E-05
   6.07320023        -1.76731319E-05
   6.08519983        -1.90577866E-05
   6.09719992        -2.03979052E-05
   6.10920000        -2.16742210E-05
   6.12120008        -2.28689405E-05
   6.13320017        -2.39660385E-05
   6.14519978        -2.49514669E-05
   6.15719986        -2.58132841E-05
   6.16919994        -2.65417111E-05
   6.18120003        -2.71291010E-05
   6.19320011        -2.75698385E-05
   6.20520020        -2.78601910E-05
   6.21719980        -2.79981177E-05
   6.22919989        -2.79830310E-05
   6.24119997        -2.78155858E-05
   6.25320005        -2.74974373E-05
   6.26520014        -2.70310411E-05
   6.27720022        -2.64194987E-05
   6.28919983        -2.56664316E-05
   6.30119991        -2.47759162E-05
   6.31320000        -2.37525001E-05
   6.32520008        -2.26012362E-05
   6.33720016        -2.13278036E-05
   6.34919977        -1.99386486E-05
   6.36119986        -1.84411565E-05
   6.37319994        -1.68438382E-05
   6.38520002        -1.51564982E-05
   6.39720011        -1.33903814E-05
   6.40920019        -1.15582652E-05
   6.42119980        -9.67449068E-06
   6.43319988        -7.75492026E-06
   6.44519997        -5.81680933E-06
   6.45720005        -3.87858518E-06
   6.46920013        -1.95954408E-06
   6.48120022        -7.94734092E-08
   6.49319983         1.74179854E-06
   6.50519991         3.48490153E-06
   6.51719999         5.13145051E-06
   6.52920008         6.66457845E-06
   6.54120016         8.06945991E-06
   6.55319977         9.33378215E-06
   6.56519985         1.04481624E-05
   6.57719994         1.14064678E-05
   6.58920002         1.22060383E-05
   6.60120010         1.28477941E-05
   6.61320019         1.33362182E-05
   6.62519979         1.36792260E-05
   6.63719988         1.38879013E-05
   6.64919996         1.39761414E-05
   6.66120005         1.39601843E-05
   6.67320013         1.38580808E-05
   6.68520021         1.36890912E-05
   6.69719982         1.34730644E-05
   6.70919991         1.32297937E-05
   6.72119999         1.29784012E-05
   6.73320007         1.27367548E-05
   6.74520016         1.25209453E-05
   6.75719976         1.23448417E-05
   6.76919985         1.22197325E-05
   6.78119993         1.21540807E-05
   6.79320002         1.21533694E-05
   6.80520010         1.22200763E-05
   6.81720018         1.23537402E-05
   6.82919979         1.25511342E-05
   6.84119987         1.28065212E-05
   6.85319996         1.31119896E-05
   6.86520004         1.34578522E-05
   6.87720013         1.38330779E-05
   6.88920021         1.42257568E-05
   6.90119982         1.46235689E-05
   6.91319990         1.50142369E-05
   6.92519999         1.53859419E-05
   6.93720007         1.57277191E-05
   6.94920015         1.60297550E-05
   6.96120024         1.62836423E-05
   6.97319984         1.64825469E-05
   6.98519993         1.66212903E-05
   6.99720001         1.66963619E-05
   7.00920010         1.67058406E-05
   7.02120018         1.66492518E-05
   7.03319979         1.65273741E-05
   7.04519987         1.63419954E-05
   7.05719995         1.60956388E-05
   7.06920004         1.57912909E-05
   7.08120012         1.54321315E-05
   7.09320021         1.50212782E-05
   7.10519981         1.45616013E-05
   7.11719990         1.40555712E-05
   7.12919998         1.35051760E-05
   7.14120007         1.29119244E-05
   7.15320015         1.22769097E-05
   7.16520023         1.16009542E-05
   7.17719984         1.08848089E-05
   7.18919992         1.01294163E-05
   7.20120001         9.33618776E-06
   7.21320009         8.50731431E-06
   7.22520018         7.64605466E-06
   7.23719978         6.75699312E-06
   7.24919987         5.84624649E-06
   7.26119995         4.92159052E-06
   7.27320004         3.99249120E-06
   7.28520012         3.07003211E-06
   7.29720020         2.16671947E-06
   7.30919981         1.29617479E-06
   7.32119989         4.72714504E-07
   7.33319998        -2.89170885E-07
   7.34520006        -9.75414082E-07
   7.35720015        -1.57302350E-06
   7.36920023        -2.07075686E-06
   7.38119984        -2.45978345E-06
   7.39319992        -2.73429737E-06
   7.40520000        -2.89204627E-06
   7.41720009        -2.93474000E-06
   7.42920017        -2.86831073E-06
   7.44119978        -2.70299597E-06
   7.45319986        -2.45323236E-06
   7.46519995        -2.13734779E-06
   7.47720003        -1.77705749E-06
   7.48920012        -1.39677491E-06
   7.50120020        -1.02276101E-06
   7.51319981        -6.82145298E-07
   7.52519989        -4.01857051E-07
   7.53719997        -2.07516820E-07
   7.54920006        -1.22335479E-07
   7.56120014        -1.66072226E-07
   7.57320023        -3.54104372E-07
   7.58519983        -6.96649806E-07
   7.59719992        -1.19818526E-06
   7.60920000        -1.85709132E-06
   7.62120008        -2.66554343E-06
   7.63320017        -3.60965782E-06
   7.64519978        -4.66989604E-06
   7.65719986        -5.82170605E-06
   7.66919994        -7.03637988E-06
   7.68120003        -8.28209158E-06
   7.69320011        -9.52506798E-06
   7.70520020        -1.07308415E-05
   7.71719980        -1.18655380E-05
   7.72919989        -1.28971360E-05
   7.74119997        -1.37966499E-05
   7.75320005        -1.45391869E-05
   7.76520014        -1.51048343E-05
   7.77720022        -1.54793452E-05
   7.78919983        -1.56545921E-05
   7.80119991        -1.56287842E-05
   7.81320000        -1.54064273E-05
   7.82520008        -1.49980588E-05
   7.83720016        -1.44197456E-05
   7.84919977        -1.36923973E-05
   7.86119986        -1.28409138E-05
   7.87319994        -1.18932085E-05
   7.88520002        -1.08791683E-05
   7.89720011        -9.82955680E-06
   7.90920019        -8.77496495E-06
   7.92119980        -7.74478394E-06
   7.93319988        -6.76629406E-06
   7.94519997        -5.86387387E-06
   7.95720005        -5.05835123E-06
   7.96920013        -4.36653499E-06
   7.98120022        -3.80091797E-06
   7.99319983        -3.36956623E-06
   8.00520039        -3.07618075E-06
   8.01720047        -2.92032564E-06
   8.02919960        -2.89779996E-06
   8.04119968        -3.00112856E-06
   8.05319977        -3.22015103E-06
   8.06519985        -3.54267036E-06
   8.07719994        -3.95513280E-06
   8.08920002        -4.44331044E-06
   8.10120010        -4.99295493E-06
   8.11320019        -5.59039290E-06
   8.12520027        -6.22304469E-06
   8.13720036        -6.87984812E-06
   8.14920044        -7.55155907E-06
   8.16119957        -8.23093615E-06
   8.17319965        -8.91279342E-06
   8.18519974        -9.59392673E-06
   8.19719982        -1.02729164E-05
   8.20919991        -1.09498187E-05
   8.22119999        -1.16257734E-05
   8.23320007        -1.23025302E-05
   8.24520016        -1.29819373E-05
   8.25720024        -1.36654171E-05
   8.26920033        -1.43534398E-05
   8.28120041        -1.50450605E-05
   8.29319954        -1.57375216E-05
   8.30519962        -1.64259418E-05
   8.31719971        -1.71031570E-05
   8.32919979        -1.77596739E-05
   8.34119987        -1.83837910E-05
   8.35319996        -1.89618713E-05
   8.36520004        -1.94787717E-05
   8.37720013        -1.99184033E-05
   8.38920021        -2.02644278E-05
   8.40120029        -2.05010256E-05
   8.41320038        -2.06137247E-05
   8.42520046        -2.05902379E-05
   8.43719959        -2.04212720E-05
   8.44919968        -2.01012572E-05
   8.46119976        -1.96289384E-05
   8.47319984        -1.90078244E-05
   8.48519993        -1.82464210E-05
   8.49720001        -1.73582539E-05
   8.50920010        -1.63616642E-05
   8.52120018        -1.52793527E-05
   8.53320026        -1.41377350E-05
   8.54520035        -1.29660684E-05
   8.55720043        -1.17954432E-05
   8.56919956        -1.06576481E-05
   8.58119965        -9.58397504E-06
   8.59319973        -8.60402270E-06
   8.60519981        -7.74454838E-06
   8.61719990        -7.02843545E-06
   8.62919998        -6.47381421E-06
   8.64120007        -6.09339577E-06
   8.65320015        -5.89403771E-06
   8.66520023        -5.87657178E-06
   8.67720032        -6.03589615E-06
   8.68920040        -6.36131927E-06
   8.70119953        -6.83715143E-06
   8.71319962        -7.44347699E-06
   8.72519970        -8.15710519E-06
   8.73719978        -8.95260837E-06
   8.74919987        -9.80341792E-06
   8.76119995        -1.06829157E-05
   8.77320004        -1.15654584E-05
   8.78520012        -1.24273147E-05
   8.79720020        -1.32474379E-05
   8.80920029        -1.40080838E-05
   8.82120037        -1.46952370E-05
   8.83320045        -1.52988323E-05
   8.84519958        -1.58127950E-05
   8.85719967        -1.62349097E-05
   8.86919975        -1.65665260E-05
   8.88119984        -1.68121423E-05
   8.89319992        -1.69789000E-05
   8.90520000        -1.70760086E-05
   8.91720009        -1.71141546E-05
   8.92920017        -1.71048996E-05
   8.94120026        -1.70601161E-05
   8.95320034        -1.69914638E-05
   8.96520042        -1.69099349E-05
   8.97719955        -1.68254737E-05
   8.98919964        -1.67466660E-05
   9.00119972        -1.66805039E-05
   9.01319981        -1.66322534E-05
   9.02519989        -1.66053560E-05
   9.03719997        -1.66014161E-05
   9.04920006        -1.66202408E-05
   9.06120014        -1.66599311E-05
   9.07320023        -1.67170219E-05
   9.08520031        -1.67866565E-05