 -0.622799993       0.00000000    
 -0.610800028       0.00000000    
 -0.598800004       0.00000000    
 -0.586799979       0.00000000    
 -0.574800014       0.00000000    
 -0.562799990       0.00000000    
 -0.550800025       0.00000000    
 -0.538800001       0.00000000    
 -0.526799977       0.00000000    
 -0.514800012       3.45501329E-32
 -0.502799988       5.57597532E-31
 -0.490799993       4.47407594E-30
 -0.478799999       2.34522490E-29
 -0.466800004       8.83294246E-29
 -0.454800010       2.44495771E-28
 -0.442799985       4.67008497E-28
 -0.430799991       3.82317148E-28
 -0.418799996      -1.24845915E-27
 -0.406800002      -6.93389630E-27
 -0.394800007      -1.95559111E-26
 -0.382800013      -3.81575009E-26
 -0.370799989      -4.91048935E-26
 -0.358799994      -1.59033604E-26
 -0.346799999       1.19434761E-25
 -0.334800005       4.00041349E-25
 -0.322800010       7.61233320E-25
 -0.310799986       8.93915188E-25
 -0.298799992       1.58146360E-25
 -0.286799997      -2.25375825E-24
 -0.274800003      -6.65977675E-24
 -0.262800008      -1.16519710E-23
 -0.250800014      -1.26977055E-23
 -0.238800004      -1.80116390E-24
 -0.226799995       2.98307436E-23
 -0.214800000       8.43609935E-23
 -0.202800006       1.45479115E-22
 -0.190799996       1.66991466E-22
 -0.178800002       7.25227535E-23
 -0.166800007      -2.19309920E-22
 -0.154799998      -7.33904235E-22
 -0.142800003      -1.35051775E-21
 -0.130799994      -1.72012976E-21
 -0.118799999      -1.26309571E-21
 -0.106799997       6.64909880E-22
  -9.48000029E-02   4.38137699E-21
  -8.28000009E-02   9.30556621E-21
  -7.07999989E-02   1.34227131E-20
  -5.88000007E-02   1.31803145E-20
  -4.67999987E-02   4.29344098E-21
  -3.48000005E-02  -1.62244918E-20
  -2.28000004E-02  -4.69911839E-20
  -1.08000003E-02  -7.91393225E-20
   1.20000006E-03  -9.50094482E-20
   1.31999999E-02  -7.09354938E-20
   2.52000000E-02   1.41833655E-20
   3.72000001E-02   1.64859823E-19
   4.91999984E-02   3.53232746E-19
   6.12000003E-02   5.08932901E-19
   7.32000023E-02   5.24294628E-19
   8.51999968E-02   2.83206298E-19
   9.71999988E-02  -2.84914426E-19
  0.109200001      -1.13666011E-18
  0.121200003      -2.05686028E-18
  0.133200005      -2.64760310E-18
  0.145199999      -2.39975105E-18
  0.157199994      -8.64268082E-19
  0.169200003       2.09721635E-18
  0.181199998       6.05335611E-18
  0.193200007       9.85165740E-18
  0.205200002       1.17071186E-17
  0.217199996       9.62735911E-18
  0.229200006       2.17109992E-18
  0.241200000      -1.06139639E-17
  0.253199995      -2.63882196E-17
  0.265199989      -4.02697628E-17
  0.277200013      -4.55273757E-17
  0.289200008      -3.53998825E-17
  0.301200002      -5.84011474E-18
  0.313199997       4.14979804E-17
  0.325199991       9.71282291E-17
  0.337199986       1.43710058E-16
  0.349200010       1.59103003E-16
  0.361200005       1.22668926E-16
  0.373199999       2.37937180E-17
  0.385199994      -1.29693701E-16
  0.397199988      -3.06442253E-16
  0.409200013      -4.53117258E-16
  0.421200007      -5.04642536E-16
  0.433200002      -4.02809244E-16
  0.445199996      -1.19710981E-16
  0.457199991       3.20602156E-16
  0.469199985       8.30617131E-16
  0.481200010       1.26572250E-15
  0.493200004       1.45255457E-15
  0.505200028       1.23715748E-15
  0.517199993       5.43219752E-16
  0.529200017      -5.75979651E-16
  0.541199982      -1.91137135E-15
  0.553200006      -3.11452215E-15
  0.565199971      -3.76454561E-15
  0.577199996      -3.47905146E-15
  0.589200020      -2.04642440E-15
  0.601199985       4.56672361E-16
  0.613200009       3.60402609E-15
  0.625199974       6.64970754E-15
  0.637199998       8.66447027E-15
  0.649200022       8.76488010E-15
  0.661199987       6.38902383E-15
  0.673200011       1.54686353E-15
  0.685199976      -5.03651339E-15
  0.697200000      -1.19534060E-14
  0.709200025      -1.73535316E-14
  0.721199989      -1.93685163E-14
  0.733200014      -1.66380192E-14
  0.745199978      -8.80687260E-15
  0.757200003       3.15641364E-15
  0.769200027       1.69480349E-14
  0.781199992       2.92893659E-14
  0.793200016       3.66303193E-14
  0.805199981       3.60627496E-14
  0.817200005       2.62266676E-14
  0.829200029       7.95522248E-15
  0.841199994      -1.55663056E-14
  0.853200018      -3.92535600E-14
  0.865199983      -5.71632314E-14
  0.877200007      -6.39271622E-14
  0.889199972      -5.62472669E-14
  0.901199996      -3.40509278E-14
  0.913200021      -9.42459467E-16
  0.925199986       3.62693918E-14
  0.937200010       6.89612552E-14
  0.949199975       8.87391695E-14
  0.961199999       8.96571229E-14
  0.973200023       7.00208595E-14
  0.985199988       3.32317317E-14
  0.997200012      -1.26711657E-14
   1.00919998      -5.67848686E-14
   1.02119994      -8.80762070E-14
   1.03320003      -9.84045405E-14
   1.04519999      -8.50040321E-14
   1.05719995      -5.16560400E-14
   1.06920004      -8.07205035E-15
   1.08120000       3.25299852E-14
   1.09319997       5.71500380E-14
   1.10520005       5.70854263E-14
   1.11720002       3.12002790E-14
   1.12919998      -1.26908770E-14
   1.14119995      -5.89917113E-14
   1.15320003      -8.80610417E-14
   1.16520000      -8.17991169E-14
   1.17719996      -2.97403703E-14
   1.18920004       6.60158099E-14
   1.20120001       1.88611510E-13
   1.21319997       3.08015196E-13
   1.22520006       3.86552850E-13
   1.23720002       3.87534541E-13
   1.24919999       2.85216946E-13
   1.26119995       7.37856499E-14
   1.27320004      -2.26994950E-13
   1.28520000      -5.71281846E-13
   1.29719996      -8.92606193E-13
   1.30920005      -1.11480194E-12
   1.32120001      -1.16666876E-12
   1.33319998      -9.97671563E-13
   1.34519994      -5.91549542E-13
   1.35720003       2.50845419E-14
   1.36919999       7.81268062E-13
   1.38119996       1.56820726E-12
   1.39320004       2.25323384E-12
   1.40520000       2.69930888E-12
   1.41719997       2.78718346E-12
   1.42920005       2.43682526E-12
   1.44120002       1.62477746E-12
   1.45319998       3.94675883E-13
   1.46519995      -1.14090204E-12
   1.47720003      -2.80793661E-12
   1.48920000      -4.38731213E-12
   1.50119996      -5.63844674E-12
   1.51320004      -6.32782585E-12
   1.52520001      -6.25952328E-12
   1.53719997      -5.30456234E-12
   1.54920006      -3.42603506E-12
   1.56120002      -6.97170132E-13
   1.57319999       2.69000252E-12
   1.58519995       6.42720556E-12
   1.59720004       1.01048909E-11
   1.60920000       1.32401971E-11
   1.62119997       1.53177158E-11
   1.63320005       1.58420187E-11
   1.64520001       1.43997106E-11
   1.65719998       1.07272706E-11
   1.66919994       4.77903220E-12
   1.68120003      -3.21252573E-12
   1.69319999      -1.26940203E-11
   1.70519996      -2.27773217E-11
   1.71720004      -3.22660787E-11
   1.72920001      -3.97323355E-11
   1.74119997      -4.36484494E-11
   1.75320005      -4.25724837E-11
   1.76520002      -3.53756538E-11
   1.77719998      -2.14896417E-11
   1.78919995      -1.14114610E-12
   1.80120003       2.44669025E-11
   1.81320000       5.30710580E-11
   1.82519996       8.13998591E-11
   1.83720005       1.05391390E-10
   1.84920001       1.20584653E-10
   1.86119998       1.22667668E-10
   1.87320006       1.08136444E-10
   1.88520002       7.49909926E-11
   1.89719999       2.33723440E-11
   1.90919995      -4.39664069E-11
   1.92120004      -1.21459717E-10
   1.93320000      -2.00885419E-10
   1.94519997      -2.71927370E-10
   1.95720005      -3.23148092E-10
   1.96920002      -3.43318596E-10
   1.98119998      -3.22996296E-10
   1.99319994      -2.56190319E-10
   2.00519991      -1.41917145E-10
   2.01719999       1.45688461E-11
   2.02920008       2.01079903E-10
   2.04119992       3.98513278E-10
   2.05320001       5.81707793E-10
   2.06520009       7.21187665E-10
   2.07719994       7.85751075E-10
   2.08920002       7.45763062E-10
   2.10120010       5.76913239E-10
   2.11319995       2.64111288E-10
   2.12520003      -1.94875893E-10
   2.13720012      -7.86481325E-10
   2.14919996      -1.47952184E-09
   2.16120005      -2.22489827E-09
   2.17319989      -2.95710234E-09
   2.18519998      -3.59767016E-09
   2.19720006      -4.06053191E-09
   2.20919991      -4.25897406E-09
   2.22119999      -4.11369649E-09
   2.23320007      -3.56120333E-09
   2.24519992      -2.56157384E-09
   2.25720000      -1.10452558E-09
   2.26920009       7.87373333E-10
   2.28119993       3.05943604E-09
   2.29320002       5.63048097E-09
   2.30520010       8.40403303E-09
   2.31719995       1.12854961E-08
   2.32920003       1.42052805E-08
   2.34120011       1.71475492E-08
   2.35319996       2.01838155E-08
   2.36520004       2.35103848E-08
   2.37719989       2.74883796E-08
   2.38919997       3.26849090E-08
   2.40120006       3.99139459E-08
   2.41319990       5.02753608E-08
   2.42519999       6.51906760E-08
   2.43720007       8.64340350E-08
   2.44919991       1.16156961E-07
   2.46120000       1.56905330E-07
   2.47320008       2.11626826E-07
   2.48519993       2.83667191E-07
   2.49720001       3.76752922E-07
   2.50920010       4.94958215E-07
   2.52119994       6.42653958E-07
   2.53320003       8.24435460E-07
   2.54520011       1.04502760E-06
   2.55719995       1.30916442E-06
   2.56920004       1.62144272E-06
   2.58119988       1.98614907E-06
   2.59319997       2.40706208E-06
   2.60520005       2.88723277E-06
   2.61719990       3.42874796E-06
   2.62919998       4.03248623E-06
   2.64120007       4.69787346E-06
   2.65319991       5.42265207E-06
   2.66520000       6.20267701E-06
   2.67720008       7.03175419E-06
   2.68919992       7.90153263E-06
   2.70120001       8.80147036E-06
   2.71320009       9.71888403E-06
   2.72519994       1.06390853E-05
   2.73720002       1.15456241E-05
   2.74920011       1.24206190E-05
   2.76119995       1.32451951E-05
   2.77320004       1.39999884E-05
   2.78520012       1.46657303E-05
   2.79719996       1.52238681E-05
   2.80920005       1.56572023E-05
   2.82119989       1.59505253E-05
   2.83319998       1.60911950E-05
   2.84520006       1.60696727E-05
   2.85719991       1.58799230E-05
   2.86919999       1.55197285E-05
   2.88120008       1.49908365E-05
   2.89319992       1.42989711E-05
   2.90520000       1.34536876E-05
   2.91720009       1.24680801E-05
   2.92919993       1.13583510E-05
   2.94120002       1.01432670E-05
   2.95320010       8.84352994E-06
   2.96519995       7.48108323E-06
   2.97720003       6.07839866E-06
   2.98920012       4.65776975E-06
   3.00119996       3.24064717E-06
   3.01320004       1.84703947E-06
   3.02519989       4.95009374E-07
   3.03719997      -7.99724432E-07
   3.04920006      -2.02406409E-06
   3.06119990      -3.16769024E-06
   3.07319999      -4.22310086E-06
   3.08520007      -5.18554452E-06
   3.09719992      -6.05286277E-06
   3.10920000      -6.82525615E-06
   3.12120008      -7.50500158E-06
   3.13319993      -8.09613448E-06
   3.14520001      -8.60412092E-06
   3.15720010      -9.03552882E-06
   3.16919994      -9.39772144E-06
   3.18120003      -9.69857956E-06
   3.19320011      -9.94624497E-06
   3.20519996      -1.01489150E-05
   3.21720004      -1.03146613E-05
   3.22919989      -1.04512801E-05
   3.24119997      -1.05661748E-05
   3.25320005      -1.06662546E-05
   3.26519990      -1.07578508E-05
   3.27719998      -1.08466456E-05
   3.28920007      -1.09376087E-05
   3.30119991      -1.10349374E-05
   3.31320000      -1.11420104E-05
   3.32520008      -1.12613498E-05
   3.33719993      -1.13945880E-05
   3.34920001      -1.15424591E-05
   3.36120009      -1.17048012E-05
   3.37319994      -1.18805910E-05
   3.38520002      -1.20679870E-05
   3.39720011      -1.22644169E-05
   3.40919995      -1.24666776E-05
   3.42120004      -1.26710675E-05
   3.43319988      -1.28735364E-05
   3.44519997      -1.30698572E-05
   3.45720005      -1.32558089E-05
   3.46919990      -1.34273741E-05
   3.48119998      -1.35809296E-05
   3.49320006      -1.37134411E-05
   3.50519991      -1.38226424E-05
   3.51719999      -1.39071999E-05
   3.52920008      -1.39668446E-05
   3.54119992      -1.40024804E-05
   3.55320001      -1.40162401E-05
   3.56520009      -1.40115062E-05
   3.57719994      -1.39928616E-05
   3.58920002      -1.39659978E-05
   3.60120010      -1.39375397E-05
   3.61319995      -1.39148178E-05
   3.62520003      -1.39055728E-05
   3.63720012      -1.39176054E-05
   3.64919996      -1.39583717E-05
   3.66120005      -1.40345419E-05
   3.67319989      -1.41515611E-05
   3.68519998      -1.43131911E-05
   3.69720006      -1.45210925E-05
   3.70919991      -1.47744822E-05
   3.72119999      -1.50698552E-05
   3.73320007      -1.54008358E-05
   3.74519992      -1.57581653E-05
   3.75720000      -1.61298467E-05
   3.76920009      -1.65014499E-05
   3.78119993      -1.68566003E-05
   3.79320002      -1.71776119E-05
   3.80520010      -1.74462621E-05
   3.81719995      -1.76446865E-05
   3.82920003      -1.77563361E-05
   3.84120011      -1.77669608E-05
   3.85319996      -1.76655540E-05
   3.86520004      -1.74452416E-05
   3.87719989      -1.71039937E-05
   3.88919997      -1.66451919E-05
   3.90120006      -1.60779346E-05
   3.91319990      -1.54171157E-05
   3.92519999      -1.46831981E-05
   3.93720007      -1.39017247E-05
   3.94919991      -1.31025627E-05
   3.96120000      -1.23188938E-05
   3.97320008      -1.15860157E-05
   3.98519993      -1.09399825E-05
   3.99720001      -1.04161581E-05
   4.00920010      -1.00477382E-05
   4.02120018      -9.86430678E-06
   4.03319979      -9.89050659E-06
   4.04519987      -1.01448522E-05
   4.05719995      -1.06387788E-05
   4.06920004      -1.13759315E-05
   4.08120012      -1.23517539E-05
   4.09320021      -1.35533865E-05
   4.10519981      -1.49598836E-05
   4.11719990      -1.65427518E-05
   4.12919998      -1.82667918E-05
   4.14120007      -2.00912255E-05
   4.15320015      -2.19710746E-05
   4.16520023      -2.38587327E-05
   4.17719984      -2.57057181E-05
   4.18919992      -2.74645208E-05
   4.20120001      -2.90904845E-05
   4.21320009      -3.05436697E-05
   4.22520018      -3.17906270E-05
   4.23719978      -3.28059687E-05
   4.24919987      -3.35737532E-05
   4.26119995      -3.40884908E-05
   4.27320004      -3.43558240E-05
   4.28520012      -3.43927350E-05
   4.29720020      -3.42272797E-05
   4.30919981      -3.38978243E-05
   4.32119989      -3.34517681E-05
   4.33319998      -3.29437134E-05
   4.34520006      -3.24332141E-05
   4.35720015      -3.19820974E-05
   4.36920023      -3.16514452E-05
   4.38119984      -3.14983663E-05
   4.39319992      -3.15726829E-05
   4.40520000      -3.19136198E-05
   4.41720009      -3.25467081E-05
   4.42920017      -3.34809883E-05
   4.44119978      -3.47066634E-05
   4.45319986      -3.61933198E-05
   4.46519995      -3.78888217E-05
   4.47720003      -3.97189287E-05
   4.48920012      -4.15876784E-05
   4.50120020      -4.33785826E-05
   4.51319981      -4.49565377E-05
   4.52519989      -4.61704985E-05
   4.53719997      -4.68567487E-05
   4.54920006      -4.68427061E-05
   4.56120014      -4.59511721E-05
   4.57320023      -4.40048498E-05
   4.58519983      -4.08310443E-05
   4.59719992      -3.62663777E-05
   4.60920000      -3.01614346E-05
   4.62120008      -2.23852148E-05
   4.63320017      -1.28292477E-05
   4.64519978      -1.41135286E-06
   4.65719986       1.19210754E-05
   4.66919994       2.71883109E-05
   4.68120003       4.43761091E-05
   4.69320011       6.34341341E-05
   4.70520020       8.42750596E-05
   4.71719980       1.06774271E-04
   4.72919989       1.30770379E-04
   4.74119997       1.56066337E-04
   4.75320005       1.82431308E-04
   4.76520014       2.09603255E-04
   4.77720022       2.37292232E-04
   4.78919983       2.65184324E-04
   4.80119991       2.92946352E-04
   4.81320000       3.20230960E-04
   4.82520008       3.46682384E-04
   4.83720016       3.71942733E-04
   4.84919977       3.95658251E-04
   4.86119986       4.17486241E-04
   4.87319994       4.37101611E-04
   4.88520002       4.54203750E-04
   4.89720011       4.68522543E-04
   4.90920019       4.79824666E-04
   4.92119980       4.87918616E-04
   4.93319988       4.92659572E-04
   4.94519997       4.93952946E-04
   4.95720005       4.91756888E-04
   4.96920013       4.86083998E-04
   4.98120022       4.77001799E-04
   4.99319983       4.64631506E-04
   5.00519991       4.49146319E-04
   5.01719999       4.30768094E-04
   5.02920008       4.09762957E-04
   5.04120016       3.86435859E-04
   5.05319977       3.61124752E-04
   5.06519985       3.34193377E-04
   5.07719994       3.06024012E-04
   5.08920002       2.77009764E-04
   5.10120010       2.47546675E-04
   5.11320019       2.18025991E-04
   5.12519979       1.88826598E-04
   5.13719988       1.60308031E-04
   5.14919996       1.32803892E-04
   5.16120005       1.06616273E-04
   5.17320013       8.20108253E-05
   5.18520021       5.92129581E-05
   5.19719982       3.84050254E-05
   5.20919991       1.97245590E-05
   5.22119999       3.26362169E-06
   5.23320007      -1.09307775E-05
   5.24520016      -2.28552726E-05
   5.25719976      -3.25478031E-05
   5.26919985      -4.00843637E-05
   5.28119993      -4.55751069E-05
   5.29320002      -4.91597275E-05
   5.30520010      -5.10024729E-05
   5.31720018      -5.12867773E-05
   5.32919979      -5.02097573E-05
   5.34119987      -4.79766750E-05
   5.35319996      -4.47955281E-05
   5.36520004      -4.08719243E-05
   5.37720013      -3.64043517E-05
   5.38920021      -3.15799589E-05
   5.40119982      -2.65709332E-05
   5.41319990      -2.15315795E-05
   5.42519999      -1.65960992E-05
   5.43720007      -1.18771404E-05
   5.44920015      -7.46510477E-06
   5.46120024      -3.42816270E-06
   5.47319984       1.87017079E-07
   5.48519993       3.35396453E-06
   5.49720001       6.06454296E-06
   5.50920010       8.32669411E-06
   5.52120018       1.01618580E-05
   5.53319979       1.16021920E-05
   5.54519987       1.26877330E-05
   5.55719995       1.34635675E-05
   5.56920004       1.39771528E-05
   5.58120012       1.42758508E-05
   5.59320021       1.44047681E-05
   5.60519981       1.44049436E-05
   5.61719990       1.43119314E-05
   5.62919998       1.41547926E-05
   5.64120007       1.39555123E-05
   5.65320015       1.37288107E-05
   5.66520023       1.34823367E-05
   5.67719984       1.32171972E-05
   5.68919992       1.29287846E-05
   5.70120001       1.26078385E-05
   5.71320009       1.22416968E-05
   5.72520018       1.18156831E-05
   5.73719978       1.13145488E-05
   5.74919987       1.07239402E-05
   5.76119995       1.00318130E-05
   5.77320004       9.22974323E-06
   5.78520012       8.31410034E-06
   5.79720020       7.28699570E-06
   5.80919981       6.15698809E-06
   5.82119989       4.93951256E-06
   5.83319998       3.65698315E-06
   5.84520006       2.33856667E-06
   5.85720015       1.01961155E-06
   5.86920023      -2.59260560E-07
   5.88119984      -1.45337185E-06
   5.89319992      -2.51549045E-06
   5.90520000      -3.39755343E-06
   5.91720009      -4.05255696E-06
   5.92920017      -4.43652607E-06
   5.94119978      -4.51049027E-06
   5.95319986      -4.24236350E-06
   5.96519995      -3.60866056E-06
   5.97720003      -2.59594390E-06
   5.98920012      -1.20194932E-06
   6.00120020       5.63674234E-07
   6.01319981       2.67905625E-06
   6.02519989       5.11024018E-06
   6.03719997       7.81177187E-06
   6.04920006       1.07277156E-05
   6.06120014       1.37930729E-05
   6.07320023       1.69355444E-05
   6.08519983       2.00775776E-05
   6.09719992       2.31386257E-05
   6.10920000       2.60375382E-05
   6.12120008       2.86950090E-05
   6.13320017       3.10359901E-05
   6.14519978       3.29920222E-05
   6.15719986       3.45033659E-05
   6.16919994       3.55209231E-05
   6.18120003       3.60078520E-05
   6.19320011       3.59408514E-05
   6.20520020       3.53110554E-05
   6.21719980       3.41245395E-05
   6.22919989       3.24024077E-05
   6.24119997       3.01804575E-05
   6.25320005       2.75084021E-05
   6.26520014       2.44487401E-05
   6.27720022       2.10752169E-05
   6.28919983       1.74709749E-05
   6.30119991       1.37264224E-05
   6.31320000       9.93689173E-06
   6.32520008       6.20014316E-06
   6.33720016       2.61379637E-06
   6.34919977      -7.27248846E-07
   6.36119986      -3.73331886E-06
   6.37319994      -6.32232150E-06
   6.38520002      -8.42190911E-06
   6.39720011      -9.97136704E-06
   6.40920019      -1.09232005E-05
   6.42119980      -1.12443659E-05
   6.43319988      -1.09171388E-05
   6.44519997      -9.93959657E-06
   6.45720005      -8.32570913E-06
   6.46920013      -6.10505776E-06
   6.48120022      -3.32218110E-06
   6.49319983      -3.55726044E-08
   6.50519991       3.68363112E-06
   6.51719999       7.75325225E-06
   6.52920008       1.20819332E-05
   6.54120016       1.65712008E-05
   6.55319977       2.11177012E-05
   6.56519985       2.56155708E-05
   6.57719994       2.99588719E-05
   6.58920002       3.40440529E-05
   6.60120010       3.77724027E-05
   6.61320019       4.10523935E-05
   6.62519979       4.38019160E-05
   6.63719988       4.59503244E-05
   6.64919996       4.74402259E-05
   6.66120005       4.82289943E-05
   6.67320013       4.82899704E-05
   6.68520021       4.76132554E-05
   6.69719982       4.62061253E-05
   6.70919991       4.40930380E-05
   6.72119999       4.13151865E-05
   6.73320007       3.79296216E-05
   6.74520016       3.40079641E-05
   6.75719976       2.96347080E-05
   6.76919985       2.49051664E-05
   6.78119993       1.99230581E-05
   6.79320002       1.47978917E-05
   6.80520010       9.64209721E-06
   6.81720018       4.56804401E-06
   6.82919979      -3.14954633E-07
   6.84119987      -4.90360708E-06
   6.85319996      -9.10345261E-06
   6.86520004      -1.28314259E-05
   6.87720013      -1.60180916E-05
   6.88920021      -1.86094476E-05
   6.90119982      -2.05682391E-05
   6.91319990      -2.18747173E-05
   6.92519999      -2.25268159E-05
   6.93720007      -2.25396961E-05
   6.94920015      -2.19447284E-05
   6.96120024      -2.07878893E-05
   6.97319984      -1.91276740E-05
   6.98519993      -1.70326075E-05
   6.99720001      -1.45784597E-05
   7.00920010      -1.18452717E-05
   7.02120018      -8.91437685E-06
   7.03319979      -5.86548504E-06
   7.04519987      -2.77402728E-06
   7.05719995       2.91186097E-07
   7.06920004       3.26985514E-06
   7.08120012       6.11157930E-06
   7.09320021       8.77669754E-06
   7.10519981       1.12365742E-05
   7.11719990       1.34733564E-05
   7.12919998       1.54792378E-05
   7.14120007       1.72553137E-05
   7.15320015       1.88101312E-05
   7.16520023       2.01579969E-05
   7.17719984       2.13172116E-05
   7.18919992       2.23082770E-05
   7.20120001       2.31522190E-05
   7.21320009       2.38690773E-05
   7.22520018       2.44766652E-05
   7.23719978       2.49895875E-05
   7.24919987       2.54186052E-05
   7.26119995       2.57702977E-05
   7.27320004       2.60470242E-05
   7.28520012       2.62471622E-05
   7.29720020       2.63655566E-05
   7.30919981       2.63941492E-05
   7.32119989       2.63227430E-05
   7.33319998       2.61397981E-05
   7.34520006       2.58332911E-05
   7.35720015       2.53915296E-05
   7.36920023       2.48039287E-05
   7.38119984       2.40617210E-05
   7.39319992       2.31585709E-05
   7.40520000       2.20910988E-05
   7.41720009       2.08593301E-05
   7.42920017       1.94670156E-05
   7.44119978       1.79218732E-05
   7.45319986       1.62357428E-05
   7.46519995       1.44246260E-05
   7.47720003       1.25086326E-05
   7.48920012       1.05118224E-05
   7.50120020       8.46192961E-06
   7.51319981       6.38997699E-06
   7.52519989       4.32975730E-06
   7.53719997       2.31720674E-06
   7.54920006       3.89651206E-07
   7.56120014      -1.41504268E-06
   7.57320023      -3.05940875E-06
   7.58519983      -4.50737480E-06
   7.59719992      -5.72528370E-06
   7.60920000      -6.68290340E-06
   7.62120008      -7.35437698E-06
   7.63320017      -7.71907526E-06
   7.64519978      -7.76230809E-06
   7.65719986      -7.47586591E-06
   7.66919994      -6.85835312E-06
   7.68120003      -5.91530306E-06
   7.69320011      -4.65906487E-06
   7.70520020      -3.10847736E-06
   7.71719980      -1.28833631E-06
   7.72919989       7.71310113E-07
   7.74119997       3.03600063E-06
   7.75320005       5.46779756E-06
   7.76520014       8.02626710E-06
   7.77720022       1.06694724E-05
   7.78919983       1.33549238E-05
   7.80119991       1.60404652E-05
   7.81320000       1.86850702E-05
   7.82520008       2.12495106E-05
   7.83720016       2.36969281E-05
   7.84919977       2.59932731E-05
   7.86119986       2.81076555E-05
   7.87319994       3.00126085E-05
   7.88520002       3.16842743E-05
   7.89720011       3.31025622E-05
   7.90920019       3.42512794E-05
   7.92119980       3.51182316E-05
   7.93319988       3.56953642E-05
   7.94519997       3.59788501E-05
   7.95720005       3.59692021E-05
   7.96920013       3.56713572E-05
   7.98120022       3.50947157E-05
   7.99319983       3.42531166E-05
   8.00520039       3.31647680E-05
   8.01720047       3.18520397E-05
   8.02919960       3.03411816E-05
   8.04119968       2.86619052E-05
   8.05319977       2.68468521E-05
   8.06519985       2.49309705E-05
   8.07719994       2.29507768E-05
   8.08920002       2.09435693E-05
   8.10120010       1.89465773E-05
   8.11320019       1.69961295E-05
   8.12520027       1.51268196E-05
   8.13720036       1.33707599E-05
   8.14920044       1.17568898E-05
   8.16119957       1.03104276E-05
   8.17319965       9.05242723E-06
   8.18519974       7.99949066E-06
   8.19719982       7.16361001E-06
   8.20919991       6.55215217E-06
   8.22119999       6.16796115E-06
   8.23320007       6.00957401E-06
   8.24520016       6.07152379E-06
   8.25720024       6.34471189E-06
   8.26920033       6.81683150E-06
   8.28120041       7.47282411E-06
   8.29319954       8.29534747E-06
   8.30519962       9.26524444E-06
   8.31719971       1.03619968E-05
   8.32919979       1.15641542E-05
   8.34119987       1.28497240E-05
   8.35319996       1.41965247E-05
   8.36520004       1.55824819E-05
   8.37720013       1.69858831E-05
   8.38920021       1.83855682E-05
   8.40120029       1.97610825E-05
   8.41320038       2.10927701E-05
   8.42520046       2.23618354E-05
   8.43719959       2.35503867E-05
   8.44919968       2.46414511E-05
   8.46119976       2.56190124E-05
   8.47319984       2.64680566E-05
   8.48519993       2.71746612E-05
   8.49720001       2.77261461E-05
   8.50920010       2.81112643E-05
   8.52120018       2.83204790E-05
   8.53320026       2.83462996E-05
   8.54520035       2.81836456E-05
   8.55720043       2.78302632E-05
   8.56919956       2.72871257E-05
   8.58119965       2.65588005E-05
   8.59319973       2.56537569E-05
   8.60519981       2.45845640E-05
   8.61719990       2.33679493E-05
   8.62919998       2.20247075E-05
   8.64120007       2.05794040E-05
   8.65320015       1.90599330E-05
   8.66520023       1.74968609E-05
   8.67720032       1.59226347E-05
   8.68920040       1.43706529E-05
   8.70119953       1.28742631E-05
   8.71319962       1.14657150E-05
   8.72519970       1.01751475E-05
   8.73719978       9.02963802E-06
   8.74919987       8.05239233E-06
   8.76119995       7.26208827E-06
   8.77320004       6.67243557E-06
   8.78520012       6.29195119E-06
   8.79720020       6.12396389E-06
   8.80920029       6.16684383E-06
   8.82120037       6.41442830E-06
   8.83320045       6.85662144E-06
   8.84519958       7.48011735E-06
   8.85719967       8.26920768E-06
   8.86919975       9.20661751E-06
   8.88119984       1.02743143E-05
   8.89319992       1.14542618E-05
   8.90520000       1.27290441E-05
   8.91720009       1.40823731E-05
   8.92920017       1.54994214E-05
   8.94120026       1.69669929E-05
   8.95320034       1.84735272E-05
   8.96520042       2.00089617E-05
   8.97719955       2.15644759E-05
   8.98919964       2.31321392E-05
   9.00119972       2.47045227E-05
   9.01319981       2.62742906E-05
   9.02519989       2.78338248E-05
   9.03719997       2.93749272E-05
   9.04920006       3.08885974E-05
   9.06120014       3.23649256E-05
   9.07320023       3.37931197E-05
   9.08520031       3.51616181E-05
   9.09720039       3.64583138E-05
   9.10919952       3.76708849E-05
   9.12119961       3.87871114E-05
   9.13319969       3.97952390E-05
   9.14519978       4.06843319E-05
   9.15719986       4.14445276E-05
   9.16919994       4.20672586E-05
   9.18120003       4.25453545E-05
   9.19320011       4.28730746E-05
   9.20520020       4.30460386E-05
   9.21720028       4.30611180E-05
   9.22920036       4.29162646E-05
   9.24120045       4.26103943E-05
   9.25319958       4.21432342E-05
   9.26519966       4.15153299E-05
   9.27719975       4.07280604E-05
   9.28919983       3.97838157E-05
   9.30119991       3.86862594E-05
   9.31320000       3.74407100E-05
   9.32520008       3.60545673E-05
   9.33720016       3.45377885E-05
   9.34920025       3.29033355E-05
   9.36120033       3.11675503E-05
   9.37320042       2.93504072E-05
   9.38519955       2.74755712E-05
   9.39719963       2.55702525E-05
   9.40919971       2.36648120E-05
   9.42119980       2.17921206E-05
   9.43319988       1.99866936E-05
   9.44519997       1.82835993E-05
