 -0.622799993         1.00000002E-24
 -0.610800028         1.00000002E-24
 -0.598800004         1.00000002E-24
 -0.586799979         4.23922308E-16
 -0.574800014         2.48329774E-15
 -0.562799990         7.82801846E-15
 -0.550800025         1.74639695E-14
 -0.538800001         3.09697133E-14
 -0.526799977         4.75754351E-14
 -0.514800012         6.98240294E-14
 -0.502799988         1.08299525E-13
 -0.490799993         1.83433265E-13
 -0.478799999         3.19577047E-13
 -0.466800004         5.28898756E-13
 -0.454800010         7.88213841E-13
 -0.442799985         1.01846287E-12
 -0.430799991         1.08050027E-12
 -0.418799996         7.98635409E-13
 -0.406800002         1.36308811E-14
 -0.394800007        -1.34801274E-12
 -0.382800013        -3.21587787E-12
 -0.370799989        -5.36231606E-12
 -0.358799994        -7.46085745E-12
 -0.346799999        -9.22279180E-12
 -0.334800005        -1.05900956E-11
 -0.322800010        -1.19371076E-11
 -0.310799986        -1.42219136E-11
 -0.298799992        -1.90373516E-11
 -0.286799997        -2.85414522E-11
 -0.274800003        -4.52871803E-11
 -0.262800008        -7.20080731E-11
 -0.250800014        -1.11433460E-10
 -0.238800004        -1.66198541E-10
 -0.226799995        -2.38880138E-10
 -0.214800000        -3.32142397E-10
 -0.202800006        -4.48935278E-10
 -0.190799996        -5.92666805E-10
 -0.178800002        -7.67275521E-10
 -0.166800007        -9.77157355E-10
 -0.154799998        -1.22693533E-09
 -0.142800003        -1.52109314E-09
 -0.130799994        -1.86350357E-09
 -0.118799999        -2.25687069E-09
 -0.106799997        -2.70210054E-09
  -9.48000029E-02    -3.19760596E-09
  -8.28000009E-02    -3.73857478E-09
  -7.07999989E-02    -4.31628688E-09
  -5.88000007E-02    -4.91760810E-09
  -4.67999987E-02    -5.52485524E-09
  -3.48000005E-02    -6.11622841E-09
  -2.28000004E-02    -6.66693678E-09
  -1.08000003E-02    -7.15107262E-09
   1.20000006E-03    -7.54413776E-09
   1.31999999E-02    -7.82602694E-09
   2.52000000E-02    -7.98418665E-09
   3.72000001E-02    -8.01666555E-09
   4.91999984E-02    -7.93481458E-09
   6.12000003E-02    -7.76539988E-09
   7.32000023E-02    -7.55195551E-09
   8.51999968E-02    -7.35510186E-09
   9.71999988E-02    -7.25146299E-09
  0.109200001        -7.33068184E-09
  0.121200003        -7.69000863E-09
  0.133200005        -8.42596304E-09
  0.145199999        -9.62301172E-09
  0.157199994        -1.13395853E-08
  0.169200003        -1.35925369E-08
  0.181199998        -1.63418044E-08
  0.193200007        -1.94775716E-08
  0.205200002        -2.28124915E-08
  0.217199996        -2.60814534E-08
  0.229200006        -2.89507796E-08
  0.241200000        -3.10379598E-08
  0.253199995        -3.19418660E-08
  0.265199989        -3.12822550E-08
  0.277200013        -2.87462392E-08
  0.289200008        -2.41383145E-08
  0.301200002        -1.74296186E-08
  0.313199997        -8.80146001E-09
  0.325199991         1.32233025E-09
  0.337199986         1.22599690E-08
  0.349200010         2.30785897E-08
  0.361200005         3.26280976E-08
  0.373199999         3.96051192E-08
  0.385199994         4.26480398E-08
  0.397199988         4.04610674E-08
  0.409200013         3.19618074E-08
  0.421200007         1.64430674E-08
  0.433200002        -6.26375396E-09
  0.445199996        -3.56391503E-08
  0.457199991        -7.03571601E-08
  0.469199985        -1.08215296E-07
  0.481200010        -1.46128258E-07
  0.493200004        -1.80197134E-07
  0.505200028        -2.05859948E-07
  0.517199993        -2.18122608E-07
  0.529200017        -2.11860680E-07
  0.541199982        -1.82173551E-07
  0.553200006        -1.24764924E-07
  0.565199971        -3.63151429E-08
  0.577199996         8.51918429E-08
  0.589200020         2.40229696E-07
  0.601199985         4.27615191E-07
  0.613200009         6.44553722E-07
  0.625199974         8.86867610E-07
  0.637199998         1.14941781E-06
  0.649200022         1.42671240E-06
  0.661199987         1.71368094E-06
  0.673200011         2.00657109E-06
  0.685199976         2.30391038E-06
  0.697200000         2.60746060E-06
  0.709200025         2.92308573E-06
  0.721199989         3.26144323E-06
  0.733200014         3.63842560E-06
  0.745199978         4.07527250E-06
  0.757200003         4.59831017E-06
  0.769200027         5.23827475E-06
  0.781199992         6.02923137E-06
  0.793200016         7.00709825E-06
  0.805199981         8.20785499E-06
  0.817200005         9.66550670E-06
  0.829200029         1.14099166E-05
  0.841199994         1.34646370E-05
  0.853200018         1.58448820E-05
  0.865199983         1.85557747E-05
  0.877200007         2.15909949E-05
  0.889199972         2.49319492E-05
  0.901199996         2.85475198E-05
  0.913200021         3.23944805E-05
  0.925199986         3.64185544E-05
  0.937200010         4.05560786E-05
  0.949199975         4.47362727E-05
  0.961199999         4.88839105E-05
  0.973200023         5.29223726E-05
  0.985199988         5.67768438E-05
  0.997200012         6.03775334E-05
   1.00919998         6.36627956E-05
   1.02119994         6.65818952E-05
   1.03320003         6.90973684E-05
   1.04519999         7.11868852E-05
   1.05719995         7.28444138E-05
   1.06920004         7.40807518E-05
   1.08120000         7.49233441E-05
   1.09319997         7.54154607E-05
   1.10520005         7.56146692E-05
   1.11720002         7.55908040E-05
   1.12919998         7.54234134E-05
   1.14119995         7.51988700E-05
   1.15320003         7.50071922E-05
   1.16520000         7.49387473E-05
   1.17719996         7.50808686E-05
   1.18920004         7.55146611E-05
   1.20120001         7.63119024E-05
   1.21319997         7.75322987E-05
   1.22520006         7.92210922E-05
   1.23720002         8.14071391E-05
   1.24919999         8.41014626E-05
   1.26119995         8.72963719E-05
   1.27320004         9.09651790E-05
   1.28520000         9.50624963E-05
   1.29719996         9.95250593E-05
   1.30920005         1.04273146E-04
   1.32120001         1.09212582E-04
   1.33319998         1.14237126E-04
   1.34519994         1.19231277E-04
   1.35720003         1.24073500E-04
   1.36919999         1.28639556E-04
   1.38119996         1.32806061E-04
   1.39320004         1.36454022E-04
   1.40520000         1.39472322E-04
   1.41719997         1.41760916E-04
   1.42920005         1.43233818E-04
   1.44120002         1.43821526E-04
   1.45319998         1.43473080E-04
   1.46519995         1.42157558E-04
   1.47720003         1.39864831E-04
   1.48920000         1.36605871E-04
   1.50119996         1.32412315E-04
   1.51320004         1.27335385E-04
   1.52520001         1.21444413E-04
   1.53719997         1.14824681E-04
   1.54920006         1.07574902E-04
   1.56120002         9.98043761E-05
   1.57319999         9.16299541E-05
   1.58519995         8.31727302E-05
   1.59720004         7.45549769E-05
   1.60920000         6.58969511E-05
   1.62119997         5.73140096E-05
   1.63320005         4.89140111E-05
   1.64520001         4.07950829E-05
   1.65719998         3.30438234E-05
   1.66919994         2.57339871E-05
   1.68120003         1.89257025E-05
   1.69319999         1.26652039E-05
   1.70519996         6.98507392E-06
   1.71720004         1.90495939E-06
   1.72920001        -2.56730596E-06
   1.74119997        -6.43423118E-06
   1.75320005        -9.70697783E-06
   1.76520002        -1.24035314E-05
   1.77719998        -1.45468666E-05
   1.78919995        -1.61631651E-05
   1.80120003        -1.72802429E-05
   1.81320000        -1.79262079E-05
   1.82519996        -1.81284886E-05
   1.83720005        -1.79132239E-05
   1.84920001        -1.73050430E-05
   1.86119998        -1.63272325E-05
   1.87320006        -1.50022461E-05
   1.88520002        -1.33524809E-05
   1.89719999        -1.14012255E-05
   1.90919995        -9.17367743E-06
   1.92120004        -6.69793144E-06
   1.93320000        -4.00578301E-06
   1.94519997        -1.13329577E-06
   1.95720005         1.87897479E-06
   1.96920002         4.98613008E-06
   1.98119998         8.13948373E-06
   1.99319994         1.12875114E-05
   2.00519991         1.43771431E-05
   2.01719999         1.73553362E-05
   2.02920008         2.01708190E-05
   2.04119992         2.27759338E-05
   2.05320001         2.51283927E-05
   2.06520009         2.71929039E-05
   2.07719994         2.89424843E-05
   2.08920002         3.03594406E-05
   2.10120010         3.14359240E-05
   2.11319995         3.21740335E-05
   2.12520003         3.25854890E-05
   2.13720012         3.26908958E-05
   2.14919996         3.25186775E-05
   2.16120005         3.21037151E-05
   2.17319989         3.14858517E-05
   2.18519998         3.07082555E-05
   2.19720006         2.98157938E-05
   2.20919991         2.88535066E-05
   2.22119999         2.78651987E-05
   2.23320007         2.68922395E-05
   2.24519992         2.59725584E-05
   2.25720000         2.51399324E-05
   2.26920009         2.44234216E-05
   2.28119993         2.38470457E-05
   2.29320002         2.34296094E-05
   2.30520010         2.31845970E-05
   2.31719995         2.31201939E-05
   2.32920003         2.32393104E-05
   2.34120011         2.35396383E-05
   2.35319996         2.40137269E-05
   2.36520004         2.46490945E-05
   2.37719989         2.54283914E-05
   2.38919997         2.63296533E-05
   2.40120006         2.73266487E-05
   2.41319990         2.83893987E-05
   2.42519999         2.94848160E-05
   2.43720007         3.05775720E-05
   2.44919991         3.16311125E-05
   2.46120000         3.26088557E-05
   2.47320008         3.34755823E-05
   2.48519993         3.41988743E-05
   2.49720001         3.47506575E-05
   2.50920010         3.51086674E-05
   2.52119994         3.52578245E-05
   2.53320003         3.51913695E-05
   2.54520011         3.49116526E-05
   2.55719995         3.44305554E-05
   2.56920004         3.37694000E-05
   2.58119988         3.29583963E-05
   2.59319997         3.20355612E-05
   2.60520005         3.10451978E-05
   2.61719990         3.00359461E-05
   2.62919998         2.90585449E-05
   2.64120007         2.81633911E-05
   2.65319991         2.73980186E-05
   2.66520000         2.68046897E-05
   2.67720008         2.64181854E-05
   2.68919992         2.62639551E-05
   2.70120001         2.63567508E-05
   2.71320009         2.66998522E-05
   2.72519994         2.72848683E-05
   2.73720002         2.80922468E-05
   2.74920011         2.90923635E-05
   2.76119995         3.02471799E-05
   2.77320004         3.15123398E-05
   2.78520012         3.28395654E-05
   2.79719996         3.41792293E-05
   2.80920005         3.54828953E-05
   2.82119989         3.67056891E-05
   2.83319998         3.78083751E-05
   2.84520006         3.87589753E-05
   2.85719991         3.95339157E-05
   2.86919999         4.01185280E-05
   2.88120008         4.05070314E-05
   2.89319992         4.07019070E-05
   2.90520000         4.07128500E-05
   2.91720009         4.05552528E-05
   2.92919993         4.02485202E-05
   2.94120002         3.98142256E-05
   2.95320010         3.92742731E-05
   2.96519995         3.86492902E-05
   2.97720003         3.79572120E-05
   2.98920012         3.72123068E-05
   3.00119996         3.64245752E-05
   3.01320004         3.55996308E-05
   3.02519989         3.47390123E-05
   3.03719997         3.38408900E-05
   3.04920006         3.29011054E-05
   3.06119990         3.19144310E-05
   3.07319999         3.08759663E-05
   3.08520007         2.97824899E-05
   3.09719992         2.86337799E-05
   3.10920000         2.74336307E-05
   3.12120008         2.61906243E-05
   3.13319993         2.49185359E-05
   3.14520001         2.36363558E-05
   3.15720010         2.23679344E-05
   3.16919994         2.11412826E-05
   3.18120003         1.99875449E-05
   3.19320011         1.89397597E-05
   3.20519996         1.80314219E-05
   3.21720004         1.72949731E-05
   3.22919989         1.67603121E-05
   3.24119997         1.64533612E-05
   3.25320005         1.63947807E-05
   3.26519990         1.65989495E-05
   3.27719998         1.70731437E-05
   3.28920007         1.78170631E-05
   3.30119991         1.88226222E-05
   3.31320000         2.00740615E-05
   3.32520008         2.15483342E-05
   3.33719993         2.32157236E-05
   3.34920001         2.50406720E-05
   3.36120009         2.69827942E-05
   3.37319994         2.89979889E-05
   3.38520002         3.10396681E-05
   3.39720011         3.30600051E-05
   3.40919995         3.50112277E-05
   3.42120004         3.68468827E-05
   3.43319988         3.85230342E-05
   3.44519997         3.99994060E-05
   3.45720005         4.12404042E-05
   3.46919990         4.22160156E-05
   3.48119998         4.29025677E-05
   3.49320006         4.32833476E-05
   3.50519991         4.33490350E-05
   3.51719999         4.30980144E-05
   3.52920008         4.25364669E-05
   3.54119992         4.16783041E-05
   3.55320001         4.05449282E-05
   3.56520009         3.91648318E-05
   3.57719994         3.75729214E-05
   3.58920002         3.58097896E-05
   3.60120010         3.39207145E-05
   3.61319995         3.19545543E-05
   3.62520003         2.99625281E-05
   3.63720012         2.79968608E-05
   3.64919996         2.61093992E-05
   3.66120005         2.43501581E-05
   3.67319989         2.27659220E-05
   3.68519998         2.13988587E-05
   3.69720006         2.02852334E-05
   3.70919991         1.94542899E-05
   3.72119999         1.89272705E-05
   3.73320007         1.87167025E-05
   3.74519992         1.88259055E-05
   3.75720000         1.92488260E-05
   3.76920009         1.99701153E-05
   3.78119993         2.09655445E-05
   3.79320002         2.22026865E-05
   3.80520010         2.36418618E-05
   3.81719995         2.52373411E-05
   3.82920003         2.69387092E-05
   3.84120011         2.86924314E-05
   3.85319996         3.04435180E-05
   3.86520004         3.21372499E-05
   3.87719989         3.37209312E-05
   3.88919997         3.51455783E-05
   3.90120006         3.63675426E-05
   3.91319990         3.73499643E-05
   3.92519999         3.80640267E-05
   3.93720007         3.84899395E-05
   3.94919991         3.86176980E-05
   3.96120000         3.84474552E-05
   3.97320008         3.79896082E-05
   3.98519993         3.72645227E-05
   3.99720001         3.63018626E-05
   4.00920010         3.51396629E-05
   4.02120018         3.38229947E-05
   4.03319979         3.24023749E-05
   4.04519987         3.09319039E-05
   4.05719995         2.94672263E-05
   4.06920004         2.80633849E-05
   4.08120012         2.67726173E-05
   4.09320021         2.56422518E-05
   4.10519981         2.47127555E-05
   4.11719990         2.40160571E-05
   4.12919998         2.35742245E-05
   4.14120007         2.33985629E-05
   4.15320015         2.34892286E-05
   4.16520023         2.38353605E-05
   4.17719984         2.44157090E-05
   4.18919992         2.51998426E-05
   4.20120001         2.61497480E-05
   4.21320009         2.72218749E-05
   4.22520018         2.83694426E-05
   4.23719978         2.95449172E-05
   4.24919987         3.07024966E-05
   4.26119995         3.18004968E-05
   4.27320004         3.28034621E-05
   4.28520012         3.36838930E-05
   4.29720020         3.44234759E-05
   4.30919981         3.50137670E-05
   4.32119989         3.54562435E-05
   4.33319998         3.57618046E-05
   4.34520006         3.59497135E-05
   4.35720015         3.60460290E-05
   4.36920023         3.60816957E-05
   4.38119984         3.60903723E-05
   4.39319992         3.61061284E-05
   4.40520000         3.61611965E-05
   4.41720009         3.62838655E-05
   4.42920017         3.64966909E-05
   4.44119978         3.68150904E-05
   4.45319986         3.72464565E-05
   4.46519995         3.77897522E-05
   4.47720003         3.84357008E-05
   4.48920012         3.91674585E-05
   4.50120020         3.99617456E-05
   4.51319981         4.07903462E-05
   4.52519989         4.16218572E-05
   4.53719997         4.24236059E-05
   4.54920006         4.31635381E-05
   4.56120014         4.38120842E-05
   4.57320023         4.43437930E-05
   4.58519983         4.47386919E-05
   4.59719992         4.49833497E-05
   4.60920000         4.50714833E-05
   4.62120008         4.50042062E-05
   4.63320017         4.47898856E-05
   4.64519978         4.44435682E-05
   4.65719986         4.39861687E-05
   4.66919994         4.34432914E-05
   4.68120003         4.28439998E-05
   4.69320011         4.22193843E-05
   4.70520020         4.16011790E-05
   4.71719980         4.10203793E-05
   4.72919989         4.05060055E-05
   4.74119997         4.00840072E-05
   4.75320005         3.97763615E-05
   4.76520014         3.96003888E-05
   4.77720022         3.95682764E-05
   4.78919983         3.96868782E-05
   4.80119991         3.99576820E-05
   4.81320000         4.03770246E-05
   4.82520008         4.09364293E-05
   4.83720016         4.16231705E-05
   4.84919977         4.24208447E-05
   4.86119986         4.33100868E-05
   4.87319994         4.42692908E-05
   4.88520002         4.52753266E-05
   4.89720011         4.63042707E-05
   4.90920019         4.73321015E-05
   4.92119980         4.83353142E-05
   4.93319988         4.92915424E-05
   4.94519997         5.01800532E-05
   4.95720005         5.09822021E-05
   4.96920013         5.16817527E-05
   4.98120022         5.22651717E-05
   4.99319983         5.27217708E-05
   5.00519991         5.30438083E-05
   5.01719999         5.32264930E-05
   5.02920008         5.32679587E-05
   5.04120016         5.31691912E-05
   5.05319977         5.29339122E-05
   5.06519985         5.25684954E-05
   5.07719994         5.20818030E-05
   5.08920002         5.14850944E-05
   5.10120010         5.07918376E-05
   5.11320019         5.00175520E-05
   5.12519979         4.91796345E-05
   5.13719988         4.82971154E-05
   5.14919996         4.73904511E-05
   5.16120005         4.64812292E-05
   5.17320013         4.55917943E-05
   5.18520021         4.47448765E-05
   5.19719982         4.39631003E-05
   5.20919991         4.32683919E-05
   5.22119999         4.26813385E-05
   5.23320007         4.22204866E-05
   5.24520016         4.19015487E-05
   5.25719976         4.17366682E-05
   5.26919985         4.17337178E-05
   5.28119993         4.18956479E-05
   5.29320002         4.22200355E-05
   5.30520010         4.26987935E-05
   5.31720018         4.33180394E-05
   5.32919979         4.40583099E-05
   5.34119987         4.48949286E-05
   5.35319996         4.57986898E-05
   5.36520004         4.67367572E-05
   5.37720013         4.76737769E-05
   5.38920021         4.85731580E-05
   5.40119982         4.93984735E-05
   5.41319990         5.01149079E-05
   5.42519999         5.06906326E-05
   5.43720007         5.10981226E-05
   5.44920015         5.13152954E-05
   5.46120024         5.13263949E-05
   5.47319984         5.11226390E-05
   5.48519993         5.07025507E-05
   5.49720001         5.00719580E-05
   5.50920010         4.92437066E-05
   5.52120018         4.82370633E-05
   5.53319979         4.70768791E-05
   5.54519987         4.57924943E-05
   5.55719995         4.44165635E-05
   5.56920004         4.29837564E-05
   5.58120012         4.15294417E-05
   5.59320021         4.00884965E-05
   5.60519981         3.86941283E-05
   5.61719990         3.73769835E-05
   5.62919998         3.61643797E-05
   5.64120007         3.50797636E-05
   5.65320015         3.41424129E-05
   5.66520023         3.33672906E-05
   5.67719984         3.27651178E-05
   5.68919992         3.23425229E-05
   5.70120001         3.21023253E-05
   5.71320009         3.20438667E-05
   5.72520018         3.21633415E-05
   5.73719978         3.24541143E-05
   5.74919987         3.29069953E-05
   5.76119995         3.35104232E-05
   5.77320004         3.42506246E-05
   5.78520012         3.51116432E-05
   5.79720020         3.60753947E-05
   5.80919981         3.71216738E-05
   5.82119989         3.82282124E-05
   5.83319998         3.93708033E-05
   5.84520006         4.05235296E-05
   5.85720015         4.16591138E-05
   5.86920023         4.27494379E-05
   5.88119984         4.37660965E-05
   5.89319992         4.46811719E-05
   5.90520000         4.54680048E-05
   5.91720009         4.61020463E-05
   5.92920017         4.65616504E-05
   5.94119978         4.68288345E-05
   5.95319986         4.68899307E-05
   5.96519995         4.67360114E-05
   5.97720003         4.63631950E-05
   5.98920012         4.57727001E-05
   6.00120020         4.49706204E-05
   6.01319981         4.39675459E-05
   6.02519989         4.27779378E-05
   6.03719997         4.14193782E-05
   6.04920006         3.99117162E-05
   6.06120014         3.82761900E-05
   6.07320023         3.65345950E-05
   6.08519983         3.47085224E-05
   6.09719992         3.28187707E-05
   6.10920000         3.08848830E-05
   6.12120008         2.89249292E-05
   6.13320017         2.69554093E-05
   6.14519978         2.49913865E-05
   6.15719986         2.30467194E-05
   6.16919994         2.11344141E-05
   6.18120003         1.92670359E-05
   6.19320011         1.74571323E-05
   6.20520020         1.57176037E-05
   6.21719980         1.40620086E-05
   6.22919989         1.25047291E-05
   6.24119997         1.10609990E-05
   6.25320005         9.74677459E-06
   6.26520014         8.57846408E-06
   6.27720022         7.57250518E-06
   6.28919983         6.74487910E-06
   6.30119991         6.11054702E-06
   6.31320000         5.68288669E-06
   6.32520008         5.47313584E-06
   6.33720016         5.48992239E-06
   6.34919977         5.73885063E-06
   6.36119986         6.22219841E-06
   6.37319994         6.93871425E-06
   6.38520002         7.88352372E-06
   6.39720011         9.04812532E-06
   6.40920019         1.04204746E-05
   6.42119980         1.19851593E-05
   6.43319988         1.37236266E-05
   6.44519997         1.56144324E-05
   6.45720005         1.76335689E-05
   6.46920013         1.97547870E-05
   6.48120022         2.19499307E-05
   6.49319983         2.41893104E-05
   6.50519991         2.64421033E-05
   6.51719999         2.86767900E-05
   6.52920008         3.08616800E-05
   6.54120016         3.29654686E-05
   6.55319977         3.49578877E-05
   6.56519985         3.68103865E-05
   6.57719994         3.84968807E-05
   6.58920002         3.99944765E-05
   6.60120010         4.12841691E-05
   6.61320019         4.23514648E-05
   6.62519979         4.31868866E-05
   6.63719988         4.37863564E-05
   6.64919996         4.41513366E-05
   6.66120005         4.42888559E-05
   6.67320013         4.42112396E-05
   6.68520021         4.39356409E-05
   6.69719982         4.34833455E-05
   6.70919991         4.28788553E-05
   6.72119999         4.21488476E-05
   6.73320007         4.13209345E-05
   6.74520016         4.04224702E-05
   6.75719976         3.94793205E-05
   6.76919985         3.85147905E-05
   6.78119993         3.75487361E-05
   6.79320002         3.65969099E-05
   6.80520010         3.56706259E-05
   6.81720018         3.47767018E-05
   6.82919979         3.39177423E-05
   6.84119987         3.30926778E-05
   6.85319996         3.22975502E-05
   6.86520004         3.15264879E-05
   6.87720013         3.07728042E-05
   6.88920021         3.00301072E-05
   6.90119982         2.92934528E-05
   6.91319990         2.85603164E-05
   6.92519999         2.78314274E-05
   6.93720007         2.71113258E-05
   6.94920015         2.64086539E-05
   6.96120024         2.57360734E-05
   6.97319984         2.51099136E-05
   6.98519993         2.45494830E-05
   6.99720001         2.40761656E-05
   7.00920010         2.37123077E-05
   7.02120018         2.34800173E-05
   7.03319979         2.33999290E-05
   7.04519987         2.34900235E-05
   7.05719995         2.37645345E-05
   7.06920004         2.42330352E-05
   7.08120012         2.48997167E-05
   7.09320021         2.57628981E-05
   7.10519981         2.68148215E-05
   7.11719990         2.80416807E-05
   7.12919998         2.94239398E-05
   7.14120007         3.09368734E-05
   7.15320015         3.25512883E-05
   7.16520023         3.42344501E-05
   7.17719984         3.59510486E-05
   7.18919992         3.76642965E-05
   7.20120001         3.93369555E-05
   7.21320009         4.09324348E-05
   7.22520018         4.24157734E-05
   7.23719978         4.37545896E-05
   7.24919987         4.49199579E-05
   7.26119995         4.58871618E-05
   7.27320004         4.66363963E-05
   7.28520012         4.71532439E-05
   7.29720020         4.74291155E-05
   7.30919981         4.74614462E-05
   7.32119989         4.72538086E-05
   7.33319998         4.68158360E-05
   7.34520006         4.61630225E-05
   7.35720015         4.53163702E-05
   7.36920023         4.43019235E-05
   7.38119984         4.31501612E-05
   7.39319992         4.18952804E-05
   7.40520000         4.05743522E-05
   7.41720009         3.92263973E-05
   7.42920017         3.78913464E-05
   7.44119978         3.66089916E-05
   7.45319986         3.54178992E-05
   7.46519995         3.43543761E-05
   7.47720003         3.34514261E-05
   7.48920012         3.27378875E-05
   7.50120020         3.22376072E-05
   7.51319981         3.19687897E-05
   7.52519989         3.19434512E-05
   7.53719997         3.21670559E-05
   7.54920006         3.26382724E-05
   7.56120014         3.33489552E-05
   7.57320023         3.42842795E-05
   7.58519983         3.54230433E-05
   7.59719992         3.67382054E-05
   7.60920000         3.81975442E-05
   7.62120008         3.97645017E-05
   7.63320017         4.13991402E-05
   7.64519978         4.30592081E-05
   7.65719986         4.47012535E-05
   7.66919994         4.62817807E-05
   7.68120003         4.77584326E-05
   7.69320011         4.90911480E-05
   7.70520020         5.02432922E-05
   7.71719980         5.11826547E-05
   7.72919989         5.18824272E-05
   7.74119997         5.23219678E-05
   7.75320005         5.24873940E-05
   7.76520014         5.23719682E-05
   7.77720022         5.19762725E-05
   7.78919983         5.13081104E-05
   7.80119991         5.03822266E-05
   7.81320000         4.92197505E-05
   7.82520008         4.78474976E-05
   7.83720016         4.62970820E-05
   7.84919977         4.46038975E-05
   7.86119986         4.28060375E-05
   7.87319994         4.09431741E-05
   7.88520002         3.90554524E-05
   7.89720011         3.71824208E-05
   7.90920019         3.53620744E-05
   7.92119980         3.36300254E-05
   7.93319988         3.20188265E-05
   7.94519997         3.05574649E-05
   7.95720005         2.92709828E-05
   7.96920013         2.81802713E-05
   7.98120022         2.73019723E-05
   7.99319983         2.66484749E-05
   8.00520039         2.62280064E-05
   8.01720047         2.60447541E-05
   8.02919960         2.60989673E-05
   8.04119968         2.63871370E-05
   8.05319977         2.69020838E-05
   8.06519985         2.76330757E-05
   8.07719994         2.85658843E-05
   8.08920002         2.96828694E-05
   8.10120010         3.09630668E-05
   8.11320019         3.23823188E-05
   8.12520027         3.39135368E-05
   8.13720036         3.55270495E-05
   8.14920044         3.71911119E-05
   8.16119957         3.88725930E-05
   8.17319965         4.05377832E-05
   8.18519974         4.21533223E-05
   8.19719982         4.36872178E-05
   8.20919991         4.51098604E-05
   8.22119999         4.63950237E-05
   8.23320007         4.75207671E-05
   8.24520016         4.84701850E-05
   8.25720024         4.92319959E-05
   8.26920033         4.98008376E-05
   8.28120041         5.01773502E-05
   8.29319954         5.03679403E-05
   8.30519962         5.03842712E-05
   8.31719971         5.02424482E-05
   8.32919979         4.99620037E-05
   8.34119987         4.95647291E-05
   8.35319996         4.90733946E-05
   8.36520004         4.85105265E-05
   8.37720013         4.78972543E-05
   8.38920021         4.72523971E-05
   8.40120029         4.65917656E-05
   8.41320038         4.59277435E-05
   8.42520046         4.52691893E-05
   8.43719959         4.46216218E-05
   8.44919968         4.39876349E-05
   8.46119976         4.33675341E-05
   8.47319984         4.27601517E-05
   8.48519993         4.21636978E-05
   8.49720001         4.15766845E-05
   8.50920010         4.09987406E-05
   8.52120018         4.04313396E-05
   8.53320026         3.98783013E-05
   8.54520035         3.93460905E-05
   8.55720043         3.88437838E-05
   8.56919956         3.83827974E-05
   8.58119965         3.79763296E-05
   8.59319973         3.76385506E-05
   8.60519981         3.73836847E-05
   8.61719990         3.72249087E-05
   8.62919998         3.71733186E-05
   8.64120007         3.72368777E-05
   8.65320015         3.74195333E-05
   8.66520023         3.77204815E-05
   8.67720032         3.81336831E-05
   8.68920040         3.86476349E-05
   8.70119953         3.92454240E-05
   8.71319962         3.99050587E-05
   8.72519970         4.06000872E-05
   8.73719978         4.13004527E-05
   8.74919987         4.19735843E-05
   8.76119995         4.25856051E-05
   8.77320004         4.31026747E-05
   8.78520012         4.34924295E-05
   8.79720020         4.37253329E-05
   8.80920029         4.37760064E-05
   8.82120037         4.36244372E-05
   8.83320045         4.32570050E-05
   8.84519958         4.26672887E-05
   8.85719967         4.18566051E-05
   8.86919975         4.08342676E-05
   8.88119984         3.96175310E-05
   8.89319992         3.82312610E-05
   8.90520000         3.67072498E-05
   8.91720009         3.50833725E-05
   8.92920017         3.34024080E-05
   8.94120026         3.17107406E-05
   8.95320034         3.00568990E-05
   8.96520042         2.84899979E-05
   8.97719955         2.70581513E-05
   8.98919964         2.58068503E-05
   9.00119972         2.47774424E-05
   9.01319981         2.40056415E-05
   9.02519989         2.35202951E-05
   9.03719997         2.33422761E-05
   9.04920006         2.34836716E-05
   9.06120014         2.39473084E-05
   9.07320023         2.47265270E-05
   9.08520031         2.58053387E-05