 -0.622799993         1.00000002E-24
 -0.610800028         1.00000002E-24
 -0.598800004         1.00000002E-24
 -0.586799979        -1.81454532E-15
 -0.574800014        -1.11797558E-14
 -0.562799990        -3.72776964E-14
 -0.550800025        -8.74469496E-14
 -0.538800001        -1.57551408E-13
 -0.526799977        -2.21999909E-13
 -0.514800012        -2.29736206E-13
 -0.502799988        -1.11880828E-13
 -0.490799993         1.97432890E-13
 -0.478799999         7.31945212E-13
 -0.466800004         1.46699482E-12
 -0.454800010         2.31016486E-12
 -0.442799985         3.12061076E-12
 -0.430799991         3.76108172E-12
 -0.418799996         4.17553665E-12
 -0.406800002         4.47448372E-12
 -0.394800007         5.00376390E-12
 -0.382800013         6.37341829E-12
 -0.370799989         9.43225706E-12
 -0.358799994         1.51889352E-11
 -0.346799999         2.46976745E-11
 -0.334800005         3.89412461E-11
 -0.322800010         5.87506432E-11
 -0.310799986         8.47970999E-11
 -0.298799992         1.17677548E-10
 -0.286799997         1.58092109E-10
 -0.274800003         2.07086945E-10
 -0.262800008         2.66314970E-10
 -0.250800014         3.38256922E-10
 -0.238800004         4.26350261E-10
 -0.226799995         5.34993827E-10
 -0.214800000         6.69428402E-10
 -0.202800006         8.35527314E-10
 -0.190799996         1.03955999E-09
 -0.178800002         1.28800082E-09
 -0.166800007         1.58744617E-09
 -0.154799998         1.94466954E-09
 -0.142800003         2.36680142E-09
 -0.130799994         2.86157698E-09
 -0.118799999         3.43755868E-09
 -0.106799997         4.10423251E-09
  -9.48000029E-02     4.87189622E-09
  -8.28000009E-02     5.75128478E-09
  -7.07999989E-02     6.75293110E-09
  -5.88000007E-02     7.88628540E-09
  -4.67999987E-02     9.15864629E-09
  -3.48000005E-02     1.05739506E-08
  -2.28000004E-02     1.21314310E-08
  -1.08000003E-02     1.38241179E-08
   1.20000006E-03     1.56371485E-08
   1.31999999E-02     1.75457924E-08
   2.52000000E-02     1.95132053E-08
   3.72000001E-02     2.14879368E-08
   4.91999984E-02     2.34014497E-08
   6.12000003E-02     2.51660239E-08
   7.32000023E-02     2.66736944E-08
   8.51999968E-02     2.77970464E-08
   9.71999988E-02     2.83928099E-08
  0.109200001         2.83091524E-08
  0.121200003         2.73973857E-08
  0.133200005         2.55283066E-08
  0.145199999         2.26127881E-08
  0.157199994         1.86253519E-08
  0.169200003         1.36287310E-08
  0.181199998         7.79659359E-09
  0.193200007         1.43118328E-09
  0.205200002        -5.02747755E-09
  0.217199996        -1.10039320E-08
  0.229200006        -1.58035647E-08
  0.241200000        -1.86442737E-08
  0.253199995        -1.87037834E-08
  0.265199989        -1.51816906E-08
  0.277200013        -7.37401340E-09
  0.289200008         5.24319432E-09
  0.301200002         2.29259243E-08
  0.313199997         4.55760478E-08
  0.325199991         7.26643492E-08
  0.337199986         1.03171516E-07
  0.349200010         1.35556448E-07
  0.361200005         1.67761812E-07
  0.373199999         1.97265450E-07
  0.385199994         2.21184052E-07
  0.397199988         2.36432143E-07
  0.409200013         2.39933769E-07
  0.421200007         2.28878861E-07
  0.433200002         2.01009399E-07
  0.445199996         1.54915071E-07
  0.457199991         9.03131507E-08
  0.469199985         8.28434210E-09
  0.481200010        -8.85639579E-08
  0.493200004        -1.96033710E-07
  0.505200028        -3.08393311E-07
  0.517199993        -4.18570096E-07
  0.529200017        -5.18483319E-07
  0.541199982        -5.99510770E-07
  0.553200006        -6.53070970E-07
  0.565199971        -6.71288831E-07
  0.577199996        -6.47704383E-07
  0.589200020        -5.77971093E-07
  0.601199985        -4.60487996E-07
  0.613200009        -2.96906023E-07
  0.625199974        -9.24529644E-08
  0.637199998         1.43971022E-07
  0.649200022         3.99961039E-07
  0.661199987         6.60056969E-07
  0.673200011         9.06471030E-07
  0.685199976         1.12007012E-06
  0.697200000         1.28156807E-06
  0.709200025         1.37286168E-06
  0.721199989         1.37843074E-06
  0.733200014         1.28670990E-06
  0.745199978         1.09133521E-06
  0.757200003         7.92169430E-07
  0.769200027         3.96021136E-07
  0.781199992        -8.30146476E-08
  0.793200016        -6.23643018E-07
  0.805199981        -1.19790514E-06
  0.817200005        -1.77215986E-06
  0.829200029        -2.30847263E-06
  0.841199994        -2.76635069E-06
  0.853200018        -3.10473456E-06
  0.865199983        -3.28413944E-06
  0.877200007        -3.26882900E-06
  0.889199972        -3.02889339E-06
  0.901199996        -2.54211227E-06
  0.913200021        -1.79548908E-06
  0.925199986        -7.86361227E-07
  0.937200010         4.76995751E-07
  0.949199975         1.97530562E-06
  0.961199999         3.67880784E-06
  0.973200023         5.54832695E-06
  0.985199988         7.53686209E-06
  0.997200012         9.59163117E-06
   1.00919998         1.16564570E-05
   1.02119994         1.36744111E-05
   1.03320003         1.55905564E-05
   1.04519999         1.73546796E-05
   1.05719995         1.89238526E-05
   1.06920004         2.02647207E-05
   1.08120000         2.13553831E-05
   1.09319997         2.21867667E-05
   1.10520005         2.27634355E-05
   1.11720002         2.31037648E-05
   1.12919998         2.32394650E-05
   1.14119995         2.32144739E-05
   1.15320003         2.30832156E-05
   1.16520000         2.29083344E-05
   1.17719996         2.27579640E-05
   1.18920004         2.27026303E-05
   1.20120001         2.28119352E-05
   1.21319997         2.31511458E-05
   1.22520006         2.37778222E-05
   1.23720002         2.47386379E-05
   1.24919999         2.60665220E-05
   1.26119995         2.77782365E-05
   1.27320004         2.98725172E-05
   1.28520000         3.23288768E-05
   1.29719996         3.51070812E-05
   1.30920005         3.81474056E-05
   1.32120001         4.13716371E-05
   1.33319998         4.46848462E-05
   1.34519994         4.79777918E-05
   1.35720003         5.11299841E-05
   1.36919999         5.40132460E-05
   1.38119996         5.64956608E-05
   1.39320004         5.84456866E-05
   1.40520000         5.97364415E-05
   1.41719997         6.02498258E-05
   1.42920005         5.98804618E-05
   1.44120002         5.85392118E-05
   1.45319998         5.61562301E-05
   1.46519995         5.26833610E-05
   1.47720003         4.80958734E-05
   1.48920000         4.23934507E-05
   1.50119996         3.56004348E-05
   1.51320004         2.77653107E-05
   1.52520001         1.89595266E-05
   1.53719997         9.27567999E-06
   1.54920006        -1.17485035E-06
   1.56120002        -1.22646752E-05
   1.57319999        -2.38535085E-05
   1.58519995        -3.57914796E-05
   1.59720004        -4.79225673E-05
   1.60920000        -6.00880012E-05
   1.62119997        -7.21295874E-05
   1.63320005        -8.38928827E-05
   1.64520001        -9.52301052E-05
   1.65719998        -1.06002743E-04
   1.66919994        -1.16083895E-04
   1.68120003        -1.25360166E-04
   1.69319999        -1.33733236E-04
   1.70519996        -1.41120981E-04
   1.71720004        -1.47458268E-04
   1.72920001        -1.52697219E-04
   1.74119997        -1.56807233E-04
   1.75320005        -1.59774572E-04
   1.76520002        -1.61601653E-04
   1.77719998        -1.62306053E-04
   1.78919995        -1.61919117E-04
   1.80120003        -1.60484662E-04
   1.81320000        -1.58057301E-04
   1.82519996        -1.54700756E-04
   1.83720005        -1.50486259E-04
   1.84920001        -1.45490863E-04
   1.86119998        -1.39796000E-04
   1.87320006        -1.33486130E-04
   1.88520002        -1.26647516E-04
   1.89719999        -1.19367229E-04
   1.90919995        -1.11732450E-04
   1.92120004        -1.03829712E-04
   1.93320000        -9.57445154E-05
   1.94519997        -8.75608894E-05
   1.95720005        -7.93610961E-05
   1.96920002        -7.12253241E-05
   1.98119998        -6.32313386E-05
   1.99319994        -5.54541475E-05
   2.00519991        -4.79655282E-05
   2.01719999        -4.08334527E-05
   2.02920008        -3.41214763E-05
   2.04119992        -2.78879888E-05
   2.05320001        -2.21854225E-05
   2.06520009        -1.70594267E-05
   2.07719994        -1.25480319E-05
   2.08920002        -8.68084771E-06
   2.10120010        -5.47834179E-06
   2.11319995        -2.95119730E-06
   2.12520003        -1.09982034E-06
   2.13720012         8.60087823E-08
   2.14919996         6.27305781E-07
   2.16120005         5.55861561E-07
   2.17319989        -8.59899458E-08
   2.18519998        -1.24583255E-06
   2.19720006        -2.86185514E-06
   2.20919991        -4.86378713E-06
   2.22119999        -7.17408057E-06
   2.23320007        -9.70932979E-06
   2.24519992        -1.23819182E-05
   2.25720000        -1.51018839E-05
   2.26920009        -1.77789607E-05
   2.28119993        -2.03247691E-05
   2.29320002        -2.26550965E-05
   2.30520010        -2.46922264E-05
   2.31719995        -2.63672282E-05
   2.32920003        -2.76221544E-05
   2.34120011        -2.84120451E-05
   2.35319996        -2.87066632E-05
   2.36520004        -2.84918751E-05
   2.37719989        -2.77705858E-05
   2.38919997        -2.65631734E-05
   2.40120006        -2.49073601E-05
   2.41319990        -2.28574754E-05
   2.42519999        -2.04831413E-05
   2.43720007        -1.78673363E-05
   2.44919991        -1.51039303E-05
   2.46120000        -1.22947295E-05
   2.47320008        -9.54610186E-06
   2.48519993        -6.96533971E-06
   2.49720001        -4.65681524E-06
   2.50920010        -2.71812337E-06
   2.52119994        -1.23629786E-06
   2.53320003        -2.84290536E-07
   2.54520011         8.21654780E-08
   2.55719995        -1.72842761E-07
   2.56920004        -1.06345226E-06
   2.58119988        -2.58083264E-06
   2.59319997        -4.69282759E-06
   2.60520005        -7.34447349E-06
   2.61719990        -1.04594046E-05
   2.62919998        -1.39421218E-05
   2.64120007        -1.76810408E-05
   2.65319991        -2.15522468E-05
   2.66520000        -2.54238130E-05
   2.67720008        -2.91605247E-05
   2.68919992        -3.26288355E-05
   2.70120001        -3.57018944E-05
   2.71320009        -3.82643957E-05
   2.72519994        -4.02171354E-05
   2.73720002        -4.14809983E-05
   2.74920011        -4.20002834E-05
   2.76119995        -4.17451629E-05
   2.77320004        -4.07132138E-05
   2.78520012        -3.89299057E-05
   2.79719996        -3.64480402E-05
   2.80920005        -3.33461066E-05
   2.82119989        -2.97256629E-05
   2.83319998        -2.57078082E-05
   2.84520006        -2.14288411E-05
   2.85719991        -1.70353323E-05
   2.86919999        -1.26787336E-05
   2.88120008        -8.50975448E-06
   2.89319992        -4.67273048E-06
   2.90520000        -1.30017759E-06
   2.91720009         1.49224502E-06
   2.92919993         3.61015441E-06
   2.94120002         4.98408190E-06
   2.95320010         5.57218300E-06
   2.96519995         5.36191192E-06
   2.97720003         4.37057997E-06
   2.98920012         2.64478922E-06
   3.00119996         2.58753460E-07
   3.01320004        -2.68843905E-06
   3.02519989        -6.07652009E-06
   3.03719997        -9.76855608E-06
   3.04920006        -1.36161207E-05
   3.06119990        -1.74649158E-05
   3.07319999        -2.11606639E-05
   3.08520007        -2.45549945E-05
   3.09719992        -2.75111433E-05
   3.10920000        -2.99092098E-05
   3.12120008        -3.16507649E-05
   3.13319993        -3.26626468E-05
   3.14520001        -3.28997849E-05
   3.15720010        -3.23469103E-05
   3.16919994        -3.10191317E-05
   3.18120003        -2.89613290E-05
   3.19320011        -2.62463891E-05
   3.20519996        -2.29723464E-05
   3.21720004        -1.92585612E-05
   3.22919989        -1.52410785E-05
   3.24119997        -1.10673573E-05
   3.25320005        -6.89058970E-06
   3.26519990        -2.86384898E-06
   3.27719998         8.65696734E-07
   3.28920007         4.16226476E-06
   3.30119991         6.90640945E-06
   3.31320000         8.99925635E-06
   3.32520008         1.03658476E-05
   3.33719993         1.09574894E-05
   3.34920001         1.07530213E-05
   3.36120009         9.75897274E-06
   3.37319994         8.00862472E-06
   3.38520002         5.56004488E-06
   3.39720011         2.49319737E-06
   3.40919995        -1.09372320E-06
   3.42120004        -5.08857465E-06
   3.43319988        -9.36991182E-06
   3.44519997        -1.38118457E-05
   3.45720005        -1.82888107E-05
   3.46919990        -2.26801076E-05
   3.48119998        -2.68739568E-05
   3.49320006        -3.07709415E-05
   3.50519991        -3.42867243E-05
   3.51719999        -3.73539187E-05
   3.52920008        -3.99230921E-05
   3.54119992        -4.19629832E-05
   3.55320001        -4.34598296E-05
   3.56520009        -4.44160687E-05
   3.57719994        -4.48484570E-05
   3.58920002        -4.47857310E-05
   3.60120010        -4.42660712E-05
   3.61319995        -4.33344285E-05
   3.62520003        -4.20400211E-05
   3.63720012        -4.04340171E-05
   3.64919996        -3.85675958E-05
   3.66120005        -3.64904590E-05
   3.67319989        -3.42498352E-05
   3.68519998        -3.18899438E-05
   3.69720006        -2.94519305E-05
   3.70919991        -2.69741486E-05
   3.72119999        -2.44927014E-05
   3.73320007        -2.20421698E-05
   3.74519992        -1.96563269E-05
   3.75720000        -1.73687877E-05
   3.76920009        -1.52134444E-05
   3.78119993        -1.32246323E-05
   3.79320002        -1.14369213E-05
   3.80520010        -9.88455940E-06
   3.81719995        -8.60052387E-06
   3.82920003        -7.61525325E-06
   3.84120011        -6.95513518E-06
   3.85319996        -6.64082154E-06
   3.86520004        -6.68554867E-06
   3.87719989        -7.09354345E-06
   3.88919997        -7.85866996E-06
   3.90120006        -8.96344136E-06
   3.91319990        -1.03784978E-05
   3.92519999        -1.20625955E-05
   3.93720007        -1.39632057E-05
   3.94919991        -1.60176860E-05
   3.96120000        -1.81550386E-05
   3.97320008        -2.02981682E-05
   3.98519993        -2.23666011E-05
   3.99720001        -2.42795140E-05
   4.00920010        -2.59589542E-05
   4.02120018        -2.73331334E-05
   4.03319979        -2.83396039E-05
   4.04519987        -2.89281816E-05
   4.05719995        -2.90634616E-05
   4.06920004        -2.87268231E-05
   4.08120012        -2.79177839E-05
   4.09320021        -2.66546176E-05
   4.10519981        -2.49742425E-05
   4.11719990        -2.29312864E-05
   4.12919998        -2.05964352E-05
   4.14120007        -1.80540464E-05
   4.15320015        -1.53991714E-05
   4.16520023        -1.27340727E-05
   4.17719984        -1.01643927E-05
   4.18919992        -7.79512175E-06
   4.20120001        -5.72654244E-06
   4.21320009        -4.05031187E-06
   4.22520018        -2.84585644E-06
   4.23719978        -2.17722732E-06
   4.24919987        -2.09054951E-06
   4.26119995        -2.61217247E-06
   4.27320004        -3.74759838E-06
   4.28520012        -5.48123307E-06
   4.29720020        -7.77695095E-06
   4.30919981        -1.05794597E-05
   4.32119989        -1.38163796E-05
   4.33319998        -1.74009401E-05
   4.34520006        -2.12351752E-05
   4.35720015        -2.52134487E-05
   4.36920023        -2.92261902E-05
   4.38119984        -3.31636365E-05
   4.39319992        -3.69194568E-05
   4.40520000        -4.03941158E-05
   4.41720009        -4.34978501E-05
   4.42920017        -4.61531781E-05
   4.44119978        -4.82968790E-05
   4.45319986        -4.98813897E-05
   4.46519995        -5.08756602E-05
   4.47720003        -5.12654478E-05
   4.48920012        -5.10530990E-05
   4.50120020        -5.02569310E-05
   4.51319981        -4.89102276E-05
   4.52519989        -4.70599225E-05
   4.53719997        -4.47650964E-05
   4.54920006        -4.20952747E-05
   4.56120014        -3.91286485E-05
   4.57320023        -3.59501646E-05
   4.58519983        -3.26495901E-05
   4.59719992        -2.93195044E-05
   4.60920000        -2.60532452E-05
   4.62120008        -2.29428006E-05
   4.63320017        -2.00766717E-05
   4.64519978        -1.75376990E-05
   4.65719986        -1.54009122E-05
   4.66919994        -1.37314191E-05
   4.68120003        -1.25824226E-05
   4.69320011        -1.19934184E-05
   4.70520020        -1.19886763E-05
   4.71719980        -1.25760753E-05
   4.72919989        -1.37463812E-05
   4.74119997        -1.54730369E-05
   4.75320005        -1.77125239E-05
   4.76520014        -2.04052903E-05
   4.77720022        -2.34772979E-05
   4.78919983        -2.68420954E-05
   4.80119991        -3.04033965E-05
   4.81320000        -3.40580445E-05
   4.82520008        -3.76992721E-05
   4.83720016        -4.12200752E-05
   4.84919977        -4.45166734E-05
   4.86119986        -4.74917797E-05
   4.87319994        -5.00576425E-05
   4.88520002        -5.21387337E-05
   4.89720011        -5.36739644E-05
   4.90920019        -5.46183946E-05
   4.92119980        -5.49443575E-05
   4.93319988        -5.46420815E-05
   4.94519997        -5.37196865E-05
   4.95720005        -5.22027185E-05
   4.96920013        -5.01332142E-05
   4.98120022        -4.75683628E-05
   4.99319983        -4.45788355E-05
   5.00519991        -4.12467998E-05
   5.01719999        -3.76637763E-05
   5.02920008        -3.39282415E-05
   5.04120016        -3.01431046E-05
   5.05319977        -2.64131068E-05
   5.06519985        -2.28421086E-05
   5.07719994        -1.95303783E-05
   5.08920002        -1.65718884E-05
   5.10120010        -1.40516822E-05
   5.11320019        -1.20433933E-05
   5.12519979        -1.06069647E-05
   5.13719988        -9.78666958E-06
   5.14919996        -9.60949365E-06
   5.16120005        -1.00839698E-05
   5.17320013        -1.11995287E-05
   5.18520021        -1.29264363E-05
   5.19719982        -1.52163448E-05
   5.20919991        -1.80034913E-05
   5.22119999        -2.12065188E-05
   5.23320007        -2.47308872E-05
   5.24520016        -2.84718117E-05
   5.25719976        -3.23175991E-05
   5.26919985        -3.61532620E-05
   5.28119993        -3.98642624E-05
   5.29320002        -4.33402238E-05
   5.30520010        -4.64784207E-05
   5.31720018        -4.91869505E-05
   5.32919979        -5.13873711E-05
   5.34119987        -5.30168036E-05
   5.35319996        -5.40293113E-05
   5.36520004        -5.43966125E-05
   5.37720013        -5.41080990E-05
   5.38920021        -5.31702026E-05
   5.40119982        -5.16051805E-05
   5.41319990        -4.94494343E-05
   5.42519999        -4.67514765E-05
   5.43720007        -4.35696420E-05
   5.44920015        -3.99697383E-05
   5.46120024        -3.60227423E-05
   5.47319984        -3.18026177E-05
   5.48519993        -2.73843834E-05
   5.49720001        -2.28425070E-05
   5.50920010        -1.82496187E-05
   5.52120018        -1.36755843E-05
   5.53319979        -9.18689784E-06
   5.54519987        -4.84633483E-06
   5.55719995        -7.12811868E-07
   5.56920004         3.15863463E-06
   5.58120012         6.71683620E-06
   5.59320021         9.91451179E-06
   5.60519981         1.27083922E-05
   5.61719990         1.50594660E-05
   5.62919998         1.69334016E-05
   5.64120007         1.83011016E-05
   5.65320015         1.91393974E-05
   5.66520023         1.94318218E-05
   5.67719984         1.91694126E-05
   5.68919992         1.83514749E-05
   5.70120001         1.69862487E-05
   5.71320009         1.50913947E-05
   5.72520018         1.26942659E-05
   5.73719978         9.83187874E-06
   5.74919987         6.55059375E-06
   5.76119995         2.90545813E-06
   5.77320004        -1.04077651E-06
   5.78520012        -5.21892980E-06
   5.79720020        -9.55493215E-06
   5.80919981        -1.39715539E-05
   5.82119989        -1.83902830E-05
   5.83319998        -2.27332566E-05
   5.84520006        -2.69251886E-05
   5.85720015        -3.08952185E-05
   5.86920023        -3.45786211E-05
   5.88119984        -3.79183075E-05
   5.89319992        -4.08661253E-05
   5.90520000        -4.33838504E-05
   5.91720009        -4.54439032E-05
   5.92920017        -4.70297637E-05
   5.94119978        -4.81360366E-05
   5.95319986        -4.87683028E-05
   5.96519995        -4.89425765E-05
   5.97720003        -4.86845929E-05
   5.98920012        -4.80287599E-05
   6.00120020        -4.70170089E-05
   6.01319981        -4.56974049E-05
   6.02519989        -4.41226148E-05
   6.03719997        -4.23483580E-05
   6.04920006        -4.04317470E-05
   6.06120014        -3.84296363E-05
   6.07320023        -3.63970903E-05
   6.08519983        -3.43858810E-05
   6.09719992        -3.24431894E-05
   6.10920000        -3.06104630E-05
   6.12120008        -2.89225591E-05
   6.13320017        -2.74070771E-05
   6.14519978        -2.60840261E-05
   6.15719986        -2.49657514E-05
   6.16919994        -2.40571535E-05
   6.18120003        -2.33561914E-05
   6.19320011        -2.28546360E-05
   6.20520020        -2.25390431E-05
   6.21719980        -2.23919269E-05
   6.22919989        -2.23930419E-05
   6.24119997        -2.25207332E-05
   6.25320005        -2.27533073E-05
   6.26520014        -2.30703008E-05
   6.27720022        -2.34536383E-05
   6.28919983        -2.38885877E-05
   6.30119991        -2.43644663E-05
   6.31320000        -2.48750748E-05
   6.32520008        -2.54188344E-05
   6.33720016        -2.59986373E-05
   6.34919977        -2.66213847E-05
   6.36119986        -2.72973048E-05
   6.37319994        -2.80390323E-05
   6.38520002        -2.88605424E-05
   6.39720011        -2.97759925E-05
   6.40920019        -3.07985174E-05
   6.42119980        -3.19390892E-05
   6.43319988        -3.32054733E-05
   6.44519997        -3.46013658E-05
   6.45720005        -3.61257153E-05
   6.46920013        -3.77722899E-05
   6.48120022        -3.95294956E-05
   6.49319983        -4.13804009E-05
   6.50519991        -4.33030000E-05
   6.51719999        -4.52706372E-05
   6.52920008        -4.72525790E-05
   6.54120016        -4.92146937E-05
   6.55319977        -5.11202088E-05
   6.56519985        -5.29305216E-05
   6.57719994        -5.46060437E-05
   6.58920002        -5.61070628E-05
   6.60120010        -5.73946236E-05
   6.61320019        -5.84314475E-05
   6.62519979        -5.91828284E-05
   6.63719988        -5.96176033E-05
   6.64919996        -5.97090730E-05
   6.66120005        -5.94359590E-05
   6.67320013        -5.87833274E-05
   6.68520021        -5.77434221E-05
   6.69719982        -5.63164431E-05
   6.70919991        -5.45111398E-05
   6.72119999        -5.23452145E-05
   6.73320007        -4.98455229E-05
   6.74520016        -4.70478917E-05
   6.75719976        -4.39967043E-05
   6.76919985        -4.07441003E-05
   6.78119993        -3.73488401E-05
   6.79320002        -3.38748505E-05
   6.80520010        -3.03894867E-05
   6.81720018        -2.69616012E-05
   6.82919979        -2.36594424E-05
   6.84119987        -2.05485285E-05
   6.85319996        -1.76895828E-05
   6.86520004        -1.51366266E-05
   6.87720013        -1.29353448E-05
   6.88920021        -1.11217905E-05
   6.90119982        -9.72152156E-06
   6.91319990        -8.74917077E-06
   6.92519999        -8.20848800E-06
   6.93720007        -8.09282938E-06
   6.94920015        -8.38602591E-06
   6.96120024        -9.06358036E-06
   6.97319984        -1.00940915E-05
   6.98519993        -1.14408158E-05
   6.99720001        -1.30632607E-05
   7.00920010        -1.49187190E-05
   7.02120018        -1.69636660E-05
   7.03319979        -1.91549352E-05
   7.04519987        -2.14506599E-05
   7.05719995        -2.38109424E-05
   7.06920004        -2.61982259E-05
   7.08120012        -2.85774622E-05
   7.09320021        -3.09160678E-05
   7.10519981        -3.31837437E-05
   7.11719990        -3.53522228E-05
   7.12919998        -3.73950716E-05
   7.14120007        -3.92875263E-05
   7.15320015        -4.10064968E-05
   7.16520023        -4.25307371E-05
   7.17719984        -4.38411553E-05
   7.18919992        -4.49213621E-05
   7.20120001        -4.57582682E-05
   7.21320009        -4.63427750E-05
   7.22520018        -4.66704769E-05
   7.23719978        -4.67422215E-05
   7.24919987        -4.65645862E-05
   7.26119995        -4.61500349E-05
   7.27320004        -4.55168847E-05
   7.28520012        -4.46889208E-05
   7.29720020        -4.36947121E-05
   7.30919981        -4.25666803E-05
   7.32119989        -4.13398702E-05
   7.33319998        -4.00505996E-05
   7.34520006        -3.87349755E-05
   7.35720015        -3.74274459E-05
   7.36920023        -3.61593848E-05
   7.38119984        -3.49579204E-05
   7.39319992        -3.38449754E-05
   7.40520000        -3.28366223E-05
   7.41720009        -3.19428254E-05
   7.42920017        -3.11674958E-05
   7.44119978        -3.05089397E-05
   7.45319986        -2.99605672E-05
   7.46519995        -2.95118571E-05
   7.47720003        -2.91494598E-05
   7.48920012        -2.88583997E-05
   7.50120020        -2.86232171E-05
   7.51319981        -2.84290418E-05
   7.52519989        -2.82624806E-05
   7.53719997        -2.81123012E-05
   7.54920006        -2.79698615E-05
   7.56120014        -2.78293064E-05
   7.57320023        -2.76874944E-05
   7.58519983        -2.75437651E-05
   7.59719992        -2.73995156E-05
   7.60920000        -2.72576945E-05
   7.62120008        -2.71222270E-05
   7.63320017        -2.69974880E-05
   7.64519978        -2.68878302E-05
   7.65719986        -2.67971991E-05
   7.66919994        -2.67288942E-05
   7.68120003        -2.66854659E-05
   7.69320011        -2.66687148E-05
   7.70520020        -2.66798143E-05
   7.71719980        -2.67194628E-05
   7.72919989        -2.67880969E-05
   7.74119997        -2.68860476E-05
   7.75320005        -2.70136570E-05
   7.76520014        -2.71713197E-05
   7.77720022        -2.73593978E-05
   7.78919983        -2.75780803E-05
   7.80119991        -2.78271127E-05
   7.81320000        -2.81055272E-05
   7.82520008        -2.84113303E-05
   7.83720016        -2.87412549E-05
   7.84919977        -2.90905828E-05
   7.86119986        -2.94531201E-05
   7.87319994        -2.98213145E-05
   7.88520002        -3.01865839E-05
   7.89720011        -3.05397843E-05
   7.90920019        -3.08718772E-05
   7.92119980        -3.11746626E-05
   7.93319988        -3.14415993E-05
   7.94519997        -3.16685473E-05
   7.95720005        -3.18544844E-05
   7.96920013        -3.20020044E-05
   7.98120022        -3.21175721E-05
   7.99319983        -3.22115229E-05
   8.00520039        -3.22977285E-05
   8.01720047        -3.23929598E-05
   8.02919960        -3.25159635E-05
   8.04119968        -3.26862937E-05
   8.05319977        -3.29229733E-05
   8.06519985        -3.32431046E-05
   8.07719994        -3.36604753E-05
   8.08920002        -3.41843188E-05
   8.10120010        -3.48182621E-05
   8.11320019        -3.55596349E-05
   8.12520027        -3.63990694E-05
   8.13720036        -3.73205767E-05
   8.14920044        -3.83019906E-05
   8.16119957        -3.93158080E-05
   8.17319965        -4.03303893E-05
   8.18519974        -4.13114431E-05
   8.19719982        -4.22236481E-05
   8.20919991        -4.30324071E-05
   8.22119999        -4.37055387E-05
   8.23320007        -4.42148594E-05
   8.24520016        -4.45375008E-05
   8.25720024        -4.46569647E-05
   8.26920033        -4.45637852E-05
   8.28120041        -4.42558303E-05
   8.29319954        -4.37381968E-05
   8.30519962        -4.30227519E-05
   8.31719971        -4.21273689E-05
   8.32919979        -4.10748908E-05
   8.34119987        -3.98919583E-05
   8.35319996        -3.86076754E-05
   8.36520004        -3.72522918E-05
   8.37720013        -3.58559264E-05
   8.38920021        -3.44473810E-05
   8.40120029        -3.30531329E-05
   8.41320038        -3.16965343E-05
   8.42520046        -3.03972101E-05
   8.43719959        -2.91706929E-05
   8.44919968        -2.80282784E-05
   8.46119976        -2.69770753E-05
   8.47319984        -2.60202160E-05
   8.48519993        -2.51572001E-05
   8.49720001        -2.43843224E-05
   8.50920010        -2.36951637E-05
   8.52120018        -2.30811329E-05
   8.53320026        -2.25319909E-05
   8.54520035        -2.20364236E-05
   8.55720043        -2.15825785E-05
   8.56919956        -2.11586139E-05
   8.58119965        -2.07532503E-05
   8.59319973        -2.03562904E-05
   8.60519981        -1.99591341E-05
   8.61719990        -1.95552457E-05
   8.62919998        -1.91405834E-05
   8.64120007        -1.87139485E-05
   8.65320015        -1.82772510E-05
   8.66520023        -1.78356677E-05
   8.67720032        -1.73976678E-05
   8.68920040        -1.69749019E-05
   8.70119953        -1.65819201E-05
   8.71319962        -1.62357610E-05
   8.72519970        -1.59553656E-05
   8.73719978        -1.57608556E-05
   8.74919987        -1.56727201E-05
   8.76119995        -1.57109098E-05
   8.77320004        -1.58938983E-05
   8.78520012        -1.62377819E-05
   8.79720020        -1.67554063E-05
   8.80920029        -1.74556426E-05
   8.82120037        -1.83427692E-05
   8.83320045        -1.94160857E-05
   8.84519958        -2.06696895E-05
   8.85719967        -2.20924667E-05
   8.86919975        -2.36683281E-05
   8.88119984        -2.53765957E-05
   8.89319992        -2.71925874E-05
   8.90520000        -2.90883272E-05
   8.91720009        -3.10333562E-05
   8.92920017        -3.29955910E-05
   8.94120026        -3.49422116E-05
   8.95320034        -3.68405126E-05
   8.96520042        -3.86587162E-05
   8.97719955        -4.03667036E-05
   8.98919964        -4.19367025E-05
   9.00119972        -4.33438581E-05
   9.01319981        -4.45667611E-05
   9.02519989        -4.55878944E-05
   9.03719997        -4.63940341E-05
   9.04920006        -4.69765582E-05
   9.06120014        -4.73317123E-05
   9.07320023        -4.74607732E-05
   9.08520031        -4.73701402E-05