 -0.622799993         1.00000002E-24
 -0.610800028         1.00000002E-24
 -0.598800004         1.00000002E-24
 -0.586799979         1.00000002E-24
 -0.574800014         1.00000002E-24
 -0.562799990         1.00000012E-24
 -0.550800025         1.00000022E-24
 -0.538800001         1.00000022E-24
 -0.526799977         1.00000022E-24
 -0.514800012         1.00000022E-24
 -0.502799988         9.99999822E-25
 -0.490799993         9.99996667E-25
 -0.478799999         9.99981284E-25
 -0.466800004         9.99927642E-25
 -0.454800010         9.99797775E-25
 -0.442799985         9.99617915E-25
 -0.430799991         9.99724904E-25
 -0.418799996         1.00119317E-24
 -0.406800002         1.00601903E-24
 -0.394800007         1.01577566E-24
 -0.382800013         1.02672564E-24
 -0.370799989         1.02061562E-24
 -0.358799994         9.56281940E-25
 -0.346799999         7.78823784E-25
 -0.334800005         4.74707650E-25
 -0.322800010         1.95399614E-25
 -0.310799986         4.22606395E-25
 -0.298799992         2.03859604E-24
 -0.286799997         6.02654824E-24
 -0.274800003         1.24761161E-23
 -0.262800008         1.88099812E-23
 -0.250800014         1.78649464E-23
 -0.238800004        -2.39106916E-24
 -0.226799995        -5.46981258E-23
 -0.214800000        -1.41357513E-22
 -0.202800006        -2.36576432E-22
 -0.190799996        -2.69309489E-22
 -0.178800002        -1.22189291E-22
 -0.166800007         3.32127380E-22
 -0.154799998         1.14103568E-21
 -0.142800003         2.13634297E-21
 -0.130799994         2.80510214E-21
 -0.118799999         2.27100781E-21
 -0.106799997        -4.81115841E-22
  -9.48000029E-02    -6.04410776E-21
  -8.28000009E-02    -1.37398626E-20
  -7.07999989E-02    -2.07772131E-20
  -5.88000007E-02    -2.19820097E-20
  -4.67999987E-02    -1.08072351E-20
  -3.48000005E-02     1.78604466E-20
  -2.28000004E-02     6.32635681E-20
  -1.08000003E-02     1.14017606E-19
   1.20000006E-03     1.45620843E-19
   1.31999999E-02     1.23547606E-19
   2.52000000E-02     1.45874674E-20
   3.72000001E-02    -1.93594359E-19
   4.91999984E-02    -4.69350138E-19
   6.12000003E-02    -7.20451308E-19
   7.32000023E-02    -7.97682421E-19
   8.51999968E-02    -5.31025241E-19
   9.71999988E-02     1.97928772E-19
  0.109200001         1.36012181E-18
  0.121200003         2.69286870E-18
  0.133200005         3.67279152E-18
  0.145199999         3.59866828E-18
  0.157199994         1.81211553E-18
  0.169200003        -1.96602448E-18
  0.181199998        -7.27394424E-18
  0.193200007        -1.26758836E-17
  0.205200002        -1.58385764E-17
  0.217199996        -1.40550625E-17
  0.229200006        -5.22523541E-18
  0.241200000         1.08969978E-17
  0.253199995         3.15959668E-17
  0.265199989         5.07762768E-17
  0.277200013         5.97599942E-17
  0.289200008         4.95613503E-17
  0.301200002         1.44039359E-17
  0.313199997        -4.43808868E-17
  0.325199991        -1.15484578E-16
  0.337199986        -1.77402144E-16
  0.349200010        -2.02128491E-16
  0.361200005        -1.63021457E-16
  0.373199999        -4.55523169E-17
  0.385199994         1.41982482E-16
  0.397199988         3.61877065E-16
  0.409200013         5.48690897E-16
  0.421200007         6.21804928E-16
  0.433200002         5.08426497E-16
  0.445199996         1.72609380E-16
  0.457199991        -3.57948156E-16
  0.469199985        -9.77681850E-16
  0.481200010        -1.51099889E-15
  0.493200004        -1.74709863E-15
  0.505200028        -1.49891056E-15
  0.517199993        -6.74008415E-16
  0.529200017         6.62644251E-16
  0.541199982         2.25781164E-15
  0.553200006         3.69123025E-15
  0.565199971         4.45796998E-15
  0.577199996         4.10338039E-15
  0.589200020         2.38236656E-15
  0.601199985        -6.01135048E-16
  0.613200009        -4.32452036E-15
  0.625199974        -7.88804768E-15
  0.637199998        -1.01846013E-14
  0.649200022        -1.01788644E-14
  0.661199987        -7.23803968E-15
  0.673200011        -1.42573888E-15
  0.685199976         6.33965875E-15
  0.697200000         1.43430478E-14
  0.709200025         2.03808934E-14
  0.721199989         2.22855419E-14
  0.733200014         1.85583411E-14
  0.745199978         8.94806368E-15
  0.757200003        -5.20766020E-15
  0.769200027        -2.10278826E-14
  0.781199992        -3.45864051E-14
  0.793200016        -4.18069611E-14
  0.805199981        -3.95716852E-14
  0.817200005        -2.67611894E-14
  0.829200029        -4.91284573E-15
  0.841199994         2.17599461E-14
  0.853200018         4.71007239E-14
  0.865199983         6.44057290E-14
  0.877200007         6.81823440E-14
  0.889199972         5.58151039E-14
  0.901199996         2.86418635E-14
  0.913200021        -7.95516488E-15
  0.925199986        -4.56005371E-14
  0.937200010        -7.49533627E-14
  0.949199975        -8.82277243E-14
  0.961199999        -8.15075614E-14
  0.973200023        -5.61314470E-14
  0.985199988        -1.86210537E-14
  0.997200012         2.09800659E-14
   1.00919998         5.20019547E-14
   1.02119994         6.64812105E-14
   1.03320003         6.18922231E-14
   1.04519999         4.23023704E-14
   1.05719995         1.73728423E-14
   1.06920004        -7.29299550E-16
   1.08120000        -1.72678731E-15
   1.09319997         1.84040507E-14
   1.10520005         5.46333540E-14
   1.11720002         9.28806389E-14
   1.12919998         1.13307028E-13
   1.14119995         9.63530403E-14
   1.15320003         2.99708412E-14
   1.16520000        -8.41484814E-14
   1.17719996        -2.27576448E-13
   1.18920004        -3.66909248E-13
   1.20120001        -4.60536990E-13
   1.21319997        -4.69134497E-13
   1.22520006        -3.67260015E-13
   1.23720002        -1.52786041E-13
   1.24919999         1.48838407E-13
   1.26119995         4.87257641E-13
   1.27320004         7.96685851E-13
   1.28520000         1.01005478E-12
   1.29719996         1.07420355E-12
   1.30920005         9.62009335E-13
   1.32120001         6.78143034E-13
   1.33319998         2.56996247E-13
   1.34519994        -2.46282297E-13
   1.35720003        -7.68531831E-13
   1.36919999        -1.25081586E-12
   1.38119996        -1.64612768E-12
   1.39320004        -1.92027991E-12
   1.40520000        -2.04639712E-12
   1.41719997        -1.99622740E-12
   1.42920005        -1.73335207E-12
   1.44120002        -1.21351876E-12
   1.45319998        -3.95451494E-13
   1.46519995         7.38052252E-13
   1.47720003         2.15315179E-12
   1.48920000         3.74011325E-12
   1.50119996         5.30024202E-12
   1.51320004         6.55314518E-12
   1.52520001         7.16892865E-12
   1.53719997         6.82391166E-12
   1.54920006         5.27183028E-12
   1.56120002         2.41703597E-12
   1.57319999        -1.62648898E-12
   1.58519995        -6.50556215E-12
   1.59720004        -1.16383214E-11
   1.60920000        -1.62682350E-11
   1.62119997        -1.95567642E-11
   1.63320005        -2.07024276E-11
   1.64520001        -1.90692184E-11
   1.65719998        -1.43056981E-11
   1.66919994        -6.43793439E-12
   1.68120003         4.07640328E-12
   1.69319999         1.63403700E-11
   1.70519996         2.90591318E-11
   1.71720004         4.06295414E-11
   1.72920001         4.92748238E-11
   1.74119997         5.32196683E-11
   1.75320005         5.08991772E-11
   1.76520002         4.11911928E-11
   1.77719998         2.36554960E-11
   1.78919995        -1.24481762E-12
   1.80120003        -3.19732296E-11
   1.81320000        -6.58409993E-11
   1.82519996        -9.90613980E-11
   1.83720005        -1.26972113E-10
   1.84920001        -1.44445358E-10
   1.86119998        -1.46479620E-10
   1.87320006        -1.28934655E-10
   1.88520002        -8.93365520E-11
   1.89719999        -2.76481546E-11
   1.90919995         5.31210353E-11
   1.92120004         1.46596887E-10
   1.93320000         2.43130904E-10
   1.94519997         3.30380112E-10
   1.95720005         3.94402927E-10
   1.96920002         4.21230800E-10
   1.98119998         3.98803546E-10
   1.99319994         3.19088006E-10
   2.00519991         1.80148646E-10
   2.01719999        -1.20941070E-11
   2.02920008        -2.42683318E-10
   2.04119992        -4.87262453E-10
   2.05320001        -7.12715054E-10
   2.06520009        -8.78912720E-10
   2.07719994        -9.41579259E-10
   2.08920002        -8.56170246E-10
   2.10120010        -5.82556559E-10
   2.11319995        -9.01912503E-11
   2.12520003         6.36652953E-10
   2.13720012         1.59406222E-09
   2.14919996         2.75460432E-09
   2.16120005         4.06492173E-09
   2.17319989         5.44527179E-09
   2.18519998         6.79138301E-09
   2.19720006         7.97881139E-09
   2.20919991         8.86976625E-09
   2.22119999         9.32203736E-09
   2.23320007         9.19937637E-09
   2.24519992         8.38226466E-09
   2.25720000         6.77769130E-09
   2.26920009         4.32626868E-09
   2.28119993         1.00472530E-09
   2.29320002        -3.17823745E-09
   2.30520010        -8.19484036E-09
   2.31719995        -1.40218024E-08
   2.32920003        -2.06762660E-08
   2.34120011        -2.82653865E-08
   2.35319996        -3.70503415E-08
   2.36520004        -4.75248640E-08
   2.37719989        -6.05077304E-08
   2.38919997        -7.72477335E-08
   2.40120006        -9.95388376E-08
   2.41319990        -1.29842235E-07
   2.42519999        -1.71410917E-07
   2.43720007        -2.28411523E-07
   2.44919991        -3.06037180E-07
   2.46120000        -4.10603832E-07
   2.47320008        -5.49622371E-07
   2.48519993        -7.31837645E-07
   2.49720001        -9.67225446E-07
   2.50920010        -1.26693931E-06
   2.52119994        -1.64319840E-06
   2.53320003        -2.10910980E-06
   2.54520011        -2.67842029E-06
   2.55719995        -3.36519633E-06
   2.56920004        -4.18342916E-06
   2.58119988        -5.14657449E-06
   2.59319997        -6.26702968E-06
   2.60520005        -7.55556130E-06
   2.61719990        -9.02070587E-06
   2.62919998        -1.06681500E-05
   2.64120007        -1.25001334E-05
   2.65319991        -1.45148824E-05
   2.66520000        -1.67061171E-05
   2.67720008        -1.90626561E-05
   2.68919992        -2.15681412E-05
   2.70120001        -2.42009301E-05
   2.71320009        -2.69341454E-05
   2.72519994        -2.97359275E-05
   2.73720002        -3.25698857E-05
   2.74920011        -3.53957621E-05
   2.76119995        -3.81702557E-05
   2.77320004        -4.08480664E-05
   2.78520012        -4.33830319E-05
   2.79719996        -4.57294263E-05
   2.80920005        -4.78432776E-05
   2.82119989        -4.96837274E-05
   2.83319998        -5.12143306E-05
   2.84520006        -5.24042662E-05
   2.85719991        -5.32293961E-05
   2.86919999        -5.36731313E-05
   2.88120008        -5.37270244E-05
   2.89319992        -5.33911443E-05
   2.90520000        -5.26741023E-05
   2.91720009        -5.15928441E-05
   2.92919993        -5.01720788E-05
   2.94120002        -4.84434822E-05
   2.95320010        -4.64446493E-05
   2.96519995        -4.42178571E-05
   2.97720003        -4.18086565E-05
   2.98920012        -3.92644324E-05
   3.00119996        -3.66328968E-05
   3.01320004        -3.39606595E-05
   3.02519989        -3.12918673E-05
   3.03719997        -2.86670493E-05
   3.04920006        -2.61221121E-05
   3.06119990        -2.36876149E-05
   3.07319999        -2.13882649E-05
   3.08520007        -1.92426960E-05
   3.09719992        -1.72634900E-05
   3.10920000        -1.54574427E-05
   3.12120008        -1.38260257E-05
   3.13319993        -1.23660275E-05
   3.14520001        -1.10702968E-05
   3.15720010        -9.92857713E-06
   3.16919994        -8.92835851E-06
   3.18120003        -8.05570016E-06
   3.19320011        -7.29600697E-06
   3.20519996        -6.63468836E-06
   3.21720004        -6.05770811E-06
   3.22919989        -5.55198540E-06
   3.24119997        -5.10566269E-06
   3.25320005        -4.70822624E-06
   3.26519990        -4.35051061E-06
   3.27719998        -4.02459727E-06
   3.28920007        -3.72364366E-06
   3.30119991        -3.44166551E-06
   3.31320000        -3.17331160E-06
   3.32520008        -2.91365177E-06
   3.33719993        -2.65800941E-06
   3.34920001        -2.40185454E-06
   3.36120009        -2.14077272E-06
   3.37319994        -1.87050887E-06
   3.38520002        -1.58708588E-06
   3.39720011        -1.28698071E-06
   3.40919995        -9.67344818E-07
   3.42120004        -6.26238432E-07
   3.43319988        -2.62853433E-07
   3.44519997         1.22304726E-07
   3.45720005         5.27300756E-07
   3.46919990         9.48745253E-07
   3.48119998         1.38187374E-06
   3.49320006         1.82074064E-06
   3.50519991         2.25852432E-06
   3.51719999         2.68793679E-06
   3.52920008         3.10171163E-06
   3.54119992         3.49315064E-06
   3.55320001         3.85668636E-06
   3.56520009         4.18842819E-06
   3.57719994         4.48664332E-06
   3.58920002         4.75214256E-06
   3.60120010         4.98852023E-06
   3.61319995         5.20223011E-06
   3.62520003         5.40246492E-06
   3.63720012         5.60083981E-06
   3.64919996         5.81087261E-06
   3.66120005         6.04728211E-06
   3.67319989         6.32513638E-06
   3.68519998         6.65889138E-06
   3.69720006         7.06137462E-06
   3.70919991         7.54276380E-06
   3.72119999         8.10964411E-06
   3.73320007         8.76419472E-06
   3.74519992         9.50356116E-06
   3.75720000         1.03194789E-05
   3.76920009         1.11981635E-05
   3.78119993         1.21205294E-05
   3.79320002         1.30627050E-05
   3.80520010         1.39968579E-05
   3.81719995         1.48922991E-05
   3.82920003         1.57168179E-05
   3.84120011         1.64381909E-05
   3.85319996         1.70257863E-05
   3.86520004         1.74522065E-05
   3.87719989         1.76948433E-05
   3.88919997         1.77373076E-05
   3.90120006         1.75706064E-05
   3.91319990         1.71940555E-05
   3.92519999         1.66158061E-05
   3.93720007         1.58529965E-05
   3.94919991         1.49315001E-05
   3.96120000         1.38852583E-05
   3.97320008         1.27552248E-05
   3.98519993         1.15879711E-05
   3.99720001         1.04339979E-05
   4.00920010         9.34583750E-06
   4.02120018         8.37601783E-06
   4.03319979         7.57496991E-06
   4.04519987         6.98899248E-06
   4.05719995         6.65833022E-06
   4.06920004         6.61547028E-06
   4.08120012         6.88372029E-06
   4.09320021         7.47612239E-06
   4.10519981         8.39475797E-06
   4.11719990         9.63047205E-06
   4.12919998         1.11630161E-05
   4.14120007         1.29616201E-05
   4.15320015         1.49859643E-05
   4.16520023         1.71875217E-05
   4.17719984         1.95112298E-05
   4.18919992         2.18974074E-05
   4.20120001         2.42838905E-05
   4.21320009         2.66082770E-05
   4.22520018         2.88102237E-05
   4.23719978         3.08337039E-05
   4.24919987         3.26291447E-05
   4.26119995         3.41553678E-05
   4.27320004         3.53812575E-05
   4.28520012         3.62870924E-05
   4.29720020         3.68654619E-05
   4.30919981         3.71217830E-05
   4.32119989         3.70743219E-05
   4.33319998         3.67537286E-05
   4.34520006         3.62021237E-05
   4.35720015         3.54716685E-05
   4.36920023         3.46227898E-05
   4.38119984         3.37219426E-05
   4.39319992         3.28391579E-05
   4.40520000         3.20453037E-05
   4.41720009         3.14092649E-05
   4.42920017         3.09950847E-05
   4.44119978         3.08591916E-05
   4.45319986         3.10478354E-05
   4.46519995         3.15947873E-05
   4.47720003         3.25194560E-05
   4.48920012         3.38254576E-05
   4.50120020         3.54997064E-05
   4.51319981         3.75120871E-05
   4.52519989         3.98157244E-05
   4.53719997         4.23477977E-05
   4.54920006         4.50309708E-05
   4.56120014         4.77752874E-05
   4.57320023         5.04805394E-05
   4.58519983         5.30389952E-05
   4.59719992         5.53384016E-05
   4.60920000         5.72651625E-05
   4.62120008         5.87075483E-05
   4.63320017         5.95589154E-05
   4.64519978         5.97207400E-05
   4.65719986         5.91054268E-05
   4.66919994         5.76387829E-05
   4.68120003         5.52621386E-05
   4.69320011         5.19340065E-05
   4.70520020         4.76312489E-05
   4.71719980         4.23498022E-05
   4.72919989         3.61048624E-05
   4.74119997         2.89306172E-05
   4.75320005         2.08795427E-05
   4.76520014         1.20212526E-05
   4.77720022         2.44100329E-06
   4.78919983        -7.76212073E-06
   4.80119991        -1.84772853E-05
   4.81320000        -2.95841692E-05
   4.82520008        -4.09553977E-05
   4.83720016        -5.24590287E-05
   4.84919977        -6.39611026E-05
   4.86119986        -7.53281784E-05
   4.87319994        -8.64297326E-05
   4.88520002        -9.71405825E-05
   4.89720011        -1.07343054E-04
   4.90920019        -1.16929012E-04
   4.92119980        -1.25801685E-04
   4.93319988        -1.33877256E-04
   4.94519997        -1.41086144E-04
   4.95720005        -1.47374041E-04
   4.96920013        -1.52702662E-04
   4.98120022        -1.57050032E-04
   4.99319983        -1.60410695E-04
   5.00519991        -1.62795230E-04
   5.01719999        -1.64229845E-04
   5.02920008        -1.64755256E-04
   5.04120016        -1.64425452E-04
   5.05319977        -1.63306206E-04
   5.06519985        -1.61473130E-04
   5.07719994        -1.59009782E-04
   5.08920002        -1.56005306E-04
   5.10120010        -1.52552122E-04
   5.11320019        -1.48743638E-04
   5.12519979        -1.44671823E-04
   5.13719988        -1.40424920E-04
   5.14919996        -1.36085349E-04
   5.16120005        -1.31727880E-04
   5.17320013        -1.27418010E-04
   5.18520021        -1.23210790E-04
   5.19719982        -1.19149910E-04
   5.20919991        -1.15267409E-04
   5.22119999        -1.11583635E-04
   5.23320007        -1.08107750E-04
   5.24520016        -1.04838626E-04
   5.25719976        -1.01766105E-04
   5.26919985        -9.88725733E-05
   5.28119993        -9.61347978E-05
   5.29320002        -9.35259013E-05
   5.30520010        -9.10174203E-05
   5.31720018        -8.85813351E-05
   5.32919979        -8.61918961E-05
   5.34119987        -8.38273481E-05
   5.35319996        -8.14712839E-05
   5.36520004        -7.91136263E-05
   5.37720013        -7.67512684E-05
   5.38920021        -7.43882119E-05
   5.40119982        -7.20353564E-05
   5.41319990        -6.97098221E-05
   5.42519999        -6.74339171E-05
   5.43720007        -6.52337912E-05
   5.44920015        -6.31378716E-05
   5.46120024        -6.11751166E-05
   5.47319984        -5.93732111E-05
   5.48519993        -5.77568426E-05
   5.49720001        -5.63460162E-05
   5.50920010        -5.51546691E-05
   5.52120018        -5.41895170E-05
   5.53319979        -5.34492210E-05
   5.54519987        -5.29239878E-05
   5.55719995        -5.25954856E-05
   5.56920004        -5.24372408E-05
   5.58120012        -5.24153402E-05
   5.59320021        -5.24895186E-05
   5.60519981        -5.26145232E-05
   5.61719990        -5.27417069E-05
   5.62919998        -5.28207929E-05
   5.64120007        -5.28017481E-05
   5.65320015        -5.26366239E-05
   5.66520023        -5.22814007E-05
   5.67719984        -5.16976397E-05
   5.68919992        -5.08539779E-05
   5.70120001        -4.97273650E-05
   5.71320009        -4.83039876E-05
   5.72520018        -4.65798730E-05
   5.73719978        -4.45611367E-05
   5.74919987        -4.22638805E-05
   5.76119995        -3.97137264E-05
   5.77320004        -3.69450499E-05
   5.78520012        -3.39998696E-05
   5.79720020        -3.09265415E-05
   5.80919981        -2.77781837E-05
   5.82119989        -2.46110085E-05
   5.83319998        -2.14825322E-05
   5.84520006        -1.84497785E-05
   5.85720015        -1.55675043E-05
   5.86920023        -1.28865158E-05
   5.88119984        -1.04521341E-05
   5.89319992        -8.30284080E-06
   5.90520000        -6.46917260E-06
   5.91720009        -4.97285737E-06
   5.92920017        -3.82624194E-06
   5.94119978        -3.03201546E-06
   5.95319986        -2.58322825E-06
   5.96519995        -2.46360560E-06
   5.97720003        -2.64812934E-06
   5.98920012        -3.10387736E-06
   6.00120020        -3.79106928E-06
   6.01319981        -4.66430174E-06
   6.02519989        -5.67391226E-06
   6.03719997        -6.76743457E-06
   6.04920006        -7.89110254E-06
   6.06120014        -8.99135011E-06
   6.07320023        -1.00162697E-05
   6.08519983        -1.09169841E-05
   6.09719992        -1.16489027E-05
   6.10920000        -1.21728344E-05
   6.12120008        -1.24559165E-05
   6.13320017        -1.24723674E-05
   6.14519978        -1.22040256E-05
   6.15719986        -1.16406836E-05
   6.16919994        -1.07802052E-05
   6.18120003        -9.62844570E-06
   6.19320011        -8.19895831E-06
   6.20520020        -6.51253094E-06
   6.21719980        -4.59654348E-06
   6.22919989        -2.48416927E-06
   6.24119997        -2.13451699E-07
   6.25320005         2.17372940E-06
   6.26520014         4.63277775E-06
   6.27720022         7.11756365E-06
   6.28919983         9.58163855E-06
   6.30119991         1.19794549E-05
   6.31320000         1.42675726E-05
   6.32520008         1.64058038E-05
   6.33720016         1.83582888E-05
   6.34919977         2.00944578E-05
   6.36119986         2.15898581E-05
   6.37319994         2.28268200E-05
   6.38520002         2.37949189E-05
   6.39720011         2.44912462E-05
   6.40920019         2.49204404E-05
   6.42119980         2.50944813E-05
   6.43319988         2.50322537E-05
   6.44519997         2.47588723E-05
   6.45720005         2.43047816E-05
   6.46920013         2.37046788E-05
   6.48120022         2.29962607E-05
   6.49319983         2.22188737E-05
   6.50519991         2.14120773E-05
   6.51719999         2.06142231E-05
   6.52920008         1.98610469E-05
   6.54120016         1.91843919E-05
   6.55319977         1.86110810E-05
   6.56519985         1.81619926E-05
   6.57719994         1.78513910E-05
   6.58920002         1.76865378E-05
   6.60120010         1.76675985E-05
   6.61320019         1.77878519E-05
   6.62519979         1.80341958E-05
   6.63719988         1.83879019E-05
   6.64919996         1.88256199E-05
   6.66120005         1.93205342E-05
   6.67320013         1.98436428E-05
   6.68520021         2.03650688E-05
   6.69719982         2.08553593E-05
   6.70919991         2.12866962E-05
   6.72119999         2.16339577E-05
   6.73320007         2.18756031E-05
   6.74520016         2.19943413E-05
   6.75719976         2.19775702E-05
   6.76919985         2.18175737E-05
   6.78119993         2.15115160E-05
   6.79320002         2.10612434E-05
   6.80520010         2.04728967E-05
   6.81720018         1.97564350E-05
   6.82919979         1.89250495E-05
   6.84119987         1.79945455E-05
   6.85319996         1.69827108E-05
   6.86520004         1.59087158E-05
   6.87720013         1.47925348E-05
   6.88920021         1.36544404E-05
   6.90119982         1.25145425E-05
   6.91319990         1.13923943E-05
   6.92519999         1.03066359E-05
   6.93720007         9.27467408E-06
   6.94920015         8.31238413E-06
   6.96120024         7.43382225E-06
   6.97319984         6.65094831E-06
   6.98519993         5.97335065E-06
   6.99720001         5.40799192E-06
   7.00920010         4.95898212E-06
   7.02120018         4.62740309E-06
   7.03319979         4.41119982E-06
   7.04519987         4.30516729E-06
   7.05719995         4.30104501E-06
   7.06920004         4.38773577E-06
   7.08120012         4.55165036E-06
   7.09320021         4.77717913E-06
   7.10519981         5.04726722E-06
   7.11719990         5.34408082E-06
   7.12919998         5.64972515E-06
   7.14120007         5.94698122E-06
   7.15320015         6.22001699E-06
   7.16520023         6.45503633E-06
   7.17719984         6.64082381E-06
   7.18919992         6.76915533E-06
   7.20120001         6.83504732E-06
   7.21320009         6.83683265E-06
   7.22520018         6.77605658E-06
   7.23719978         6.65720108E-06
   7.24919987         6.48725927E-06
   7.26119995         6.27518784E-06
   7.27320004         6.03127501E-06
   7.28520012         5.76646516E-06
   7.29720020         5.49168681E-06
   7.30919981         5.21722768E-06
   7.32119989         4.95218910E-06
   7.33319998         4.70405939E-06
   7.34520006         4.47842240E-06
   7.35720015         4.27880786E-06
   7.36920023         4.10669782E-06
   7.38119984         3.96165433E-06
   7.39319992         3.84157283E-06
   7.40520000         3.74301158E-06
   7.41720009         3.66158042E-06
   7.42920017         3.59234582E-06
   7.44119978         3.53022233E-06
   7.45319986         3.47032096E-06
   7.46519995         3.40823294E-06
   7.47720003         3.34022297E-06
   7.48920012         3.26333861E-06
   7.50120020         3.17541844E-06
   7.51319981         3.07501773E-06
   7.52519989         2.96126041E-06
   7.53719997         2.83364034E-06
   7.54920006         2.69179577E-06
   7.56120014         2.53528583E-06
   7.57320023         2.36339315E-06
   7.58519983         2.17497904E-06
   7.59719992         1.96841484E-06
   7.60920000         1.74159413E-06
   7.62120008         1.49204266E-06
   7.63320017         1.21711093E-06
   7.64519978         9.14244310E-07
   7.65719986         5.81309962E-07
   7.66919994         2.16950056E-07
   7.68120003        -1.79065111E-07
   7.69320011        -6.05515879E-07
   7.70520020        -1.05947413E-06
   7.71719980        -1.53613200E-06
   7.72919989        -2.02873912E-06
   7.74119997        -2.52866130E-06
   7.75320005        -3.02556964E-06
   7.76520014        -3.50775304E-06
   7.77720022        -3.96254381E-06
   7.78919983        -4.37684048E-06
   7.80119991        -4.73769978E-06
   7.81320000        -5.03296314E-06
   7.82520008        -5.25189034E-06
   7.83720016        -5.38575341E-06
   7.84919977        -5.42836642E-06
   7.86119986        -5.37651158E-06
   7.87319994        -5.23023573E-06
   7.88520002        -4.99300495E-06
   7.89720011        -4.67169639E-06
   7.90920019        -4.27643727E-06
   7.92119980        -3.82029020E-06
   7.93319988        -3.31880892E-06
   7.94519997        -2.78948278E-06
   7.95720005        -2.25110830E-06
   7.96920013        -1.72311240E-06
   7.98120022        -1.22487029E-06
   7.99319983        -7.75047965E-07
   8.00520039        -3.91003681E-07
   8.01720047        -8.82688980E-08
   8.02919960         1.19869995E-07
   8.04119968         2.22679375E-07
   8.05319977         2.12176715E-07
   8.06519985         8.32244069E-08
   8.07719994        -1.66466279E-07
   8.08920002        -5.36406617E-07
   8.10120010        -1.02345257E-06
   8.11320019        -1.62196216E-06
   8.12520027        -2.32396769E-06
   8.13720036        -3.11935128E-06
   8.14920044        -3.99601595E-06
   8.16119957        -4.94004644E-06
   8.17319965        -5.93586492E-06
   8.18519974        -6.96639336E-06
   8.19719982        -8.01322494E-06
   8.20919991        -9.05683191E-06
   8.22119999        -1.00768148E-05
   8.23320007        -1.10522133E-05
   8.24520016        -1.19618880E-05
   8.25720024        -1.27849780E-05
   8.26920033        -1.35014370E-05
   8.28120041        -1.40926277E-05
   8.29319954        -1.45419717E-05
   8.30519962        -1.48356230E-05
   8.31719971        -1.49631223E-05
   8.32919979        -1.49180105E-05
   8.34119987        -1.46983448E-05
   8.35319996        -1.43071020E-05
   8.36520004        -1.37524039E-05
   8.37720013        -1.30475510E-05
   8.38920021        -1.22108422E-05
   8.40120029        -1.12651669E-05
   8.41320038        -1.02373815E-05
   8.42520046        -9.15746386E-06
   8.43719959        -8.05751097E-06
   8.44919968        -6.97057976E-06
   8.46119976        -5.92945526E-06
   8.47319984        -4.96536995E-06
   8.48519993        -4.10675921E-06
   8.49720001        -3.37809820E-06
   8.50920010        -2.79888468E-06
   8.52120018        -2.38281245E-06
   8.53320026        -2.13718454E-06
   8.54520035        -2.06259801E-06
   8.55720043        -2.15292289E-06
   8.56919956        -2.39558108E-06
   8.58119965        -2.77212007E-06
   8.59319973        -3.25906262E-06
   8.60519981        -3.82899225E-06
   8.61719990        -4.45183059E-06
   8.62919998        -5.09624579E-06
   8.64120007        -5.73112993E-06
   8.65320015        -6.32707406E-06
   8.66520023        -6.85776604E-06
   8.67720032        -7.30125112E-06
   8.68920040        -7.64098695E-06
   8.70119953        -7.86663804E-06
   8.71319962        -7.97458142E-06
   8.72519970        -7.96807217E-06
   8.73719978        -7.85708380E-06
   8.74919987        -7.65780078E-06
   8.76119995        -7.39180541E-06
   8.77320004        -7.08499147E-06
   8.78520012        -6.76624722E-06
   8.79720020        -6.46599301E-06
   8.80920029        -6.21463005E-06
   8.82120037        -6.04099750E-06
   8.83320045        -5.97090684E-06
   8.84519958        -6.02584032E-06
   8.85719967        -6.22187872E-06
   8.86919975        -6.56890870E-06
   8.88119984        -7.07015988E-06
   8.89319992        -7.72207841E-06
   8.90520000        -8.51455206E-06
   8.91720009        -9.43144369E-06
   8.92920017        -1.04514256E-05
   8.94120026        -1.15490375E-05
   8.95320034        -1.26958994E-05
   8.96520042        -1.38620308E-05
   8.97719955        -1.50171709E-05
   8.98919964        -1.61320459E-05
   9.00119972        -1.71795054E-05
   9.01319981        -1.81354771E-05
   9.02519989        -1.89797083E-05
   9.03719997        -1.96962483E-05
   9.04920006        -2.02736992E-05
   9.06120014        -2.07052071E-05
   9.07320023        -2.09882510E-05
   9.08520031        -2.11242550E-05