 -0.622799993         1.00000002E-24
 -0.610800028         1.00000002E-24
 -0.598800004         1.00000002E-24
 -0.586799979         2.00584218E-16
 -0.574800014         7.77067708E-16
 -0.562799990         5.40969503E-16
 -0.550800025        -5.19898743E-15
 -0.538800001        -2.57438283E-14
 -0.526799977        -7.25071316E-14
 -0.514800012        -1.51608340E-13
 -0.502799988        -2.53654302E-13
 -0.490799993        -3.46856712E-13
 -0.478799999        -3.81674916E-13
 -0.466800004        -3.12773299E-13
 -0.454800010        -1.36667180E-13
 -0.442799985         6.66725450E-14
 -0.430799991         1.08010274E-13
 -0.418799996        -3.00748575E-13
 -0.406800002        -1.48926921E-12
 -0.394800007        -3.73268560E-12
 -0.382800013        -7.14615129E-12
 -0.370799989        -1.16142825E-11
 -0.358799994        -1.67993900E-11
 -0.346799999        -2.22535757E-11
 -0.334800005        -2.76265833E-11
 -0.322800010        -3.29244583E-11
 -0.310799986        -3.87485530E-11
 -0.298799992        -4.64408026E-11
 -0.286799997        -5.80845649E-11
 -0.274800003        -7.63530628E-11
 -0.262800008        -1.04245897E-10
 -0.250800014        -1.44789208E-10
 -0.238800004        -2.00785250E-10
 -0.226799995        -2.74676726E-10
 -0.214800000        -3.68548997E-10
 -0.202800006        -4.84246532E-10
 -0.190799996        -6.23544605E-10
 -0.178800002        -7.88302867E-10
 -0.166800007        -9.80539872E-10
 -0.154799998        -1.20238763E-09
 -0.142800003        -1.45591406E-09
 -0.130799994        -1.74280557E-09
 -0.118799999        -2.06390394E-09
 -0.106799997        -2.41858578E-09
  -9.48000029E-02    -2.80398216E-09
  -8.28000009E-02    -3.21407034E-09
  -7.07999989E-02    -3.63874308E-09
  -5.88000007E-02    -4.06302991E-09
  -4.67999987E-02    -4.46671145E-09
  -3.48000005E-02    -4.82459761E-09
  -2.28000004E-02    -5.10765386E-09
  -1.08000003E-02    -5.28506439E-09
   1.20000006E-03    -5.32714983E-09
   1.31999999E-02    -5.20891419E-09
   2.52000000E-02    -4.91388086E-09
   3.72000001E-02    -4.43789316E-09
   4.91999984E-02    -3.79258225E-09
   6.12000003E-02    -3.00830227E-09
   7.32000023E-02    -2.13639173E-09
   8.51999968E-02    -1.25055311E-09
   9.71999988E-02    -4.47008069E-10
  0.109200001         1.57151112E-10
  0.121200003         4.28153707E-10
  0.133200005         2.23165250E-10
  0.145199999        -5.98120498E-10
  0.157199994        -2.15769669E-09
  0.169200003        -4.53995375E-09
  0.181199998        -7.77041098E-09
  0.193200007        -1.17949179E-08
  0.205200002        -1.64623746E-08
  0.217199996        -2.15143334E-08
  0.229200006        -2.65844804E-08
  0.241200000        -3.12104120E-08
  0.253199995        -3.48588003E-08
  0.265199989        -3.69639679E-08
  0.277200013        -3.69782214E-08
  0.289200008        -3.44311850E-08
  0.301200002        -2.89939788E-08
  0.313199997        -2.05431299E-08
  0.325199991        -9.21821197E-09
  0.337199986         4.53347937E-09
  0.349200010         1.99321892E-08
  0.361200005         3.58677674E-08
  0.373199999         5.09344602E-08
  0.385199994         6.35027391E-08
  0.397199988         7.18297528E-08
  0.409200013         7.42064046E-08
  0.421200007         6.91347992E-08
  0.433200002         5.55253337E-08
  0.445199996         3.28984378E-08
  0.457199991         1.57240321E-09
  0.469199985        -3.71831668E-08
  0.481200010        -8.10488601E-08
  0.493200004        -1.26630439E-07
  0.505200028        -1.69521201E-07
  0.517199993        -2.04458971E-07
  0.529200017        -2.25576784E-07
  0.541199982        -2.26736105E-07
  0.553200006        -2.01921921E-07
  0.565199971        -1.45669162E-07
  0.577199996        -5.34828324E-08
  0.589200020         7.77928548E-08
  0.601199985         2.49699582E-07
  0.613200009         4.62029163E-07
  0.625199974         7.12861890E-07
  0.637199998         9.98804467E-07
  0.649200022         1.31543561E-06
  0.661199987         1.65795484E-06
  0.673200011         2.02200204E-06
  0.685199976         2.40460554E-06
  0.697200000         2.80519112E-06
  0.709200025         3.22657252E-06
  0.721199989         3.67583766E-06
  0.733200014         4.16504054E-06
  0.745199978         4.71161093E-06
  0.757200003         5.33841785E-06
  0.769200027         6.07342372E-06
  0.781199992         6.94890923E-06
  0.793200016         8.00026919E-06
  0.805199981         9.26442135E-06
  0.817200005         1.07778887E-05
  0.829200029         1.25746546E-05
  0.841199994         1.46839066E-05
  0.853200018         1.71278152E-05
  0.865199983         1.99194965E-05
  0.877200007         2.30612568E-05
  0.889199972         2.65433227E-05
  0.901199996         3.03430697E-05
  0.913200021         3.44249129E-05
  0.925199986         3.87408327E-05
  0.937200010         4.32315755E-05
  0.949199975         4.78284637E-05
  0.961199999         5.24557690E-05
  0.973200023         5.70335287E-05
  0.985199988         6.14806704E-05
  0.997200012         6.57183045E-05
   1.00919998         6.96730349E-05
   1.02119994         7.32800836E-05
   1.03320003         7.64861688E-05
   1.04519999         7.92519131E-05
   1.05719995         8.15537642E-05
   1.06920004         8.33852391E-05
   1.08120000         8.47575720E-05
   1.09319997         8.56996630E-05
   1.10520005         8.62573070E-05
   1.11720002         8.64917965E-05
   1.12919998         8.64779722E-05
   1.14119995         8.63016976E-05
   1.15320003         8.60569344E-05
   1.16520000         8.58424610E-05
   1.17719996         8.57583436E-05
   1.18920004         8.59022912E-05
   1.20120001         8.63660607E-05
   1.21319997         8.72318924E-05
   1.22520006         8.85692425E-05
   1.23720002         9.04317931E-05
   1.24919999         9.28549489E-05
   1.26119995         9.58538949E-05
   1.27320004         9.94221846E-05
   1.28520000         1.03531107E-04
   1.29719996         1.08129709E-04
   1.30920005         1.13145565E-04
   1.32120001         1.18486358E-04
   1.33319998         1.24042126E-04
   1.34519994         1.29688109E-04
   1.35720003         1.35288385E-04
   1.36919999         1.40699674E-04
   1.38119996         1.45775746E-04
   1.39320004         1.50371852E-04
   1.40520000         1.54349240E-04
   1.41719997         1.57579503E-04
   1.42920005         1.59948657E-04
   1.44120002         1.61360615E-04
   1.45319998         1.61740245E-04
   1.46519995         1.61035612E-04
   1.47720003         1.59219460E-04
   1.48920000         1.56289898E-04
   1.50119996         1.52270193E-04
   1.51320004         1.47207800E-04
   1.52520001         1.41172597E-04
   1.53719997         1.34254515E-04
   1.54920006         1.26560466E-04
   1.56120002         1.18210992E-04
   1.57319999         1.09336499E-04
   1.58519995         1.00073405E-04
   1.59720004         9.05603301E-05
   1.60920000         8.09342819E-05
   1.62119997         7.13272457E-05
   1.63320005         6.18631020E-05
   1.64520001         5.26549775E-05
   1.65719998         4.38032112E-05
   1.66919994         3.53938231E-05
   1.68120003         2.74976865E-05
   1.69319999         2.01702696E-05
   1.70519996         1.34519469E-05
   1.71720004         7.36889797E-06
   1.72920001         1.93439905E-06
   1.74119997        -2.84948533E-06
   1.75320005        -6.98999293E-06
   1.76520002        -1.05016316E-05
   1.77719998        -1.34041547E-05
   1.78919995        -1.57206359E-05
   1.80120003        -1.74757934E-05
   1.81320000        -1.86946036E-05
   1.82519996        -1.94013392E-05
   1.83720005        -1.96190231E-05
   1.84920001        -1.93693195E-05
   1.86119998        -1.86728703E-05
   1.87320006        -1.75500027E-05
   1.88520002        -1.60217060E-05
   1.89719999        -1.41108012E-05
   1.90919995        -1.18431653E-05
   1.92120004        -9.24888627E-06
   1.93320000        -6.36320783E-06
   1.94519997        -3.22715914E-06
   1.95720005         1.12200816E-07
   1.96920002         3.60200715E-06
   1.98119998         7.18427873E-06
   1.99319994         1.07970900E-05
   2.00519991         1.43761472E-05
   2.01719999         1.78566988E-05
   2.02920008         2.11756615E-05
   2.04119992         2.42738497E-05
   2.05320001         2.70981363E-05
   2.06520009         2.96034323E-05
   2.07719994         3.17543345E-05
   2.08920002         3.35263576E-05
   2.10120010         3.49066722E-05
   2.11319995         3.58943216E-05
   2.12520003         3.64999105E-05
   2.13720012         3.67448338E-05
   2.14919996         3.66600580E-05
   2.16120005         3.62846040E-05
   2.17319989         3.56637902E-05
   2.18519998         3.48473295E-05
   2.19720006         3.38873979E-05
   2.20919991         3.28368151E-05
   2.22119999         3.17473314E-05
   2.23320007         3.06681359E-05
   2.24519992         2.96446196E-05
   2.25720000         2.87174298E-05
   2.26920009         2.79217275E-05
   2.28119993         2.72867310E-05
   2.29320002         2.68354052E-05
   2.30520010         2.65842973E-05
   2.31719995         2.65434792E-05
   2.32920003         2.67165469E-05
   2.34120011         2.71006575E-05
   2.35319996         2.76866140E-05
   2.36520004         2.84590114E-05
   2.37719989         2.93964677E-05
   2.38919997         3.04719779E-05
   2.40120006         3.16533915E-05
   2.41319990         3.29041177E-05
   2.42519999         3.41839586E-05
   2.43720007         3.54502481E-05
   2.44919991         3.66591230E-05
   2.46120000         3.77670440E-05
   2.47320008         3.87324799E-05
   2.48519993         3.95176721E-05
   2.49720001         4.00904792E-05
   2.50920010         4.04260900E-05
   2.52119994         4.05086284E-05
   2.53320003         4.03324011E-05
   2.54520011         3.99027667E-05
   2.55719995         3.92364818E-05
   2.56920004         3.83615115E-05
   2.58119988         3.73162038E-05
   2.59319997         3.61478887E-05
   2.60520005         3.49109469E-05
   2.61719990         3.36644080E-05
   2.62919998         3.24691900E-05
   2.64120007         3.13851669E-05
   2.65319991         3.04681653E-05
   2.66520000         2.97670995E-05
   2.67720008         2.93214162E-05
   2.68919992         2.91589877E-05
   2.70120001         2.92945952E-05
   2.71320009         2.97291372E-05
   2.72519994         3.04495643E-05
   2.73720002         3.14296121E-05
   2.74920011         3.26312620E-05
   2.76119995         3.40068254E-05
   2.77320004         3.55015618E-05
   2.78520012         3.70566013E-05
   2.79719996         3.86120773E-05
   2.80920005         4.01101461E-05
   2.82119989         4.14978422E-05
   2.83319998         4.27295090E-05
   2.84520006         4.37686758E-05
   2.85719991         4.45893493E-05
   2.86919999         4.51765372E-05
   2.88120008         4.55261215E-05
   2.89319992         4.56440539E-05
   2.90520000         4.55449699E-05
   2.91720009         4.52503664E-05
   2.92919993         4.47864986E-05
   2.94120002         4.41821321E-05
   2.95320010         4.34663743E-05
   2.96519995         4.26666811E-05
   2.97720003         4.18072232E-05
   2.98920012         4.09076856E-05
   3.00119996         3.99825476E-05
   3.01320004         3.90409186E-05
   3.02519989         3.80868623E-05
   3.03719997         3.71201822E-05
   3.04920006         3.61375423E-05
   3.06119990         3.51338713E-05
   3.07319999         3.41038613E-05
   3.08520007         3.30434559E-05
   3.09719992         3.19512328E-05
   3.10920000         3.08294839E-05
   3.12120008         2.96849812E-05
   3.13319993         2.85293972E-05
   3.14520001         2.73792557E-05
   3.15720010         2.62555368E-05
   3.16919994         2.51829297E-05
   3.18120003         2.41887828E-05
   3.19320011         2.33018618E-05
   3.20519996         2.25509721E-05
   3.21720004         2.19635458E-05
   3.22919989         2.15643049E-05
   3.24119997         2.13740277E-05
   3.25320005         2.14084994E-05
   3.26519990         2.16777335E-05
   3.27719998         2.21854352E-05
   3.28920007         2.29287489E-05
   3.30119991         2.38982793E-05
   3.31320000         2.50783432E-05
   3.32520008         2.64474584E-05
   3.33719993         2.79789638E-05
   3.34920001         2.96417729E-05
   3.36120009         3.14012323E-05
   3.37319994         3.32199961E-05
   3.38520002         3.50589544E-05
   3.39720011         3.68781184E-05
   3.40919995         3.86375468E-05
   3.42120004         4.02982005E-05
   3.43319988         4.18227901E-05
   3.44519997         4.31765548E-05
   3.45720005         4.43280042E-05
   3.46919990         4.52496097E-05
   3.48119998         4.59184412E-05
   3.49320006         4.63167380E-05
   3.50519991         4.64324403E-05
   3.51719999         4.62596217E-05
   3.52920008         4.57988463E-05
   3.54119992         4.50574116E-05
   3.55320001         4.40494732E-05
   3.56520009         4.27960404E-05
   3.57719994         4.13247180E-05
   3.58920002         3.96693686E-05
   3.60120010         3.78694822E-05
   3.61319995         3.59693913E-05
   3.62520003         3.40172810E-05
   3.63720012         3.20640138E-05
   3.64919996         3.01618038E-05
   3.66120005         2.83627269E-05
   3.67319989         2.67171872E-05
   3.68519998         2.52723185E-05
   3.69720006         2.40703775E-05
   3.70919991         2.31472623E-05
   3.72119999         2.25311269E-05
   3.73320007         2.22412400E-05
   3.74519992         2.22870731E-05
   3.75720000         2.26677585E-05
   3.76920009         2.33718365E-05
   3.78119993         2.43774357E-05
   3.79320002         2.56527801E-05
   3.80520010         2.71570916E-05
   3.81719995         2.88418323E-05
   3.82920003         3.06522234E-05
   3.84120011         3.25290384E-05
   3.85319996         3.44106084E-05
   3.86520004         3.62349019E-05
   3.87719989         3.79416924E-05
   3.88919997         3.94746894E-05
   3.90120006         4.07835505E-05
   3.91319990         4.18257041E-05
   3.92519999         4.25679209E-05
   3.93720007         4.29875581E-05
   3.94919991         4.30734181E-05
   3.96120000         4.28262574E-05
   3.97320008         4.22587800E-05
   3.98519993         4.13953167E-05
   3.99720001         4.02709302E-05
   4.00920010         3.89302550E-05
   4.02120018         3.74258780E-05
   4.03319979         3.58163998E-05
   4.04519987         3.41642262E-05
   4.05719995         3.25331894E-05
   4.06920004         3.09860443E-05
   4.08120012         2.95819573E-05
   4.09320021         2.83741228E-05
   4.10519981         2.74075701E-05
   4.11719990         2.67173018E-05
   4.12919998         2.63268394E-05
   4.14120007         2.62472495E-05
   4.15320015         2.64767423E-05
   4.16520023         2.70008422E-05
   4.17719984         2.77931267E-05
   4.18919992         2.88165738E-05
   4.20120001         3.00253923E-05
   4.21320009         3.13673190E-05
   4.22520018         3.27862253E-05
   4.23719978         3.42249477E-05
   4.24919987         3.56281234E-05
   4.26119995         3.69449735E-05
   4.27320004         3.81317514E-05
   4.28520012         3.91538561E-05
   4.29720020         3.99873607E-05
   4.30919981         4.06199433E-05
   4.32119989         4.10511529E-05
   4.33319998         4.12920126E-05
   4.34520006         4.13639755E-05
   4.35720015         4.12972986E-05
   4.36920023         4.11289657E-05
   4.38119984         4.09002714E-05
   4.39319992         4.06541767E-05
   4.40520000         4.04326929E-05
   4.41720009         4.02743353E-05
   4.42920017         4.02118712E-05
   4.44119978         4.02704936E-05
   4.45319986         4.04664788E-05
   4.46519995         4.08064479E-05
   4.47720003         4.12872396E-05
   4.48920012         4.18963609E-05
   4.50120020         4.26130173E-05
   4.51319981         4.34095564E-05
   4.52519989         4.42533346E-05
   4.53719997         4.51087581E-05
   4.54920006         4.59394359E-05
   4.56120014         4.67103455E-05
   4.57320023         4.73897780E-05
   4.58519983         4.79511073E-05
   4.59719992         4.83741605E-05
   4.60920000         4.86461904E-05
   4.62120008         4.87623875E-05
   4.63320017         4.87259640E-05
   4.64519978         4.85477467E-05
   4.65719986         4.82454416E-05
   4.66919994         4.78424881E-05
   4.68120003         4.73667496E-05
   4.69320011         4.68489961E-05
   4.70520020         4.63213582E-05
   4.71719980         4.58157701E-05
   4.72919989         4.53625362E-05
   4.74119997         4.49890431E-05
   4.75320005         4.47186540E-05
   4.76520014         4.45698824E-05
   4.77720022         4.45557926E-05
   4.78919983         4.46836930E-05
   4.80119991         4.49550753E-05
   4.81320000         4.53658322E-05
   4.82520008         4.59066687E-05
   4.83720016         4.65637313E-05
   4.84919977         4.73193322E-05
   4.86119986         4.81528295E-05
   4.87319994         4.90414786E-05
   4.88520002         4.99613561E-05
   4.89720011         5.08882331E-05
   4.90920019         5.17984008E-05
   4.92119980         5.26694130E-05
   4.93319988         5.34807332E-05
   4.94519997         5.42142734E-05
   4.95720005         5.48547760E-05
   4.96920013         5.53900572E-05
   4.98120022         5.58111351E-05
   4.99319983         5.61121815E-05
   5.00519991         5.62904133E-05
   5.01719999         5.63458161E-05
   5.02920008         5.62809255E-05
   5.04120016         5.61004781E-05
   5.05319977         5.58111315E-05
   5.06519985         5.54211838E-05
   5.07719994         5.49403412E-05
   5.08920002         5.43795577E-05
   5.10120010         5.37508568E-05
   5.11320019         5.30672914E-05
   5.12519979         5.23428644E-05
   5.13719988         5.15924985E-05
   5.14919996         5.08320663E-05
   5.16120005         5.00782990E-05
   5.17320013         4.93487169E-05
   5.18520021         4.86614808E-05
   5.19719982         4.80350755E-05
   5.20919991         4.74879453E-05
   5.22119999         4.70379237E-05
   5.23320007         4.67015961E-05
   5.24520016         4.64935365E-05
   5.25719976         4.64254772E-05
   5.26919985         4.65055346E-05
   5.28119993         4.67374339E-05
   5.29320002         4.71198837E-05
   5.30520010         4.76461100E-05
   5.31720018         4.83035765E-05
   5.32919979         4.90740167E-05
   5.34119987         4.99336893E-05
   5.35319996         5.08539379E-05
   5.36520004         5.18020315E-05
   5.37720013         5.27422562E-05
   5.38920021         5.36372172E-05
   5.40119982         5.44492977E-05
   5.41319990         5.51422017E-05
   5.42519999         5.56824707E-05
   5.43720007         5.60409462E-05
   5.44920015         5.61940651E-05
   5.46120024         5.61249217E-05
   5.47319984         5.58240718E-05
   5.48519993         5.52899874E-05
   5.49720001         5.45292060E-05
   5.50920010         5.35560903E-05
   5.52120018         5.23923045E-05
   5.53319979         5.10659447E-05
   5.54519987         4.96104185E-05
   5.55719995         4.80631279E-05
   5.56920004         4.64640507E-05
   5.58120012         4.48542050E-05
   5.59320021         4.32742236E-05
   5.60519981         4.17629162E-05
   5.61719990         4.03561062E-05
   5.62919998         3.90855603E-05
   5.64120007         3.79782359E-05
   5.65320015         3.70557136E-05
   5.66520023         3.63339132E-05
   5.67719984         3.58230282E-05
   5.68919992         3.55276497E-05
   5.70120001         3.54470903E-05
   5.71320009         3.55758239E-05
   5.72520018         3.59040168E-05
   5.73719978         3.64180923E-05
   5.74919987         3.71012975E-05
   5.76119995         3.79342346E-05
   5.77320004         3.88953413E-05
   5.78520012         3.99612727E-05
   5.79720020         4.11072397E-05
   5.80919981         4.23072961E-05
   5.82119989         4.35345974E-05
   5.83319998         4.47616476E-05
   5.84520006         4.59605908E-05
   5.85720015         4.71035783E-05
   5.86920023         4.81631505E-05
   5.88119984         4.91127066E-05
   5.89319992         4.99270463E-05
   5.90520000         5.05829594E-05
   5.91720009         5.10598220E-05
   5.92920017         5.13401974E-05
   5.94119978         5.14104067E-05
   5.95319986         5.12610059E-05
   5.96519995         5.08871235E-05
   5.97720003         5.02887124E-05
   5.98920012         4.94705637E-05
   6.00120020         4.84421143E-05
   6.01319981         4.72171159E-05
   6.02519989         4.58130635E-05
   6.03719997         4.42505261E-05
   6.04920006         4.25523212E-05
   6.06120014         4.07427106E-05
   6.07320023         3.88465487E-05
   6.08519983         3.68885048E-05
   6.09719992         3.48924259E-05
   6.10920000         3.28807764E-05
   6.12120008         3.08742929E-05
   6.13320017         2.88917545E-05
   6.14519978         2.69499524E-05
   6.15719986         2.50637604E-05
   6.16919994         2.32463663E-05
   6.18120003         2.15095515E-05
   6.19320011         1.98640591E-05
   6.20520020         1.83199281E-05
   6.21719980         1.68868319E-05
   6.22919989         1.55743382E-05
   6.24119997         1.43920515E-05
   6.25320005         1.33496724E-05
   6.26520014         1.24569378E-05
   6.27720022         1.17234249E-05
   6.28919983         1.11583122E-05
   6.30119991         1.07700544E-05
   6.31320000         1.05660538E-05
   6.32520008         1.05523068E-05
   6.33720016         1.07331161E-05
   6.34919977         1.11108193E-05
   6.36119986         1.16855890E-05
   6.37319994         1.24552917E-05
   6.38520002         1.34154106E-05
   6.39720011         1.45590066E-05
   6.40920019         1.58767398E-05
   6.42119980         1.73569242E-05
   6.43319988         1.89856219E-05
   6.44519997         2.07467019E-05
   6.45720005         2.26220018E-05
   6.46920013         2.45914161E-05
   6.48120022         2.66330317E-05
   6.49319983         2.87232797E-05
   6.50519991         3.08371018E-05
   6.51719999         3.29481954E-05
   6.52920008         3.50293340E-05
   6.54120016         3.70527378E-05
   6.55319977         3.89905763E-05
   6.56519985         4.08155611E-05
   6.57719994         4.25015824E-05
   6.58920002         4.40244476E-05
   6.60120010         4.53626235E-05
   6.61320019         4.64979421E-05
   6.62519979         4.74162625E-05
   6.63719988         4.81080824E-05
   6.64919996         4.85689161E-05
   6.66120005         4.87996367E-05
   6.67320013         4.88064943E-05
   6.68520021         4.86009885E-05
   6.69719982         4.81994757E-05
   6.70919991         4.76225141E-05
   6.72119999         4.68940743E-05
   6.73320007         4.60404517E-05
   6.74520016         4.50891639E-05
   6.75719976         4.40677068E-05
   6.76919985         4.30024520E-05
   6.78119993         4.19175449E-05
   6.79320002         4.08340675E-05
   6.80520010         3.97694057E-05
   6.81720018         3.87368855E-05
   6.82919979         3.77457145E-05
   6.84119987         3.68011933E-05
   6.85319996         3.59051774E-05
   6.86520004         3.50567680E-05
   6.87720013         3.42531675E-05
   6.88920021         3.34906217E-05
   6.90119982         3.27654343E-05
   6.91319990         3.20749059E-05
   6.92519999         3.14182071E-05
   6.93720007         3.07970076E-05
   6.94920015         3.02159351E-05
   6.96120024         2.96827002E-05
   6.97319984         2.92079676E-05
   6.98519993         2.88049305E-05
   6.99720001         2.84886719E-05
   7.00920010         2.82752990E-05
   7.02120018         2.81810007E-05
   7.03319979         2.82210276E-05
   7.04519987         2.84087055E-05
   7.05719995         2.87545226E-05
   7.06920004         2.92653422E-05
   7.08120012         2.99437834E-05
   7.09320021         3.07877854E-05
   7.10519981         3.17904123E-05
   7.11719990         3.29398717E-05
   7.12919998         3.42197454E-05
   7.14120007         3.56094097E-05
   7.15320015         3.70846028E-05
   7.16520023         3.86181528E-05
   7.17719984         4.01807229E-05
   7.18919992         4.17416413E-05
   7.20120001         4.32696870E-05
   7.21320009         4.47338971E-05
   7.22520018         4.61043164E-05
   7.23719978         4.73527143E-05
   7.24919987         4.84532538E-05
   7.26119995         4.93831285E-05
   7.27320004         5.01231552E-05
   7.28520012         5.06582546E-05
   7.29720020         5.09779020E-05
   7.30919981         5.10764839E-05
   7.32119989         5.09535457E-05
   7.33319998         5.06139550E-05
   7.34520006         5.00679780E-05
   7.35720015         4.93311818E-05
   7.36920023         4.84243101E-05
   7.38119984         4.73729378E-05
   7.39319992         4.62070020E-05
   7.40520000         4.49602048E-05
   7.41720009         4.36691844E-05
   7.42920017         4.23726160E-05
   7.44119978         4.11101209E-05
   7.45319986         3.99211640E-05
   7.46519995         3.88438493E-05
   7.47720003         3.79137418E-05
   7.48920012         3.71627539E-05
   7.50120020         3.66181375E-05
   7.51319981         3.63015788E-05
   7.52519989         3.62284445E-05
   7.53719997         3.64072257E-05
   7.54920006         3.68391738E-05
   7.56120014         3.75181517E-05
   7.57320023         3.84307168E-05
   7.58519983         3.95564275E-05
   7.59719992         4.08683954E-05
   7.60920000         4.23340171E-05
   7.62120008         4.39159012E-05
   7.63320017         4.55729460E-05
   7.64519978         4.72615102E-05
   7.65719986         4.89366212E-05
   7.66919994         5.05532225E-05
   7.68120003         5.20674439E-05
   7.69320011         5.34377759E-05
   7.70520020         5.46262563E-05
   7.71719980         5.55994666E-05
   7.72919989         5.63294998E-05
   7.74119997         5.67947354E-05
   7.75320005         5.69803960E-05
   7.76520014         5.68789619E-05
   7.77720022         5.64903239E-05
   7.78919983         5.58217362E-05
   7.80119991         5.48875396E-05
   7.81320000         5.37086707E-05
   7.82520008         5.23119925E-05
   7.83720016         5.07294717E-05
   7.84919977         4.89971571E-05
   7.86119986         4.71541425E-05
   7.87319994         4.52414133E-05
   7.88520002         4.33007081E-05
   7.89720011         4.13733942E-05
   7.90920019         3.94993986E-05
   7.92119980         3.77162833E-05
   7.93319988         3.60584563E-05
   7.94519997         3.45565168E-05
   7.95720005         3.32367817E-05
   7.96920013         3.21209700E-05
   7.98120022         3.12260090E-05
   7.99319983         3.05640206E-05
   8.00520039         3.01423643E-05
   8.01720047         2.99638359E-05
   8.02919960         3.00268330E-05
   8.04119968         3.03256620E-05
   8.05319977         3.08507952E-05
   8.06519985         3.15891484E-05
   8.07719994         3.25243527E-05
   8.08920002         3.36369922E-05
   8.10120010         3.49048642E-05
   8.11320019         3.63032341E-05
   8.12520027         3.78051591E-05
   8.13720036         3.93818555E-05
   8.14920044         4.10031935E-05
   8.16119957         4.26382685E-05
   8.17319965         4.42560886E-05
   8.18519974         4.58263239E-05
   8.19719982         4.73200998E-05
   8.20919991         4.87108155E-05
   8.22119999         4.99749294E-05
   8.23320007         5.10926475E-05
   8.24520016         5.20485446E-05
   8.25720024         5.28320052E-05
   8.26920033         5.34375067E-05
   8.28120041         5.38646709E-05
   8.29319954         5.41180998E-05
   8.30519962         5.42069647E-05
   8.31719971         5.41443442E-05
   8.32919979         5.39463799E-05
   8.34119987         5.36313019E-05
   8.35319996         5.32183585E-05
   8.36520004         5.27267766E-05
   8.37720013         5.21747934E-05
   8.38920021         5.15788815E-05
   8.40120029         5.09531965E-05
   8.41320038         5.03091833E-05
   8.42520046         4.96555658E-05
   8.43719959         4.89984632E-05
   8.44919968         4.83417462E-05
   8.46119976         4.76876048E-05
   8.47319984         4.70371815E-05
   8.48519993         4.63913129E-05
   8.49720001         4.57512833E-05
   8.50920010         4.51194828E-05
   8.52120018         4.45000114E-05
   8.53320026         4.38990610E-05
   8.54520035         4.33251298E-05
   8.55720043         4.27889245E-05
   8.56919956         4.23030360E-05
   8.58119965         4.18814088E-05
   8.59319973         4.15385293E-05
   8.60519981         4.12885347E-05
   8.61719990         4.11442161E-05
   8.62919998         4.11159890E-05
   8.64120007         4.12109548E-05
   8.65320015         4.14320566E-05
   8.66520023         4.17774027E-05
   8.67720032         4.22398407E-05
   8.68920040         4.28067433E-05
   8.70119953         4.34600697E-05
   8.71319962         4.41767443E-05
   8.72519970         4.49292129E-05
   8.73719978         4.56863636E-05
   8.74919987         4.64145414E-05
   8.76119995         4.70788182E-05
   8.77320004         4.76442983E-05
   8.78520012         4.80775961E-05
   8.79720020         4.83481963E-05
   8.80920029         4.84298471E-05
   8.82120037         4.83017939E-05
   8.83320045         4.79498813E-05
   8.84519958         4.73673863E-05
   8.85719967         4.65556368E-05
   8.86919975         4.55242662E-05
   8.88119984         4.42911878E-05
   8.89319992         4.28822459E-05
   8.90520000         4.13304697E-05
   8.91720009         3.96751784E-05
   8.92920017         3.79606754E-05
   8.94120026         3.62348510E-05
   8.95320034         3.45476037E-05
   8.96520042         3.29491450E-05
   8.97719955         3.14883400E-05
   8.98919964         3.02109747E-05
   9.00119972         2.91582073E-05
   9.01319981         2.83650807E-05
   9.02519989         2.78593197E-05
   9.03719997         2.76603132E-05
   9.04920006         2.77784420E-05
   9.06120014         2.82147485E-05
   9.07320023         2.89609088E-05
   9.08520031         2.99995627E-05