 -0.622799993         1.00000002E-24
 -0.610800028         1.00000002E-24
 -0.598800004         1.00000002E-24
 -0.586799979        -1.52195261E-15
 -0.574800014        -9.39977110E-15
 -0.562799990        -3.14358220E-14
 -0.550800025        -7.39898662E-14
 -0.538800001        -1.33723829E-13
 -0.526799977        -1.88604286E-13
 -0.514800012        -1.93271180E-13
 -0.502799988        -8.35894938E-14
 -0.490799993         2.07870437E-13
 -0.478799999         7.28691738E-13
 -0.466800004         1.48411004E-12
 -0.454800010         2.42625668E-12
 -0.442799985         3.46520425E-12
 -0.430799991         4.50671575E-12
 -0.418799996         5.51363642E-12
 -0.406800002         6.57957413E-12
 -0.394800007         7.99767717E-12
 -0.382800013         1.03061440E-11
 -0.370799989         1.42964694E-11
 -0.358799994         2.09796919E-11
 -0.346799999         3.15178647E-11
 -0.334800005         4.71397643E-11
 -0.322800010         6.90680291E-11
 -0.310799986         9.84868020E-11
 -0.298799992         1.36573031E-10
 -0.286799997         1.84600876E-10
 -0.274800003         2.44110010E-10
 -0.262800008         3.17108617E-10
 -0.250800014         4.06267520E-10
 -0.238800004         5.15056608E-10
 -0.226799995         6.47783549E-10
 -0.214800000         8.09516676E-10
 -0.202800006         1.00590214E-09
 -0.190799996         1.24291744E-09
 -0.178800002         1.52661916E-09
 -0.166800007         1.86295046E-09
 -0.154799998         2.25765029E-09
 -0.142800003         2.71627854E-09
 -0.130799994         3.24432747E-09
 -0.118799999         3.84735843E-09
 -0.106799997         4.53108040E-09
  -9.48000029E-02     5.30130340E-09
  -8.28000009E-02     6.16371398E-09
  -7.07999989E-02     7.12347115E-09
  -5.88000007E-02     8.18464496E-09
  -4.67999987E-02     9.34956290E-09
  -3.48000005E-02     1.06181091E-08
  -2.28000004E-02     1.19870016E-08
  -1.08000003E-02     1.34490410E-08
   1.20000006E-03     1.49922421E-08
   1.31999999E-02     1.65987508E-08
   2.52000000E-02     1.82434228E-08
   3.72000001E-02     1.98919761E-08
   4.91999984E-02     2.14987548E-08
   6.12000003E-02     2.30042971E-08
   7.32000023E-02     2.43331328E-08
   8.51999968E-02     2.53924703E-08
   9.71999988E-02     2.60727084E-08
  0.109200001         2.62507385E-08
  0.121200003         2.57970516E-08
  0.133200005         2.45872886E-08
  0.145199999         2.25184387E-08
  0.157199994         1.95290912E-08
  0.169200003         1.56223390E-08
  0.181199998         1.08890807E-08
  0.193200007         5.52888002E-09
  0.205200002        -1.34877692E-10
  0.217199996        -5.64866731E-09
  0.229200006        -1.04340936E-08
  0.241200000        -1.38067753E-08
  0.253199995        -1.50099027E-08
  0.265199989        -1.32625857E-08
  0.277200013        -7.82204168E-09
  0.289200008         1.94238470E-09
  0.301200002         1.64664993E-08
  0.313199997         3.59043142E-08
  0.325199991         6.00428720E-08
  0.337199986         8.82265283E-08
  0.349200010         1.19299827E-07
  0.361200005         1.51579286E-07
  0.373199999         1.82864426E-07
  0.385199994         2.10497305E-07
  0.397199988         2.31477330E-07
  0.409200013         2.42633377E-07
  0.421200007         2.40850227E-07
  0.433200002         2.23339654E-07
  0.445199996         1.87939804E-07
  0.457199991         1.33421352E-07
  0.469199985         5.97734768E-08
  0.481200010        -3.15594093E-08
  0.493200004        -1.37519734E-07
  0.505200028        -2.53384940E-07
  0.517199993        -3.72844141E-07
  0.529200017        -4.88218177E-07
  0.541199982        -5.90827824E-07
  0.553200006        -6.71503983E-07
  0.565199971        -7.21218726E-07
  0.577199996        -7.31806438E-07
  0.589200020        -6.96727113E-07
  0.601199985        -6.11818564E-07
  0.613200009        -4.75975213E-07
  0.625199974        -2.91688565E-07
  0.637199998        -6.53899193E-08
  0.649200022         1.92456639E-07
  0.661199987         4.67550024E-07
  0.673200011         7.42254883E-07
  0.685199976         9.96409995E-07
  0.697200000         1.20841764E-06
  0.709200025         1.35656364E-06
  0.721199989         1.42050044E-06
  0.733200014         1.38280234E-06
  0.745199978         1.23049404E-06
  0.757200003         9.56443159E-07
  0.769200027         5.60511467E-07
  0.781199992         5.03677420E-08
  0.793200016        -5.58120291E-07
  0.805199981        -1.24096960E-06
  0.817200005        -1.96667156E-06
  0.829200029        -2.69728071E-06
  0.841199994        -3.38996915E-06
  0.853200018        -3.99897090E-06
  0.865199983        -4.47782668E-06
  0.877200007        -4.78180255E-06
  0.889199972        -4.87035231E-06
  0.901199996        -4.70948135E-06
  0.913200021        -4.27386658E-06
  0.925199986        -3.54861436E-06
  0.937200010        -2.53052144E-06
  0.949199975        -1.22877918E-06
  0.961199999         3.34965421E-07
  0.973200023         2.12719510E-06
  0.985199988         4.10375014E-06
  0.997200012         6.21165373E-06
   1.00919998         8.39143559E-06
   1.02119994         1.05798754E-05
   1.03320003         1.27129870E-05
   1.04519999         1.47291466E-05
   1.05719995         1.65721540E-05
   1.06920004         1.81941123E-05
   1.08120000         1.95579687E-05
   1.09319997         2.06395634E-05
   1.10520005         2.14291140E-05
   1.11720002         2.19320300E-05
   1.12919998         2.21690152E-05
   1.14119995         2.21754417E-05
   1.15320003         2.20000056E-05
   1.16520000         2.17027282E-05
   1.17719996         2.13523708E-05
   1.18920004         2.10233720E-05
   1.20120001         2.07924313E-05
   1.21319997         2.07348967E-05
   1.22520006         2.09210739E-05
   1.23720002         2.14126376E-05
   1.24919999         2.22592917E-05
   1.26119995         2.34957770E-05
   1.27320004         2.51394158E-05
   1.28520000         2.71882600E-05
   1.29719996         2.96199269E-05
   1.30920005         3.23911954E-05
   1.32120001         3.54383956E-05
   1.33319998         3.86785869E-05
   1.34519994         4.20114920E-05
   1.35720003         4.53221255E-05
   1.36919999         4.84840566E-05
   1.38119996         5.13631676E-05
   1.39320004         5.38217391E-05
   1.40520000         5.57228013E-05
   1.41719997         5.69345175E-05
   1.42920005         5.73344696E-05
   1.44120002         5.68136820E-05
   1.45319998         5.52802703E-05
   1.46519995         5.26625081E-05
   1.47720003         4.89113081E-05
   1.48920000         4.40019467E-05
   1.50119996         3.79350749E-05
   1.51320004         3.07369119E-05
   1.52520001         2.24587129E-05
   1.53719997         1.31755341E-05
   1.54920006         2.98435089E-06
   1.56120002        -7.99834743E-06
   1.57319999        -1.96393958E-05
   1.58519995        -3.17921113E-05
   1.59720004        -4.42996679E-05
   1.60920000        -5.69985277E-05
   1.62119997        -6.97219293E-05
   1.63320005        -8.23032242E-05
   1.64520001        -9.45791180E-05
   1.65719998        -1.06392625E-04
   1.66919994        -1.17595780E-04
   1.68120003        -1.28052096E-04
   1.69319999        -1.37638621E-04
   1.70519996        -1.46247636E-04
   1.71720004        -1.53788147E-04
   1.72920001        -1.60186828E-04
   1.74119997        -1.65388672E-04
   1.75320005        -1.69357329E-04
   1.76520002        -1.72075117E-04
   1.77719998        -1.73542532E-04
   1.78919995        -1.73777531E-04
   1.80120003        -1.72814558E-04
   1.81320000        -1.70703264E-04
   1.82519996        -1.67506892E-04
   1.83720005        -1.63300676E-04
   1.84920001        -1.58169976E-04
   1.86119998        -1.52208391E-04
   1.87320006        -1.45515907E-04
   1.88520002        -1.38197021E-04
   1.89719999        -1.30358967E-04
   1.90919995        -1.22110054E-04
   1.92120004        -1.13558213E-04
   1.93320000        -1.04809595E-04
   1.94519997        -9.59674217E-05
   1.95720005        -8.71309749E-05
   1.96920002        -7.83947035E-05
   1.98119998        -6.98474687E-05
   1.99319994        -6.15719619E-05
   2.00519991        -5.36441476E-05
   2.01719999        -4.61327982E-05
   2.02920008        -3.90991227E-05
   2.04119992        -3.25964029E-05
   2.05320001        -2.66697243E-05
   2.06520009        -2.13557178E-05
   2.07719994        -1.66823811E-05
   2.08920002        -1.26689329E-05
   2.10120010        -9.32573494E-06
   2.11319995        -6.65426978E-06
   2.12520003        -4.64718005E-06
   2.13720012        -3.28836722E-06
   2.14919996        -2.55315967E-06
   2.16120005        -2.40854388E-06
   2.17319989        -2.81347525E-06
   2.18519998        -3.71928400E-06
   2.19720006        -5.07016921E-06
   2.20919991        -6.80381436E-06
   2.22119999        -8.85214013E-06
   2.23320007        -1.11421941E-05
   2.24519992        -1.35972005E-05
   2.25720000        -1.61377848E-05
   2.26920009        -1.86833731E-05
   2.28119993        -2.11537499E-05
   2.29320002        -2.34707859E-05
   2.30520010        -2.55602863E-05
   2.31719995        -2.73539354E-05
   2.32920003        -2.87912790E-05
   2.34120011        -2.98216801E-05
   2.35319996        -3.04061741E-05
   2.36520004        -3.05191425E-05
   2.37719989        -3.01496966E-05
   2.38919997        -2.93027042E-05
   2.40120006        -2.79993837E-05
   2.41319990        -2.62773501E-05
   2.42519999        -2.41901434E-05
   2.43720007        -2.18061268E-05
   2.44919991        -1.92068055E-05
   2.46120000        -1.64845533E-05
   2.47320008        -1.37397974E-05
   2.48519993        -1.10777628E-05
   2.49720001        -8.60482032E-06
   2.50920010        -6.42461100E-06
   2.52119994        -4.63403921E-06
   2.53320003        -3.31931915E-06
   2.54520011        -2.55222699E-06
   2.55719995        -2.38673169E-06
   2.56920004        -2.85615874E-06
   2.58119988        -3.97104623E-06
   2.59319997        -5.71781766E-06
   2.60520005        -8.05836316E-06
   2.61719990        -1.09305993E-05
   2.62919998        -1.42500121E-05
   2.64120007        -1.79121616E-05
   2.65319991        -2.17960896E-05
   2.66520000        -2.57685133E-05
   2.67720008        -2.96886501E-05
   2.68919992        -3.34134966E-05
   2.70120001        -3.68033943E-05
   2.71320009        -3.97275726E-05
   2.72519994        -4.20695578E-05
   2.73720002        -4.37320996E-05
   2.74920011        -4.46414415E-05
   2.76119995        -4.47507409E-05
   2.77320004        -4.40424737E-05
   2.78520012        -4.25296530E-05
   2.79719996        -4.02558398E-05
   2.80920005        -3.72938921E-05
   2.82119989        -3.37434831E-05
   2.83319998        -2.97275237E-05
   2.84520006        -2.53875332E-05
   2.85719991        -2.08782494E-05
   2.86919999        -1.63616078E-05
   2.88120008        -1.20003724E-05
   2.89319992        -7.95168489E-06
   2.90520000        -4.36079154E-06
   2.91720009        -1.35520600E-06
   2.92919993         9.60418333E-07
   2.94120002         2.50849939E-06
   2.95320010         3.24164580E-06
   2.96519995         3.14454542E-06
   2.97720003         2.23453935E-06
   2.98920012         5.60875549E-07
   3.00119996        -1.79732581E-06
   3.01320004        -4.73430919E-06
   3.02519989        -8.12198141E-06
   3.03719997        -1.18150883E-05
   3.04920006        -1.56570622E-05
   3.06119990        -1.94862951E-05
   3.07319999        -2.31425856E-05
   3.08520007        -2.64734936E-05
   3.09719992        -2.93403682E-05
   3.10920000        -3.16237602E-05
   3.12120008        -3.32280470E-05
   3.13319993        -3.40850856E-05
   3.14520001        -3.41567320E-05
   3.15720010        -3.34361503E-05
   3.16919994        -3.19479041E-05
   3.18120003        -2.97467923E-05
   3.19320011        -2.69155062E-05
   3.20519996        -2.35612515E-05
   3.21720004        -1.98114103E-05
   3.22919989        -1.58084731E-05
   3.24119997        -1.17044301E-05
   3.25320005        -7.65484674E-06
   3.26519990        -3.81287441E-06
   3.27719998        -3.23433540E-07
   3.28920007         2.68220538E-06
   3.30119991         5.09122128E-06
   3.31320000         6.81324627E-06
   3.32520008         7.78342019E-06
   3.33719993         7.96440145E-06
   3.34920001         7.34726063E-06
   3.36120009         5.95124584E-06
   3.37319994         3.82244116E-06
   3.38520002         1.03139689E-06
   3.39720011        -2.33016431E-06
   3.40919995        -6.15339968E-06
   3.42120004        -1.03169996E-05
   3.43319988        -1.46921784E-05
   3.44519997        -1.91478393E-05
   3.45720005        -2.35556054E-05
   3.46919990        -2.77945583E-05
   3.48119998        -3.17554077E-05
   3.49320006        -3.53439937E-05
   3.50519991        -3.84839404E-05
   3.51719999        -4.11183682E-05
   3.52920008        -4.32106463E-05
   3.54119992        -4.47442435E-05
   3.55320001        -4.57215938E-05
   3.56520009        -4.61622658E-05
   3.57719994        -4.61004347E-05
   3.58920002        -4.55818990E-05
   3.60120010        -4.46608465E-05
   3.61319995        -4.33965106E-05
   3.62520003        -4.18500131E-05
   3.63720012        -4.00815152E-05
   3.64919996        -3.81478058E-05
   3.66120005        -3.61005150E-05
   3.67319989        -3.39849721E-05
   3.68519998        -3.18396887E-05
   3.69720006        -2.96964718E-05
   3.70919991        -2.75811017E-05
   3.72119999        -2.55143950E-05
   3.73320007        -2.35136031E-05
   3.74519992        -2.15939071E-05
   3.75720000        -1.97699210E-05
   3.76920009        -1.80570041E-05
   3.78119993        -1.64722860E-05
   3.79320002        -1.50352471E-05
   3.80520010        -1.37678408E-05
   3.81719995        -1.26940749E-05
   3.82920003        -1.18390917E-05
   3.84120011        -1.12278103E-05
   3.85319996        -1.08831855E-05
   3.86520004        -1.08242893E-05
   3.87719989        -1.10642977E-05
   3.88919997        -1.16085639E-05
   3.90120006        -1.24529379E-05
   3.91319990        -1.35824894E-05
   3.92519999        -1.49706912E-05
   3.93720007        -1.65792371E-05
   3.94919991        -1.83584907E-05
   3.96120000        -2.02486008E-05
   3.97320008        -2.21812661E-05
   3.98519993        -2.40821137E-05
   3.99720001        -2.58735472E-05
   4.00920010        -2.74779777E-05
   4.02120018        -2.88212905E-05
   4.03319979        -2.98363320E-05
   4.04519987        -3.04662899E-05
   4.05719995        -3.06677357E-05
   4.06920004        -3.04132154E-05
   4.08120012        -2.96932012E-05
   4.09320021        -2.85173101E-05
   4.10519981        -2.69147313E-05
   4.11719990        -2.49337299E-05
   4.12919998        -2.26403718E-05
   4.14120007        -2.01163712E-05
   4.15320015        -1.74562210E-05
   4.16520023        -1.47636974E-05
   4.17719984        -1.21478879E-05
   4.18919992        -9.71890313E-06
   4.20120001        -7.58347051E-06
   4.21320009        -5.84060899E-06
   4.22520018        -4.57755323E-06
   4.23719978        -3.86612692E-06
   4.24919987        -3.75971513E-06
   4.26119995        -4.29096599E-06
   4.27320004        -5.47031505E-06
   4.28520012        -7.28540817E-06
   4.29720020        -9.70141173E-06
   4.30919981        -1.26622190E-05
   4.32119989        -1.60924756E-05
   4.33319998        -1.99003134E-05
   4.34520006        -2.39806977E-05
   4.35720015        -2.82191995E-05
   4.36920023        -3.24960529E-05
   4.38119984        -3.66903078E-05
   4.39319992        -4.06839099E-05
   4.40520000        -4.43655772E-05
   4.41720009        -4.76342975E-05
   4.42920017        -5.04023665E-05
   4.44119978        -5.25978721E-05
   4.45319986        -5.41665577E-05
   4.46519995        -5.50730765E-05
   4.47720003        -5.53015998E-05
   4.48920012        -5.48558128E-05
   4.50120020        -5.37583983E-05
   4.51319981        -5.20499489E-05
   4.52519989        -4.97875481E-05
   4.53719997        -4.70429004E-05
   4.54920006        -4.39002397E-05
   4.56120014        -4.04539715E-05
   4.57320023        -3.68061774E-05
   4.58519983        -3.30639523E-05
   4.59719992        -2.93366884E-05
   4.60920000        -2.57332631E-05
   4.62120008        -2.23592615E-05
   4.63320017        -1.93141932E-05
   4.64519978        -1.66888003E-05
   4.65719986        -1.45625072E-05
   4.66919994        -1.30010831E-05
   4.68120003        -1.20545819E-05
   4.69320011        -1.17556638E-05
   4.70520020        -1.21183512E-05
   4.71719980        -1.31373090E-05
   4.72919989        -1.47877008E-05
   4.74119997        -1.70256608E-05
   4.75320005        -1.97894024E-05
   4.76520014        -2.30009409E-05
   4.77720022        -2.65684193E-05
   4.78919983        -3.03888974E-05
   4.80119991        -3.43516149E-05
   4.81320000        -3.83414699E-05
   4.82520008        -4.22427074E-05
   4.83720016        -4.59425646E-05
   4.84919977        -4.93348016E-05
   4.86119986        -5.23229573E-05
   4.87319994        -5.48231619E-05
   4.88520002        -5.67665338E-05
   4.89720011        -5.81009444E-05
   4.90920019        -5.87922295E-05
   4.92119980        -5.88247713E-05
   4.93319988        -5.82015455E-05
   4.94519997        -5.69435542E-05
   4.95720005        -5.50888253E-05
   4.96920013        -5.26910044E-05
   4.98120022        -4.98176123E-05
   4.99319983        -4.65480298E-05
   5.00519991        -4.29713109E-05
   5.01719999        -3.91838512E-05
   5.02920008        -3.52869902E-05
   5.04120016        -3.13845267E-05
   5.05319977        -2.75802395E-05
   5.06519985        -2.39753972E-05
   5.07719994        -2.06663062E-05
   5.08920002        -1.77419297E-05
   5.10120010        -1.52815937E-05
   5.11320019        -1.33528565E-05
   5.12519979        -1.20095810E-05
   5.13719988        -1.12902790E-05
   5.14919996        -1.12167791E-05
   5.16120005        -1.17932977E-05
   5.17320013        -1.30059634E-05
   5.18520021        -1.48228482E-05
   5.19719982        -1.71945521E-05
   5.20919991        -2.00553477E-05
   5.22119999        -2.33248793E-05
   5.23320007        -2.69103966E-05
   5.24520016        -3.07094706E-05
   5.25719976        -3.46130546E-05
   5.26919985        -3.85088460E-05
   5.28119993        -4.22847552E-05
   5.29320002        -4.58323630E-05
   5.30520010        -4.90502352E-05
   5.31720018        -5.18469169E-05
   5.32919979        -5.41435002E-05
   5.34119987        -5.58756947E-05
   5.35319996        -5.69952572E-05
   5.36520004        -5.74708138E-05
   5.37720013        -5.72880235E-05
   5.38920021        -5.64491711E-05
   5.40119982        -5.49721517E-05
   5.41319990        -5.28890414E-05
   5.42519999        -5.02442745E-05
   5.43720007        -4.70925588E-05
   5.44920015        -4.34966969E-05
   5.46120024        -3.95254028E-05
   5.47319984        -3.52511925E-05
   5.48519993        -3.07484770E-05
   5.49720001        -2.60919678E-05
   5.50920010        -2.13553267E-05
   5.52120018        -1.66101963E-05
   5.53319979        -1.19255237E-05
   5.54519987        -7.36714810E-06
   5.55719995        -2.99761041E-06
   5.56920004         1.12390899E-06
   5.58120012         4.94160076E-06
   5.59320021         8.40306166E-06
   5.60519981         1.14594241E-05
   5.61719990         1.40656275E-05
   5.62919998         1.61808712E-05
   5.64120007         1.77692491E-05
   5.65320015         1.88005488E-05
   5.66520023         1.92511925E-05
   5.67719984         1.91052641E-05
   5.68919992         1.83555458E-05
   5.70120001         1.70045005E-05
   5.71320009         1.50651022E-05
   5.72520018         1.25614633E-05
   5.73719978         9.52914161E-06
   5.74919987         6.01511556E-06
   5.76119995         2.07734320E-06
   5.77320004        -2.21608843E-06
   5.78520012        -6.78823199E-06
   5.79720020        -1.15549356E-05
   5.80919981        -1.64268240E-05
   5.82119989        -2.13115563E-05
   5.83319998        -2.61162677E-05
   5.84520006        -3.07500850E-05
   5.85720015        -3.51266535E-05
   5.86920023        -3.91665417E-05
   5.88119984        -4.27994528E-05
   5.89319992        -4.59661642E-05
   5.90520000        -4.86200988E-05
   5.91720009        -5.07284785E-05
   5.92920017        -5.22730406E-05
   5.94119978        -5.32502490E-05
   5.95319986        -5.36710577E-05
   5.96519995        -5.35602012E-05
   5.97720003        -5.29550452E-05
   5.98920012        -5.19040550E-05
   6.00120020        -5.04649615E-05
   6.01319981        -4.87026809E-05
   6.02519989        -4.66870297E-05
   6.03719997        -4.44903853E-05
   6.04920006        -4.21853256E-05
   6.06120014        -3.98423290E-05
   6.07320023        -3.75276904E-05
   6.08519983        -3.53016148E-05
   6.09719992        -3.32166310E-05
   6.10920000        -3.13163655E-05
   6.12120008        -2.96346661E-05
   6.13320017        -2.81951488E-05
   6.14519978        -2.70111395E-05
   6.15719986        -2.60859961E-05
   6.16919994        -2.54138067E-05
   6.18120003        -2.49804161E-05
   6.19320011        -2.47647367E-05
   6.20520020        -2.47402804E-05
   6.21719980        -2.48768774E-05
   6.22919989        -2.51424426E-05
   6.24119997        -2.55047908E-05
   6.25320005        -2.59333628E-05
   6.26520014        -2.64007940E-05
   6.27720022        -2.68842741E-05
   6.28919983        -2.73666155E-05
   6.30119991        -2.78369844E-05
   6.31320000        -2.82912642E-05
   6.32520008        -2.87320563E-05
   6.33720016        -2.91682900E-05
   6.34919977        -2.96144844E-05
   6.36119986        -3.00897082E-05
   6.37319994        -3.06162547E-05
   6.38520002        -3.12181546E-05
   6.39720011        -3.19195678E-05
   6.40920019        -3.27431262E-05
   6.42119980        -3.37084057E-05
   6.43319988        -3.48304857E-05
   6.44519997        -3.61187922E-05
   6.45720005        -3.75762065E-05
   6.46920013        -3.91985013E-05
   6.48120022        -4.09741151E-05
   6.49319983        -4.28842577E-05
   6.50519991        -4.49033359E-05
   6.51719999        -4.69996085E-05
   6.52920008        -4.91360843E-05
   6.54120016        -5.12715633E-05
   6.55319977        -5.33617895E-05
   6.56519985        -5.53606551E-05
   6.57719994        -5.72214121E-05
   6.58920002        -5.88978837E-05
   6.60120010        -6.03455956E-05
   6.61320019        -6.15228928E-05
   6.62519979        -6.23919477E-05
   6.63719988        -6.29197311E-05
   6.64919996        -6.30788709E-05
   6.66120005        -6.28484995E-05
   6.67320013        -6.22149673E-05
   6.68520021        -6.11724536E-05
   6.69719982        -5.97235303E-05
   6.70919991        -5.78795334E-05
   6.72119999        -5.56607483E-05
   6.73320007        -5.30964644E-05
   6.74520016        -5.02246803E-05
   6.75719976        -4.70916384E-05
   6.76919985        -4.37510244E-05
   6.78119993        -4.02629048E-05
   6.79320002        -3.66923632E-05
   6.80520010        -3.31078954E-05
   6.81720018        -2.95795853E-05
   6.82919979        -2.61771529E-05
   6.84119987        -2.29678826E-05
   6.85319996        -2.00146023E-05
   6.86520004        -1.73737590E-05
   6.87720013        -1.50937067E-05
   6.88920021        -1.32132791E-05
   6.90119982        -1.17607578E-05
   6.91319990        -1.07532460E-05
   6.92519999        -1.01965006E-05
   6.93720007        -1.00852212E-05
   6.94920015        -1.04037508E-05
   6.96120024        -1.11271402E-05
   6.97319984        -1.22225138E-05
   6.98519993        -1.36506296E-05
   6.99720001        -1.53675501E-05
   7.00920010        -1.73263270E-05
   7.02120018        -1.94786189E-05
   7.03319979        -2.17761299E-05
   7.04519987        -2.41718444E-05
   7.05719995        -2.66210027E-05
   7.06920004        -2.90817716E-05
   7.08120012        -3.15156576E-05
   7.09320021        -3.38876671E-05
   7.10519981        -3.61662496E-05
   7.11719990        -3.83231163E-05
   7.12919998        -4.03330123E-05
   7.14120007        -4.21734476E-05
   7.15320015        -4.38245406E-05
   7.16520023        -4.52689710E-05
   7.17719984        -4.64920558E-05
   7.18919992        -4.74820008E-05
   7.20120001        -4.82302676E-05
   7.21320009        -4.87320140E-05
   7.22520018        -4.89865815E-05
   7.23719978        -4.89979393E-05
   7.24919987        -4.87750222E-05
   7.26119995        -4.83318836E-05
   7.27320004        -4.76876448E-05
   7.28520012        -4.68661674E-05
   7.29720020        -4.58954710E-05
   7.30919981        -4.48068895E-05
   7.32119989        -4.36339578E-05
   7.33319998        -4.24111931E-05
   7.34520006        -4.11726978E-05
   7.35720015        -3.99508062E-05
   7.36920023        -3.87747568E-05
   7.38119984        -3.76695243E-05
   7.39319992        -3.66549175E-05
   7.40520000        -3.57449208E-05
   7.41720009        -3.49474285E-05
   7.42920017        -3.42642998E-05
   7.44119978        -3.36917692E-05
   7.45319986        -3.32211785E-05
   7.46519995        -3.28399328E-05
   7.47720003        -3.25326582E-05
   7.48920012        -3.22824162E-05
   7.50120020        -3.20719337E-05
   7.51319981        -3.18847342E-05
   7.52519989        -3.17061094E-05
   7.53719997        -3.15238794E-05
   7.54920006        -3.13289129E-05
   7.56120014        -3.11153854E-05
   7.57320023        -3.08807830E-05
   7.58519983        -3.06256916E-05
   7.59719992        -3.03534252E-05
   7.60920000        -3.00694846E-05
   7.62120008        -2.97809693E-05
   7.63320017        -2.94959755E-05
   7.64519978        -2.92230234E-05
   7.65719986        -2.89705495E-05
   7.66919994        -2.87465173E-05
   7.68120003        -2.85581518E-05
   7.69320011        -2.84117486E-05
   7.70520020        -2.83126283E-05
   7.71719980        -2.82651090E-05
   7.72919989        -2.82725614E-05
   7.74119997        -2.83374084E-05
   7.75320005        -2.84611506E-05
   7.76520014        -2.86443210E-05
   7.77720022        -2.88863612E-05
   7.78919983        -2.91855013E-05
   7.80119991        -2.95385507E-05
   7.81320000        -2.99407329E-05
   7.82520008        -3.03855340E-05
   7.83720016        -3.08646449E-05
   7.84919977        -3.13679993E-05
   7.86119986        -3.18840066E-05
   7.87319994        -3.23998793E-05
   7.88520002        -3.29022150E-05
   7.89720011        -3.33776770E-05
   7.90920019        -3.38138088E-05
   7.92119980        -3.41999366E-05
   7.93319988        -3.45280205E-05
   7.94519997        -3.47934547E-05
   7.95720005        -3.49957336E-05
   7.96920013        -3.51388262E-05
   7.98120022        -3.52313436E-05
   7.99319983        -3.52863353E-05
   8.00520039        -3.53207652E-05
   8.01720047        -3.53546930E-05
   8.02919960        -3.54101394E-05
   8.04119968        -3.55097509E-05
   8.05319977        -3.56753299E-05
   8.06519985        -3.59263177E-05
   8.07719994        -3.62783394E-05
   8.08920002        -3.67419125E-05
   8.10120010        -3.73214170E-05
   8.11320019        -3.80144265E-05
   8.12520027        -3.88113913E-05
   8.13720036        -3.96957912E-05
   8.14920044        -4.06446961E-05
   8.16119957        -4.16297298E-05
   8.17319965        -4.26183615E-05
   8.18519974        -4.35755137E-05
   8.19719982        -4.44652687E-05
   8.20919991        -4.52526729E-05
   8.22119999        -4.59054754E-05
   8.23320007        -4.63957185E-05
   8.24520016        -4.67010577E-05
   8.25720024        -4.68057660E-05
   8.26920033        -4.67013524E-05
   8.28120041        -4.63867946E-05
   8.29319954        -4.58683535E-05
   8.30519962        -4.51590422E-05
   8.31719971        -4.42777527E-05
   8.32919979        -4.32481502E-05
   8.34119987        -4.20973956E-05
   8.35319996        -4.08547603E-05
   8.36520004        -3.95502357E-05
   8.37720013        -3.82132166E-05
   8.38920021        -3.68713154E-05
   8.40120029        -3.55493430E-05
   8.41320038        -3.42685380E-05
   8.42520046        -3.30460425E-05
   8.43719959        -3.18946186E-05
   8.44919968        -3.08226081E-05
   8.46119976        -2.98341329E-05
   8.47319984        -2.89294348E-05
   8.48519993        -2.81054054E-05
   8.49720001        -2.73561600E-05
   8.50920010        -2.66736934E-05
   8.52120018        -2.60485322E-05
   8.53320026        -2.54703828E-05
   8.54520035        -2.49287332E-05
   8.55720043        -2.44134135E-05
   8.56919956        -2.39150941E-05
   8.58119965        -2.34257350E-05
   8.59319973        -2.29389661E-05
   8.60519981        -2.24504111E-05
   8.61719990        -2.19579506E-05
   8.62919998        -2.14619013E-05
   8.64120007        -2.09651298E-05
   8.65320015        -2.04730932E-05
   8.66520023        -1.99937749E-05
   8.67720032        -1.95375487E-05
   8.68920040        -1.91169311E-05
   8.70119953        -1.87462465E-05
   8.71319962        -1.84412183E-05
   8.72519970        -1.82184413E-05
   8.73719978        -1.80948191E-05
   8.74919987        -1.80869265E-05
   8.76119995        -1.82103486E-05
   8.77320004        -1.84790078E-05
   8.78520012        -1.89045404E-05
   8.79720020        -1.94956719E-05
   8.80920029        -2.02577285E-05
   8.82120037        -2.11922033E-05
   8.83320045        -2.22964954E-05
   8.84519958        -2.35637563E-05
   8.85719967        -2.49828790E-05
   8.86919975        -2.65386807E-05
   8.88119984        -2.82121855E-05
   8.89319992        -2.99810399E-05
   8.90520000        -3.18200582E-05
   8.91720009        -3.37018173E-05
   8.92920017        -3.55973025E-05
   8.94120026        -3.74766132E-05
   8.95320034        -3.93096379E-05
   8.96520042        -4.10667199E-05
   8.97719955        -4.27193008E-05
   8.98919964        -4.42405617E-05
   9.00119972        -4.56060079E-05
   9.01319981        -4.67940336E-05
   9.02519989        -4.77864742E-05
   9.03719997        -4.85691198E-05
   9.04920006        -4.91321771E-05
   9.06120014        -4.94706619E-05
   9.07320023        -4.95847453E-05
   9.08520031        -4.94799278E-05