 -0.622799993         1.00000002E-24
 -0.610800028         1.00000002E-24
 -0.598800004         1.00000002E-24
 -0.586799979         1.00000002E-24
 -0.574800014         1.00000002E-24
 -0.562799990         1.00000002E-24
 -0.550800025         1.00000012E-24
 -0.538800001         1.00000012E-24
 -0.526799977         1.00000012E-24
 -0.514800012         1.00000022E-24
 -0.502799988         1.00000041E-24
 -0.490799993         1.00000278E-24
 -0.478799999         1.00001905E-24
 -0.466800004         1.00009232E-24
 -0.454800010         1.00032493E-24
 -0.442799985         1.00082931E-24
 -0.430799991         1.00136633E-24
 -0.418799996         1.00031339E-24
 -0.406800002         9.92954801E-25
 -0.394800007         9.70561407E-25
 -0.382800013         9.24562928E-25
 -0.370799989         8.62555305E-25
 -0.358799994         8.39716105E-25
 -0.346799999         9.92823752E-25
 -0.334800005         1.53131500E-24
 -0.322800010         2.60502914E-24
 -0.310799986         3.97559667E-24
 -0.298799992         4.53546229E-24
 -0.286799997         1.99062068E-24
 -0.274800003        -6.61702917E-24
 -0.262800008        -2.26986032E-23
 -0.250800014        -4.18643497E-23
 -0.238800004        -4.89018630E-23
 -0.226799995        -1.59700236E-23
 -0.214800000         8.94263703E-23
 -0.202800006         2.80328046E-22
 -0.190799996         5.10148699E-22
 -0.178800002         6.31098418E-22
 -0.166800007         3.85666523E-22
 -0.154799998        -5.20205930E-22
 -0.142800003        -2.22338717E-21
 -0.130799994        -4.40266760E-21
 -0.118799999        -5.98338269E-21
 -0.106799997        -5.07872579E-21
  -9.48000029E-02     5.33325205E-22
  -8.28000009E-02     1.21822273E-20
  -7.07999989E-02     2.84321396E-20
  -5.88000007E-02     4.32250111E-20
  -4.67999987E-02     4.53183597E-20
  -3.48000005E-02     2.06131890E-20
  -2.28000004E-02    -4.14926817E-20
  -1.08000003E-02    -1.38190034E-19
   1.20000006E-03    -2.42905697E-19
   1.31999999E-02    -3.00534595E-19
   2.52000000E-02    -2.35807376E-19
   3.72000001E-02     1.95022547E-20
   4.91999984E-02     4.81503592E-19
   6.12000003E-02     1.06337201E-18
   7.32000023E-02     1.54329165E-18
   8.51999968E-02     1.58303106E-18
   9.71999988E-02     8.23739490E-19
  0.109200001        -9.38094779E-19
  0.121200003        -3.53282429E-18
  0.133200005        -6.24426857E-18
  0.145199999        -7.80053569E-18
  0.157199994        -6.64087727E-18
  0.169200003        -1.49995793E-18
  0.181199998         7.78357683E-18
  0.193200007         1.94951631E-17
  0.205200002         2.97064248E-17
  0.217199996         3.27884866E-17
  0.229200006         2.30225259E-17
  0.241200000        -2.82917090E-18
  0.253199995        -4.26522051E-17
  0.265199989        -8.69606640E-17
  0.277200013        -1.19092832E-16
  0.289200008        -1.18681796E-16
  0.301200002        -6.85274734E-17
  0.313199997         3.64447308E-17
  0.325199991         1.80996978E-16
  0.337199986         3.26031372E-16
  0.349200010         4.13342152E-16
  0.361200005         3.80459936E-16
  0.373199999         1.83938869E-16
  0.385199994        -1.74776342E-16
  0.397199988        -6.30297545E-16
  0.409200013        -1.05154418E-15
  0.421200007        -1.26504678E-15
  0.433200002        -1.10410300E-15
  0.445199996        -4.74688063E-16
  0.457199991         5.80960258E-16
  0.469199985         1.84824685E-15
  0.481200010         2.95522638E-15
  0.493200004         3.45111991E-15
  0.505200028         2.94101190E-15
  0.517199993         1.24598568E-15
  0.529200017        -1.46141157E-15
  0.541199982        -4.60315058E-15
  0.553200006        -7.26766805E-15
  0.565199971        -8.42004451E-15
  0.577199996        -7.21680541E-15
  0.589200020        -3.34517621E-15
  0.601199985         2.72370644E-15
  0.613200009         9.67718710E-15
  0.625199974         1.55688535E-14
  0.637199998         1.82874905E-14
  0.649200022         1.61932066E-14
  0.661199987         8.74875767E-15
  0.673200011        -3.06207090E-15
  0.685199976        -1.67102219E-14
  0.697200000        -2.85791593E-14
  0.709200025        -3.48517195E-14
  0.721199989        -3.26240059E-14
  0.733200014        -2.09358271E-14
  0.745199978        -1.38258912E-15
  0.757200003         2.19456445E-14
  0.769200027         4.32771494E-14
  0.781199992         5.65780028E-14
  0.793200016         5.72254443E-14
  0.805199981         4.34633476E-14
  0.817200005         1.71853803E-14
  0.829200029        -1.62459988E-14
  0.841199994        -4.91683483E-14
  0.853200018        -7.35032220E-14
  0.865199983        -8.28521144E-14
  0.877200007        -7.42147907E-14
  0.889199972        -4.88337127E-14
  0.901199996        -1.19174842E-14
  0.913200021         2.86729902E-14
  0.925199986         6.43880294E-14
  0.937200010         8.80342958E-14
  0.949199975         9.53366617E-14
  0.961199999         8.56326051E-14
  0.973200023         6.16071389E-14
  0.985199988         2.82735718E-14
  0.997200012        -8.39436332E-15
   1.00919998        -4.27363833E-14
   1.02119994        -7.02665126E-14
   1.03320003        -8.80236503E-14
   1.04519999        -9.45313028E-14
   1.05719995        -8.96050202E-14
   1.06920004        -7.42181856E-14
   1.08120000        -5.04858267E-14
   1.09319997        -2.16388085E-14
   1.10520005         8.25338994E-15
   1.11720002         3.50083291E-14
   1.12919998         5.54858419E-14
   1.14119995         6.88464585E-14
   1.15320003         7.73333762E-14
   1.16520000         8.59567476E-14
   1.17719996         1.00721691E-13
   1.18920004         1.25582812E-13
   1.20120001         1.58962876E-13
   1.21319997         1.91184362E-13
   1.22520006         2.04268473E-13
   1.23720002         1.75100182E-13
   1.24919999         8.19740190E-14
   1.26119995        -8.67223502E-14
   1.27320004        -3.24056347E-13
   1.28520000        -5.99252202E-13
   1.29719996        -8.58143092E-13
   1.30920005        -1.03071143E-12
   1.32120001        -1.04514173E-12
   1.33319998        -8.45766491E-13
   1.34519994        -4.10749126E-13
   1.35720003         2.35154479E-13
   1.36919999         1.01662504E-12
   1.38119996         1.81456629E-12
   1.39320004         2.48307690E-12
   1.40520000         2.87361649E-12
   1.41719997         2.86172366E-12
   1.42920005         2.37121911E-12
   1.44120002         1.39163312E-12
   1.45319998        -1.37091173E-14
   1.46519995        -1.70955535E-12
   1.47720003        -3.49958344E-12
   1.48920000        -5.14444780E-12
   1.50119996        -6.38521354E-12
   1.51320004        -6.97082366E-12
   1.52520001        -6.68862925E-12
   1.53719997        -5.39681581E-12
   1.54920006        -3.05657756E-12
   1.56120002         2.39703819E-13
   1.57319999         4.24965662E-12
   1.58519995         8.57769324E-12
   1.59720004         1.26930532E-11
   1.60920000         1.59724768E-11
   1.62119997         1.77671367E-11
   1.63320005         1.74888836E-11
   1.64520001         1.47065572E-11
   1.65719998         9.24003062E-12
   1.66919994         1.23826795E-12
   1.68120003        -8.77160063E-12
   1.69319999        -1.98750096E-11
   1.70519996        -3.08080436E-11
   1.71720004        -4.00465841E-11
   1.72920001        -4.59461739E-11
   1.74119997        -4.69276076E-11
   1.75320005        -4.16976835E-11
   1.76520002        -2.94879086E-11
   1.77719998        -1.02861894E-11
   1.78919995         1.49710140E-11
   1.80120003         4.42841562E-11
   1.81320000         7.45932621E-11
   1.82519996         1.01931595E-10
   1.83720005         1.21750998E-10
   1.84920001         1.29417699E-10
   1.86119998         1.20849511E-10
   1.87320006         9.32347047E-11
   1.88520002         4.57450050E-11
   1.89719999        -1.98658971E-11
   1.90919995        -9.88937612E-11
   1.92120004        -1.83652440E-10
   1.93320000        -2.63860267E-10
   1.94519997        -3.27480904E-10
   1.95720005        -3.61999986E-10
   1.96920002        -3.56053353E-10
   1.98119998        -3.01260211E-10
   1.99319994        -1.94059685E-10
   2.00519991        -3.73108107E-11
   2.01719999         1.58594651E-10
   2.02920008         3.75340981E-10
   2.04119992         5.87202509E-10
   2.05320001         7.62566288E-10
   2.06520009         8.66464955E-10
   2.07719994         8.64001204E-10
   2.08920002         7.24428684E-10
   2.10120010         4.25547958E-10
   2.11319995        -4.20071443E-11
   2.12520003        -6.71060207E-10
   2.13720012        -1.43523426E-09
   2.14919996        -2.28777597E-09
   2.16120005        -3.16220583E-09
   2.17319989        -3.97500877E-09
   2.18519998        -4.63040584E-09
   2.19720006        -5.02704767E-09
   2.20919991        -5.06625852E-09
   2.22119999        -4.66121319E-09
   2.23320007        -3.74621978E-09
   2.24519992        -2.28508568E-09
   2.25720000        -2.77394635E-10
   2.26920009         2.23853758E-09
   2.28119993         5.18724841E-09
   2.29320002         8.46335713E-09
   2.30520010         1.19453274E-08
   2.31719995         1.55163526E-08
   2.32920003         1.90925533E-08
   2.34120011         2.26583197E-08
   2.35319996         2.63081397E-08
   2.36520004         3.02939327E-08
   2.37719989         3.50764786E-08
   2.38919997         4.13792627E-08
   2.40120006         5.02427895E-08
   2.41319990         6.30771808E-08
   2.42519999         8.17107164E-08
   2.43720007         1.08431763E-07
   2.44919991         1.46021520E-07
   2.46120000         1.97774469E-07
   2.47320008         2.67503964E-07
   2.48519993         3.59529707E-07
   2.49720001         4.78644324E-07
   2.50920010         6.30055581E-07
   2.52119994         8.19303182E-07
   2.53320003         1.05214622E-06
   2.54520011         1.33442165E-06
   2.55719995         1.67187193E-06
   2.56920004         2.06994446E-06
   2.58119988         2.53356393E-06
   2.59319997         3.06688321E-06
   2.60520005         3.67301800E-06
   2.61719990         4.35377524E-06
   2.62919998         5.10938298E-06
   2.64120007         5.93823734E-06
   2.65319991         6.83668031E-06
   2.66520000         7.79881611E-06
   2.67720008         8.81639153E-06
   2.68919992         9.87874409E-06
   2.70120001         1.09728335E-05
   2.71320009         1.20833702E-05
   2.72519994         1.31930383E-05
   2.73720002         1.42828176E-05
   2.74920011         1.53324017E-05
   2.76119995         1.63207096E-05
   2.77320004         1.72264554E-05
   2.78520012         1.80287825E-05
   2.79719996         1.87079168E-05
   2.80920005         1.92458374E-05
   2.82119989         1.96268920E-05
   2.83319998         1.98383805E-05
   2.84520006         1.98710459E-05
   2.85719991         1.97194386E-05
   2.86919999         1.93821779E-05
   2.88120008         1.88620506E-05
   2.89319992         1.81659616E-05
   2.90520000         1.73047392E-05
   2.91720009         1.62927954E-05
   2.92919993         1.51476561E-05
   2.94120002         1.38893829E-05
   2.95320010         1.25399229E-05
   2.96519995         1.11224017E-05
   2.97720003         9.66040170E-06
   2.98920012         8.17726050E-06
   3.00119996         6.69540668E-06
   3.01320004         5.23577182E-06
   3.02519989         3.81729978E-06
   3.03719997         2.45656292E-06
   3.04920006         1.16749231E-06
   3.06119990        -3.87666965E-08
   3.07319999        -1.15388957E-06
   3.08520007        -2.17230559E-06
   3.09719992        -3.09103689E-06
   3.10920000        -3.90947753E-06
   3.12120008        -4.62911521E-06
   3.13319993        -5.25323276E-06
   3.14520001        -5.78659183E-06
   3.15720010        -6.23513370E-06
   3.16919994        -6.60569503E-06
   3.18120003        -6.90575598E-06
   3.19320011        -7.14322368E-06
   3.20519996        -7.32624721E-06
   3.21720004        -7.46307069E-06
   3.22919989        -7.56190593E-06
   3.24119997        -7.63082789E-06
   3.25320005        -7.67767688E-06
   3.26519990        -7.70997030E-06
   3.27719998        -7.73480133E-06
   3.28920007        -7.75873923E-06
   3.30119991        -7.78771391E-06
   3.31320000        -7.82689949E-06
   3.32520008        -7.88059060E-06
   3.33719993        -7.95208234E-06
   3.34920001        -8.04357296E-06
   3.36120009        -8.15607109E-06
   3.37319994        -8.28935390E-06
   3.38520002        -8.44196165E-06
   3.39720011        -8.61123772E-06
   3.40919995        -8.79343224E-06
   3.42120004        -8.98385770E-06
   3.43319988        -9.17710349E-06
   3.44519997        -9.36729248E-06
   3.45720005        -9.54838106E-06
   3.46919990        -9.71448844E-06
   3.48119998        -9.86022860E-06
   3.49320006        -9.98104133E-06
   3.50519991        -1.00735042E-05
   3.51719999        -1.01355909E-05
   3.52920008        -1.01668729E-05
   3.54119992        -1.01686528E-05
   3.55320001        -1.01440028E-05
   3.56520009        -1.00977068E-05
   3.57719994        -1.00361049E-05
   3.58920002        -9.96683502E-06
   3.60120010        -9.89849195E-06
   3.61319995        -9.84019698E-06
   3.62520003        -9.80110599E-06
   3.63720012        -9.78988464E-06
   3.64919996        -9.81416360E-06
   3.66120005        -9.88000284E-06
   3.67319989        -9.99139866E-06
   3.68519998        -1.01498626E-05
   3.69720006        -1.03540951E-05
   3.70919991        -1.05997788E-05
   3.72119999        -1.08795130E-05
   3.73320007        -1.11829140E-05
   3.74519992        -1.14968670E-05
   3.75720000        -1.18059561E-05
   3.76920009        -1.20930317E-05
   3.78119993        -1.23399404E-05
   3.79320002        -1.25283441E-05
   3.80520010        -1.26406258E-05
   3.81719995        -1.26608284E-05
   3.82920003        -1.25755914E-05
   3.84120011        -1.23750133E-05
   3.85319996        -1.20534314E-05
   3.86520004        -1.16100382E-05
   3.87719989        -1.10493193E-05
   3.88919997        -1.03812663E-05
   3.90120006        -9.62135618E-06
   3.91319990        -8.79026720E-06
   3.92519999        -7.91334605E-06
   3.93720007        -7.01984618E-06
   3.94919991        -6.14193641E-06
   3.96120000        -5.31355590E-06
   3.97320008        -4.56912949E-06
   3.98519993        -3.94222934E-06
   3.99720001        -3.46421507E-06
   4.00920010        -3.16293381E-06
   4.02120018        -3.06153015E-06
   4.03319979        -3.17741956E-06
   4.04519987        -3.52147140E-06
   4.05719995        -4.09743916E-06
   4.06920004        -4.90165894E-06
   4.08120012        -5.92303149E-06
   4.09320021        -7.14329508E-06
   4.10519981        -8.53756319E-06
   4.11719990        -1.00751240E-05
   4.12919998        -1.17204554E-05
   4.14120007        -1.34344327E-05
   4.15320015        -1.51756722E-05
   4.16520023        -1.69019750E-05
   4.17719984        -1.85718272E-05
   4.18919992        -2.01458934E-05
   4.20120001        -2.15884811E-05
   4.21320009        -2.28689132E-05
   4.22520018        -2.39627807E-05
   4.23719978        -2.48530177E-05
   4.24919987        -2.55307696E-05
   4.26119995        -2.59959925E-05
   4.27320004        -2.62577978E-05
   4.28520012        -2.63344318E-05
   4.29720020        -2.62529211E-05
   4.30919981        -2.60483339E-05
   4.32119989        -2.57626452E-05
   4.33319998        -2.54432125E-05
   4.34520006        -2.51408710E-05
   4.35720015        -2.49076929E-05
   4.36920023        -2.47944336E-05
   4.38119984        -2.48477645E-05
   4.39319992        -2.51073616E-05
   4.40520000        -2.56029725E-05
   4.41720009        -2.63515540E-05
   4.42920017        -2.73546484E-05
   4.44119978        -2.85961105E-05
   4.45319986        -3.00403044E-05
   4.46519995        -3.16309124E-05
   4.47720003        -3.32904347E-05
   4.48920012        -3.49204602E-05
   4.50120020        -3.64027583E-05
   4.51319981        -3.76011594E-05
   4.52519989        -3.83642728E-05
   4.53719997        -3.85288913E-05
   4.54920006        -3.79240410E-05
   4.56120014        -3.63755353E-05
   4.57320023        -3.37108722E-05
   4.58519983        -2.97643419E-05
   4.59719992        -2.43821360E-05
   4.60920000        -1.74273209E-05
   4.62120008        -8.78448191E-06
   4.63320017         1.63604795E-06
   4.64519978         1.38945497E-05
   4.65719986         2.80189397E-05
   4.66919994         4.40024960E-05
   4.68120003         6.18023842E-05
   4.69320011         8.13389343E-05
   4.70520020         1.02495687E-04
   4.71719980         1.25120234E-04
   4.72919989         1.49025727E-04
   4.74119997         1.73993030E-04
   4.75320005         1.99773698E-04
   4.76520014         2.26093209E-04
   4.77720022         2.52655009E-04
   4.78919983         2.79144937E-04
   4.80119991         3.05236084E-04
   4.81320000         3.30593961E-04
   4.82520008         3.54881980E-04
   4.83720016         3.77767428E-04
   4.84919977         3.98927223E-04
   4.86119986         4.18053911E-04
   4.87319994         4.34861693E-04
   4.88520002         4.49092098E-04
   4.89720011         4.60519455E-04
   4.90920019         4.68955841E-04
   4.92119980         4.74255416E-04
   4.93319988         4.76318091E-04
   4.94519997         4.75092180E-04
   4.95720005         4.70576109E-04
   4.96920013         4.62819124E-04
   4.98120022         4.51920758E-04
   4.99319983         4.38029296E-04
   5.00519991         4.21338918E-04
   5.01719999         4.02085949E-04
   5.02920008         3.80544079E-04
   5.04120016         3.57018813E-04
   5.05319977         3.31841147E-04
   5.06519985         3.05360882E-04
   5.07719994         2.77939456E-04
   5.08920002         2.49942910E-04
   5.10120010         2.21734736E-04
   5.11320019         1.93669111E-04
   5.12519979         1.66084545E-04
   5.13719988         1.39298092E-04
   5.14919996         1.13600297E-04
   5.16120005         8.92508178E-05
   5.17320013         6.64750041E-05
   5.18520021         4.54613146E-05
   5.19719982         2.63595357E-05
   5.20919991         9.27997644E-06
   5.22119999        -5.70651400E-06
   5.23320007        -1.85677691E-05
   5.24520016        -2.93087560E-05
   5.25719976        -3.79693447E-05
   5.26919985        -4.46214945E-05
   5.28119993        -4.93659027E-05
   5.29320002        -5.23282870E-05
   5.30520010        -5.36552616E-05
   5.31720018        -5.35100407E-05
   5.32919979        -5.20679969E-05
   5.34119987        -4.95121931E-05
   5.35319996        -4.60289775E-05
   5.36520004        -4.18038144E-05
   5.37720013        -3.70173366E-05
   5.38920021        -3.18418242E-05
   5.40119982        -2.64381360E-05
   5.41319990        -2.09531463E-05
   5.42519999        -1.55177877E-05
   5.43720007        -1.02456761E-05
   5.44920015        -5.23236213E-06
   5.46120024        -5.55157555E-07
   5.47319984         3.72648424E-06
   5.48519993         7.57008002E-06
   5.49720001         1.09488392E-05
   5.50920010         1.38500345E-05
   5.52120018         1.62731667E-05
   5.53319979         1.82279764E-05
   5.54519987         1.97324516E-05
   5.55719995         2.08108704E-05
   5.56920004         2.14920037E-05
   5.58120012         2.18075038E-05
   5.59320021         2.17905581E-05
   5.60519981         2.14747852E-05
   5.61719990         2.08934289E-05
   5.62919998         2.00788036E-05
   5.64120007         1.90619630E-05
   5.65320015         1.78725768E-05
   5.66520023         1.65389501E-05
   5.67719984         1.50881497E-05
   5.68919992         1.35461823E-05
   5.70120001         1.19381957E-05
   5.71320009         1.02886643E-05
   5.72520018         8.62153593E-06
   5.73719978         6.96032703E-06
   5.74919987         5.32815284E-06
   5.76119995         3.74771298E-06
   5.77320004         2.24121800E-06
   5.78520012         8.30295562E-07
   5.79720020        -4.64133933E-07
   5.80919981        -1.62198000E-06
   5.82119989        -2.62411527E-06
   5.83319998        -3.45250646E-06
   5.84520006        -4.09034874E-06
   5.85720015        -4.52222048E-06
   5.86920023        -4.73426826E-06
   5.88119984        -4.71443855E-06
   5.89319992        -4.45276464E-06
   5.90520000        -3.94172048E-06
   5.91720009        -3.17663535E-06
   5.92920017        -2.15616660E-06
   5.94119978        -8.82806205E-07
   5.95319986         6.36605137E-07
   5.96519995         2.39038673E-06
   5.97720003         4.36159507E-06
   5.98920012         6.52770404E-06
   6.00120020         8.86044199E-06
   6.01319981         1.13258038E-05
   6.02519989         1.38842834E-05
   6.03719997         1.64913436E-05
   6.04920006         1.90981173E-05
   6.06120014         2.16523549E-05
   6.07320023         2.40995723E-05
   6.08519983         2.63843940E-05
   6.09719992         2.84520138E-05
   6.10920000         3.02497629E-05
   6.12120008         3.17286795E-05
   6.13320017         3.28450842E-05
   6.14519978         3.35620389E-05
   6.15719986         3.38506907E-05
   6.16919994         3.36914163E-05
   6.18120003         3.30747607E-05
   6.19320011         3.20021391E-05
   6.20520020         3.04862078E-05
   6.21719980         2.85509996E-05
   6.22919989         2.62317335E-05
   6.24119997         2.35743119E-05
   6.25320005         2.06345449E-05
   6.26520014         1.74770557E-05
   6.27720022         1.41739301E-05
   6.28919983         1.08031199E-05
   6.30119991         7.44662202E-06
   6.31320000         4.18848913E-06
   6.32520008         1.11270197E-06
   6.33720016        -1.69902421E-06
   6.34919977        -4.16945750E-06
   6.36119986        -6.22800644E-06
   6.37319994        -7.81276685E-06
   6.38520002        -8.87237456E-06
   6.39720011        -9.36761535E-06
   6.40920019        -9.27272413E-06
   6.42119980        -8.57633131E-06
   6.43319988        -7.28202940E-06
   6.44519997        -5.40851715E-06
   6.45720005        -2.98934424E-06
   6.46920013        -7.22265412E-08
   6.48120022         3.28201259E-06
   6.49319983         7.00087548E-06
   6.50519991         1.10019328E-05
   6.51719999         1.51948443E-05
   6.52920008         1.94835702E-05
   6.54120016         2.37687673E-05
   6.55319977         2.79502237E-05
   6.56519985         3.19293576E-05
   6.57719994         3.56116579E-05
   6.58920002         3.89089910E-05
   6.60120010         4.17418014E-05
   6.61320019         4.40410586E-05
   6.62519979         4.57499445E-05
   6.63719988         4.68252583E-05
   6.64919996         4.72384418E-05
   6.66120005         4.69762708E-05
   6.67320013         4.60411211E-05
   6.68520021         4.44508805E-05
   6.69719982         4.22384292E-05
   6.70919991         3.94507624E-05
   6.72119999         3.61477432E-05
   6.73320007         3.24005632E-05
   6.74520016         2.82899091E-05
   6.75719976         2.39039018E-05
   6.76919985         1.93359047E-05
   6.78119993         1.46821876E-05
   6.79320002         1.00395764E-05
   6.80520010         5.50309915E-06
   6.81720018         1.16372348E-06
   6.82919979        -2.89378454E-06
   6.84119987        -6.59281977E-06
   6.85319996        -9.86667146E-06
   6.86520004        -1.26599916E-05
   6.87720013        -1.49299558E-05
   6.88920021        -1.66471036E-05
   6.90119982        -1.77958191E-05
   6.91319990        -1.83744323E-05
   6.92519999        -1.83949505E-05
   6.93720007        -1.78824012E-05
   6.94920015        -1.68737879E-05
   6.96120024        -1.54167101E-05
   6.97319984        -1.35676501E-05
   6.98519993        -1.13900051E-05
   6.99720001        -8.95189714E-06
   7.00920010        -6.32387264E-06
   7.02120018        -3.57654790E-06
   7.03319979        -7.78304468E-07
   7.04519987         2.00687032E-06
   7.05719995         4.72130932E-06
   7.06920004         7.31528417E-06
   7.08120012         9.74823433E-06
   7.09320021         1.19895631E-05
   7.10519981         1.40189677E-05
   7.11719990         1.58262919E-05
   7.12919998         1.74109246E-05
   7.14120007         1.87807836E-05
   7.15320015         1.99509577E-05
   7.16520023         2.09420668E-05
   7.17719984         2.17784618E-05
   7.18919992         2.24863616E-05
   7.20120001         2.30920141E-05
   7.21320009         2.36200012E-05
   7.22520018         2.40917361E-05
   7.23719978         2.45242773E-05
   7.24919987         2.49294262E-05
   7.26119995         2.53132312E-05
   7.27320004         2.56758121E-05
   7.28520012         2.60115703E-05
   7.29720020         2.63096972E-05
   7.30919981         2.65549770E-05
   7.32119989         2.67287905E-05
   7.33319998         2.68102922E-05
   7.34520006         2.67776559E-05
   7.35720015         2.66093466E-05
   7.36920023         2.62853446E-05
   7.38119984         2.57882821E-05
   7.39319992         2.51044057E-05
   7.40520000         2.42243987E-05
   7.41720009         2.31439844E-05
   7.42920017         2.18643218E-05
   7.44119978         2.03922191E-05
   7.45319986         1.87401274E-05
   7.46519995         1.69259802E-05
   7.47720003         1.49728603E-05
   7.48920012         1.29085465E-05
   7.50120020         1.07649375E-05
   7.51319981         8.57740088E-06
   7.52519989         6.38405254E-06
   7.53719997         4.22496987E-06
   7.54920006         2.14138868E-06
   7.56120014         1.74851721E-07
   7.57320023        -1.63366008E-06
   7.58519983        -3.24461394E-06
   7.59719992        -4.62081880E-06
   7.60920000        -5.72832232E-06
   7.62120008        -6.53728512E-06
   7.63320017        -7.02281977E-06
   7.64519978        -7.16577006E-06
   7.65719986        -6.95339759E-06
   7.66919994        -6.37994935E-06
   7.68120003        -5.44707154E-06
   7.69320011        -4.16404509E-06
   7.70520020        -2.54781389E-06
   7.71719980        -6.22788491E-07
   7.72919989         1.57958436E-06
   7.74119997         4.02148544E-06
   7.75320005         6.65960761E-06
   7.76520014         9.44623480E-06
   7.77720022         1.23304781E-05
   7.78919983         1.52596276E-05
   7.80119991         1.81805481E-05
   7.81320000         2.10410817E-05
   7.82520008         2.37913646E-05
   7.83720016         2.63850688E-05
   7.84919977         2.87804269E-05
   7.86119986         3.09411043E-05
   7.87319994         3.28368187E-05
   7.88520002         3.44437467E-05
   7.89720011         3.57446988E-05
   7.90920019         3.67290704E-05
   7.92119980         3.73926232E-05
   7.93319988         3.77371034E-05
   7.94519997         3.77697179E-05
   7.95720005         3.75025702E-05
   7.96920013         3.69519912E-05
   7.98120022         3.61379207E-05
   7.99319983         3.50832634E-05
   8.00520039         3.38133068E-05
   8.01720047         3.23551940E-05
   8.02919960         3.07374321E-05
   8.04119968         2.89894979E-05
   8.05319977         2.71414792E-05
   8.06519985         2.52237533E-05
   8.07719994         2.32667098E-05
   8.08920002         2.13004769E-05
   8.10120010         1.93546675E-05
   8.11320019         1.74581237E-05
   8.12520027         1.56386322E-05
   8.13720036         1.39226595E-05
   8.14920044         1.23350519E-05
   8.16119957         1.08987315E-05
   8.17319965         9.63439197E-06
   8.18519974         8.56018232E-06
   8.19719982         7.69140479E-06
   8.20919991         7.04022295E-06
   8.22119999         6.61540344E-06
   8.23320007         6.42208624E-06
   8.24520016         6.46161470E-06
   8.25720024         6.73141813E-06
   8.26920033         7.22496907E-06
   8.28120041         7.93181425E-06
   8.29319954         8.83769098E-06
   8.30519962         9.92471996E-06
   8.31719971         1.11716872E-05
   8.32919979         1.25543993E-05
   8.34119987         1.40461161E-05
   8.35319996         1.56180413E-05
   8.36520004         1.72398668E-05
   8.37720013         1.88803733E-05
   8.38920021         2.05080232E-05
   8.40120029         2.20915954E-05
   8.41320038         2.36007800E-05
   8.42520046         2.50067660E-05
   8.43719959         2.62827762E-05
   8.44919968         2.74045542E-05
   8.46119976         2.83507670E-05
   8.47319984         2.91033793E-05
   8.48519993         2.96479266E-05
   8.49720001         2.99737421E-05
   8.50920010         3.00741103E-05
   8.52120018         2.99463773E-05
   8.53320026         2.95919981E-05
   8.54520035         2.90165444E-05
   8.55720043         2.82296533E-05
   8.56919956         2.72449251E-05
   8.58119965         2.60797788E-05
   8.59319973         2.47552252E-05
   8.60519981         2.32955972E-05
   8.61719990         2.17281813E-05
   8.62919998         2.00828017E-05
   8.64120007         1.83912925E-05
   8.65320015         1.66869031E-05
   8.66520023         1.50036249E-05
   8.67720032         1.33754456E-05
   8.68920040         1.18355665E-05
   8.70119953         1.04155961E-05
   8.71319962         9.14474276E-06
   8.72519970         8.04905540E-06
   8.73719978         7.15073702E-06
   8.74919987         6.46756598E-06
   8.76119995         6.01245438E-06
   8.77320004         5.79316020E-06
   8.78520012         5.81217546E-06
   8.79720020         6.06679441E-06
   8.80920029         6.54935184E-06
   8.82120037         7.24763640E-06
   8.83320045         8.14544001E-06
   8.84519958         9.22323306E-06
   8.85719967         1.04589217E-05
   8.86919975         1.18286544E-05
   8.88119984         1.33076383E-05
   8.89319992         1.48709223E-05
   8.90520000         1.64941284E-05
   8.91720009         1.81540727E-05
   8.92920017         1.98292892E-05
   8.94120026         2.15004238E-05
   8.95320034         2.31504964E-05
   8.96520042         2.47650387E-05
   8.97719955         2.63321199E-05
   8.98919964         2.78422558E-05
   9.00119972         2.92882523E-05
   9.01319981         3.06649490E-05
   9.02519989         3.19689461E-05
   9.03719997         3.31982628E-05
   9.04920006         3.43520114E-05
   9.06120014         3.54300719E-05
   9.07320023         3.64327680E-05
   9.08520031         3.73605944E-05