 -0.622799993         1.00000002E-24
 -0.610800028         1.00000002E-24
 -0.598800004         1.00000002E-24
 -0.586799979         1.00000002E-24
 -0.574800014         1.00000002E-24
 -0.562799990         1.00000012E-24
 -0.550800025         1.00000022E-24
 -0.538800001         1.00000022E-24
 -0.526799977         1.00000022E-24
 -0.514800012         1.00000022E-24
 -0.502799988         9.99999724E-25
 -0.490799993         9.99995779E-25
 -0.478799999         9.99971719E-25
 -0.466800004         9.99875675E-25
 -0.454800010         9.99611210E-25
 -0.442799985         9.99182858E-25
 -0.430799991         9.99309569E-25
 -0.418799996         1.00282444E-24
 -0.406800002         1.01634551E-24
 -0.394800007         1.04925087E-24
 -0.382800013         1.10327591E-24
 -0.370799989         1.14479327E-24
 -0.358799994         1.06148453E-24
 -0.346799999         6.35261404E-25
 -0.334800005        -3.87844006E-25
 -0.322800010        -2.01540570E-24
 -0.310799986        -3.45384485E-24
 -0.298799992        -2.46084785E-24
 -0.286799997         4.76591302E-24
 -0.274800003         2.20608849E-23
 -0.262800008         4.90280019E-23
 -0.250800014         7.41724320E-23
 -0.238800004         6.85051606E-23
 -0.226799995        -1.31837408E-23
 -0.214800000        -2.13368397E-22
 -0.202800006        -5.28035672E-22
 -0.190799996        -8.44303110E-22
 -0.178800002        -8.90150141E-22
 -0.166800007        -2.54989354E-22
 -0.154799998         1.44861943E-21
 -0.142800003         4.24474638E-21
 -0.130799994         7.33770596E-21
 -0.118799999         8.76104549E-21
 -0.106799997         5.51158560E-21
  -9.48000029E-02    -5.41443631E-21
  -8.28000009E-02    -2.48951137E-20
  -7.07999989E-02    -4.88641954E-20
  -5.88000007E-02    -6.60601947E-20
  -4.67999987E-02    -5.84001791E-20
  -3.48000005E-02    -6.17046404E-21
  -2.28000004E-02     1.00960534E-19
  -1.08000003E-02     2.48952749E-19
   1.20000006E-03     3.86337549E-19
   1.31999999E-02     4.22705216E-19
   2.52000000E-02     2.49123639E-19
   3.72000001E-02    -2.13992322E-19
   4.91999984E-02    -9.47873605E-19
   6.12000003E-02    -1.76852456E-18
   7.32000023E-02    -2.30120137E-18
   8.51999968E-02    -2.04060742E-18
   9.71999988E-02    -5.25224585E-19
  0.109200001         2.38817527E-18
  0.121200003         6.22681092E-18
  0.133200005         9.72099595E-18
  0.145199999         1.09097008E-17
  0.157199994         7.66231877E-18
  0.169200003        -1.38433649E-18
  0.181199998        -1.56830913E-17
  0.193200007        -3.18626332E-17
  0.205200002        -4.36185671E-17
  0.217199996        -4.29241854E-17
  0.229200006        -2.27335586E-17
  0.241200000         1.92587135E-17
  0.253199995         7.69605268E-17
  0.265199989         1.34045465E-16
  0.277200013         1.65703150E-16
  0.289200008         1.45014582E-16
  0.301200002         5.34405296E-17
  0.313199997        -1.07144672E-16
  0.325199991        -3.05319273E-16
  0.337199986        -4.79117040E-16
  0.349200010        -5.47285934E-16
  0.361200005        -4.33556540E-16
  0.373199999        -9.95574865E-17
  0.385199994         4.23398763E-16
  0.397199988         1.01699868E-15
  0.409200013         1.48590638E-15
  0.421200007         1.60192787E-15
  0.433200002         1.17826931E-15
  0.445199996         1.56375120E-16
  0.457199991        -1.32352117E-15
  0.469199985        -2.90101055E-15
  0.481200010        -4.04875904E-15
  0.493200004        -4.20608355E-15
  0.505200028        -2.97006301E-15
  0.517199993        -2.92445510E-16
  0.529200017         3.38790775E-15
  0.541199982         7.14513033E-15
  0.553200006         9.73898832E-15
  0.565199971         9.94903046E-15
  0.577199996         6.99792829E-15
  0.589200020         9.39887346E-16
  0.601199985        -7.13071553E-15
  0.613200009        -1.51694978E-14
  0.625199974        -2.06153521E-14
  0.637199998        -2.11027061E-14
  0.649200022        -1.52772421E-14
  0.661199987        -3.46427857E-15
  0.673200011         1.20656794E-14
  0.685199976         2.74071672E-14
  0.697200000         3.79198727E-14
  0.709200025         3.95379462E-14
  0.721199989         3.01377270E-14
  0.733200014         1.05310488E-14
  0.745199978        -1.52991972E-14
  0.757200003        -4.09180034E-14
  0.769200027        -5.90265887E-14
  0.781199992        -6.35389365E-14
  0.793200016        -5.15536981E-14
  0.805199981        -2.45848552E-14
  0.817200005         1.14237538E-14
  0.829200029         4.74365589E-14
  0.841199994         7.37310806E-14
  0.853200018         8.27100907E-14
  0.865199983         7.12689117E-14
  0.877200007         4.19368384E-14
  0.889199972         2.34829191E-15
  0.901199996        -3.68883696E-14
  0.913200021        -6.53275584E-14
  0.925199986        -7.58653258E-14
  0.937200010        -6.69290876E-14
  0.949199975        -4.29238520E-14
  0.961199999        -1.27284361E-14
  0.973200023         1.33163515E-14
  0.985199988         2.69557919E-14
  0.997200012         2.49119539E-14
   1.00919998         1.01035784E-14
   1.02119994        -9.28060881E-15
   1.03320003        -2.26077109E-14
   1.04519999        -2.06153284E-14
   1.05719995         1.06193844E-15
   1.06920004         3.98645316E-14
   1.08120000         8.65000007E-14
   1.09319997         1.27332091E-13
   1.10520005         1.48204853E-13
   1.11720002         1.38470832E-13
   1.12919998         9.39644887E-14
   1.14119995         1.80805044E-14
   1.15320003        -7.91784851E-14
   1.16520000        -1.83606955E-13
   1.17719996        -2.79629076E-13
   1.18920004        -3.52537904E-13
   1.20120001        -3.89564818E-13
   1.21319997        -3.79906339E-13
   1.22520006        -3.14482977E-13
   1.23720002        -1.86489902E-13
   1.24919999         6.45641589E-15
   1.26119995         2.58531532E-13
   1.27320004         5.51237170E-13
   1.28520000         8.50064810E-13
   1.29719996         1.10439728E-12
   1.30920005         1.25227574E-12
   1.32120001         1.23042993E-12
   1.33319998         9.88329319E-13
   1.34519994         5.03449333E-13
   1.35720003        -2.05976458E-13
   1.36919999        -1.07439437E-12
   1.38119996        -1.99112753E-12
   1.39320004        -2.81201841E-12
   1.40520000        -3.37909041E-12
   1.41719997        -3.54503818E-12
   1.42920005        -3.19843024E-12
   1.44120002        -2.28557321E-12
   1.45319998        -8.25915237E-13
   1.46519995         1.08080602E-12
   1.47720003         3.25620780E-12
   1.48920000         5.45343154E-12
   1.50119996         7.37535727E-12
   1.51320004         8.70051687E-12
   1.52520001         9.11641856E-12
   1.53719997         8.35954049E-12
   1.54920006         6.25998992E-12
   1.56120002         2.78684996E-12
   1.57319999        -1.91202002E-12
   1.58519995        -7.48375320E-12
   1.59720004        -1.33664147E-11
   1.60920000        -1.88145558E-11
   1.62119997        -2.29587564E-11
   1.63320005        -2.48988139E-11
   1.64520001        -2.38247252E-11
   1.65719998        -1.91539302E-11
   1.66919994        -1.06686708E-11
   1.68120003         1.36592202E-12
   1.69319999         1.61235764E-11
   1.70519996         3.21978832E-11
   1.71720004         4.76586132E-11
   1.72920001         6.01933989E-11
   1.74119997         6.73362407E-11
   1.75320005         6.67733299E-11
   1.76520002         5.67035099E-11
   1.77719998         3.62170051E-11
   1.78919995         5.64319208E-12
   1.80120003        -3.31906030E-11
   1.81320000        -7.68496447E-11
   1.82519996        -1.20385493E-10
   1.83720005        -1.57669225E-10
   1.84920001        -1.81973547E-10
   1.86119998        -1.86777635E-10
   1.87320006        -1.66729727E-10
   1.88520002        -1.18665522E-10
   1.89719999        -4.25505534E-11
   1.90919995         5.78006948E-11
   1.92120004         1.74375223E-10
   1.93320000         2.95105995E-10
   1.94519997         4.04595218E-10
   1.95720005         4.85442853E-10
   1.96920002         5.20138599E-10
   1.98119998         4.93399488E-10
   1.99319994         3.94761723E-10
   2.00519991         2.21170401E-10
   2.01719999        -2.07361281E-11
   2.02920008        -3.12974341E-10
   2.04119992        -6.25514973E-10
   2.05320001        -9.16810294E-10
   2.06520009        -1.13574594E-09
   2.07719994        -1.22509647E-09
   2.08920002        -1.12641929E-09
   2.10120010        -7.86155196E-10
   2.11319995        -1.62529101E-10
   2.12520003         7.67314434E-10
   2.13720012         2.00063899E-09
   2.14919996         3.50368401E-09
   2.16120005         5.20825738E-09
   2.17319989         7.01106018E-09
   2.18519998         8.77628015E-09
   2.19720006         1.03417355E-08
   2.20919991         1.15284751E-08
   2.22119999         1.21533459E-08
   2.23320007         1.20435342E-08
   2.24519992         1.10516298E-08
   2.25720000         9.06929998E-09
   2.26920009         6.03730266E-09
   2.28119993         1.94925875E-09
   2.29320002        -3.15343973E-09
   2.30520010        -9.19822973E-09
   2.31719995        -1.61118123E-08
   2.32920003        -2.38663169E-08
   2.34120011        -3.25424878E-08
   2.35319996        -4.24102709E-08
   2.36520004        -5.40262874E-08
   2.37719989        -6.83466368E-08
   2.38919997        -8.68523031E-08
   2.40120006        -1.11683391E-07
   2.41319990        -1.45776994E-07
   2.42519999        -1.93002862E-07
   2.43720007        -2.58289816E-07
   2.44919991        -3.47734954E-07
   2.46120000        -4.68687148E-07
   2.47320008        -6.29796148E-07
   2.48519993        -8.41018505E-07
   2.49720001        -1.11357122E-06
   2.50920010        -1.45982676E-06
   2.52119994        -1.89314164E-06
   2.53320003        -2.42761507E-06
   2.54520011        -3.07777441E-06
   2.55719995        -3.85818839E-06
   2.56920004        -4.78301399E-06
   2.58119988        -5.86548049E-06
   2.59319997        -7.11732628E-06
   2.60520005        -8.54819791E-06
   2.61719990        -1.01650403E-05
   2.62919998        -1.19714832E-05
   2.64120007        -1.39672711E-05
   2.65319991        -1.61477456E-05
   2.66520000        -1.85034223E-05
   2.67720008        -2.10196704E-05
   2.68919992        -2.36765500E-05
   2.70120001        -2.64488153E-05
   2.71320009        -2.93060803E-05
   2.72519994        -3.22132073E-05
   2.73720002        -3.51308772E-05
   2.74920011        -3.80163692E-05
   2.76119995        -4.08244923E-05
   2.77320004        -4.35087131E-05
   2.78520012        -4.60223819E-05
   2.79719996        -4.83200383E-05
   2.80920005        -5.03587762E-05
   2.82119989        -5.20995600E-05
   2.83319998        -5.35085055E-05
   2.84520006        -5.45579751E-05
   2.85719991        -5.52275706E-05
   2.86919999        -5.55048282E-05
   2.88120008        -5.53856953E-05
   2.89319992        -5.48746902E-05
   2.90520000        -5.39848079E-05
   2.91720009        -5.27370757E-05
   2.92919993        -5.11598737E-05
   2.94120002        -4.92879553E-05
   2.95320010        -4.71612875E-05
   2.96519995        -4.48237188E-05
   2.97720003        -4.23215279E-05
   2.98920012        -3.97019467E-05
   3.00119996        -3.70117232E-05
   3.01320004        -3.42957392E-05
   3.02519989        -3.15958023E-05
   3.03719997        -2.89496347E-05
   3.04920006        -2.63900511E-05
   3.06119990        -2.39444507E-05
   3.07319999        -2.16345143E-05
   3.08520007        -1.94761815E-05
   3.09719992        -1.74798679E-05
   3.10920000        -1.56508740E-05
   3.12120008        -1.39899585E-05
   3.13319993        -1.24940334E-05
   3.14520001        -1.11569179E-05
   3.15720010        -9.97011648E-06
   3.16919994        -8.92355274E-06
   3.18120003        -8.00624275E-06
   3.19320011        -7.20685284E-06
   3.20519996        -6.51414166E-06
   3.21720004        -5.91725529E-06
   3.22919989        -5.40589326E-06
   3.24119997        -4.97034716E-06
   3.25320005        -4.60144201E-06
   3.26519990        -4.29040028E-06
   3.27719998        -4.02866635E-06
   3.28920007        -3.80772371E-06
   3.30119991        -3.61893763E-06
   3.31320000        -3.45345370E-06
   3.32520008        -3.30216653E-06
   3.33719993        -3.15578745E-06
   3.34920001        -3.00499960E-06
   3.36120009        -2.84070711E-06
   3.37319994        -2.65435597E-06
   3.38520002        -2.43831187E-06
   3.39720011        -2.18625200E-06
   3.40919995        -1.89355296E-06
   3.42120004        -1.55762530E-06
   3.43319988        -1.17816649E-06
   3.44519997        -7.57301393E-07
   3.45720005        -2.99586418E-07
   3.46919990         1.88141470E-07
   3.48119998         6.97068174E-07
   3.49320006         1.21685537E-06
   3.50519991         1.73622300E-06
   3.51719999         2.24363453E-06
   3.52920008         2.72804436E-06
   3.54119992         3.17966010E-06
   3.55320001         3.59067599E-06
   3.56520009         3.95592542E-06
   3.57719994         4.27340001E-06
   3.58920002         4.54460269E-06
   3.60120010         4.77469166E-06
   3.61319995         4.97240035E-06
   3.62520003         5.14971453E-06
   3.63720012         5.32132117E-06
   3.64919996         5.50384084E-06
   3.66120005         5.71488135E-06
   3.67319989         5.97195822E-06
   3.68519998         6.29134092E-06
   3.69720006         6.68689472E-06
   3.70919991         7.16897284E-06
   3.72119999         7.74345517E-06
   3.73320007         8.41097426E-06
   3.74519992         9.16640420E-06
   3.75720000         9.99864096E-06
   3.76920009         1.08907161E-05
   3.78119993         1.18202406E-05
   3.79320002         1.27601897E-05
   3.80520010         1.36799736E-05
   3.81719995         1.45467729E-05
   3.82920003         1.53270721E-05
   3.84120011         1.59883039E-05
   3.85319996         1.65005440E-05
   3.86520004         1.68381557E-05
   3.87719989         1.69813120E-05
   3.88919997         1.69172908E-05
   3.90120006         1.66414866E-05
   3.91319990         1.61580901E-05
   3.92519999         1.54803492E-05
   3.93720007         1.46304537E-05
   3.94919991         1.36389926E-05
   3.96120000         1.25440210E-05
   3.97320008         1.13897822E-05
   3.98519993         1.02251324E-05
   3.99720001         9.10172548E-06
   4.00920010         8.07206015E-06
   4.02120018         7.18744059E-06
   4.03319979         6.49595904E-06
   4.04519987         6.04056595E-06
   4.05719995         5.85731732E-06
   4.06920004         5.97386361E-06
   4.08120012         6.40824101E-06
   4.09320021         7.16801196E-06
   4.10519981         8.24978360E-06
   4.11719990         9.63913772E-06
   4.12919998         1.13109436E-05
   4.14120007         1.32300866E-05
   4.15320015         1.53525561E-05
   4.16520023         1.76268641E-05
   4.17719984         1.99957758E-05
   4.18919992         2.23982734E-05
   4.20120001         2.47716780E-05
   4.21320009         2.70539222E-05
   4.22520018         2.91858159E-05
   4.23719978         3.11132972E-05
   4.24919987         3.27895432E-05
   4.26119995         3.41768828E-05
   4.27320004         3.52484167E-05
   4.28520012         3.59892947E-05
   4.29720020         3.63975560E-05
   4.30919981         3.64845291E-05
   4.32119989         3.62747160E-05
   4.33319998         3.58051802E-05
   4.34520006         3.51243980E-05
   4.35720015         3.42906533E-05
   4.36920023         3.33699791E-05
   4.38119984         3.24336943E-05
   4.39319992         3.15556936E-05
   4.40520000         3.08094895E-05
   4.41720009         3.02651752E-05
   4.42920017         2.99864132E-05
   4.44119978         3.00275569E-05
   4.45319986         3.04310342E-05
   4.46519995         3.12250741E-05
   4.47720003         3.24219145E-05
   4.48920012         3.40165243E-05
   4.50120020         3.59859187E-05
   4.51319981         3.82890903E-05
   4.52519989         4.08675987E-05
   4.53719997         4.36467490E-05
   4.54920006         4.65373778E-05
   4.56120014         4.94381384E-05
   4.57320023         5.22382434E-05
   4.58519983         5.48205608E-05
   4.59719992         5.70649499E-05
   4.60920000         5.88517432E-05
   4.62120008         6.00652129E-05
   4.63320017         6.05970090E-05
   4.64519978         6.03493390E-05
   4.65719986         5.92378892E-05
   4.66919994         5.71943419E-05
   4.68120003         5.41684603E-05
   4.69320011         5.01296599E-05
   4.70520020         4.50680272E-05
   4.71719980         3.89947709E-05
   4.72919989         3.19421342E-05
   4.74119997         2.39627152E-05
   4.75320005         1.51282911E-05
   4.76520014         5.52817164E-06
   4.77720022        -4.73287264E-06
   4.78919983        -1.55370271E-05
   4.80119991        -2.67561063E-05
   4.81320000        -3.82544240E-05
   4.82520008        -4.98917689E-05
   4.83720016        -6.15264144E-05
   4.84919977        -7.30180618E-05
   4.86119986        -8.42306908E-05
   4.87319994        -9.50351896E-05
   4.88520002        -1.05311752E-04
   4.89720011        -1.14952032E-04
   4.90920019        -1.23860867E-04
   4.92119980        -1.31957786E-04
   4.93319988        -1.39177981E-04
   4.94519997        -1.45473066E-04
   4.95720005        -1.50811393E-04
   4.96920013        -1.55177913E-04
   4.98120022        -1.58573879E-04
   4.99319983        -1.61016098E-04
   5.00519991        -1.62535813E-04
   5.01719999        -1.63177538E-04
   5.02920008        -1.62997370E-04
   5.04120016        -1.62061333E-04
   5.05319977        -1.60443378E-04
   5.06519985        -1.58223411E-04
   5.07719994        -1.55485177E-04
   5.08920002        -1.52314053E-04
   5.10120010        -1.48795050E-04
   5.11320019        -1.45010781E-04
   5.12519979        -1.41039680E-04
   5.13719988        -1.36954302E-04
   5.14919996        -1.32819958E-04
   5.16120005        -1.28693719E-04
   5.17320013        -1.24623577E-04
   5.18520021        -1.20648081E-04
   5.19719982        -1.16796320E-04
   5.20919991        -1.13088201E-04
   5.22119999        -1.09535060E-04
   5.23320007        -1.06140549E-04
   5.24520016        -1.02901817E-04
   5.25719976        -9.98107353E-05
   5.26919985        -9.68553140E-05
   5.28119993        -9.40211248E-05
   5.29320002        -9.12926771E-05
   5.30520010        -8.86546841E-05
   5.31720018        -8.60931978E-05
   5.32919979        -8.35965402E-05
   5.34119987        -8.11560458E-05
   5.35319996        -7.87664831E-05
   5.36520004        -7.64263314E-05
   5.37720013        -7.41377589E-05
   5.38920021        -7.19064046E-05
   5.40119982        -6.97409487E-05
   5.41319990        -6.76526179E-05
   5.42519999        -6.56543998E-05
   5.43720007        -6.37603080E-05
   5.44920015        -6.19845887E-05
   5.46120024        -6.03407461E-05
   5.47319984        -5.88407675E-05
   5.48519993        -5.74942642E-05
   5.49720001        -5.63076719E-05
   5.50920010        -5.52835918E-05
   5.52120018        -5.44201903E-05
   5.53319979        -5.37107699E-05
   5.54519987        -5.31434889E-05
   5.55719995        -5.27012635E-05
   5.56920004        -5.23619165E-05
   5.58120012        -5.20984868E-05
   5.59320021        -5.18798297E-05
   5.60519981        -5.16713917E-05
   5.61719990        -5.14362109E-05
   5.62919998        -5.11361068E-05
   5.64120007        -5.07330187E-05
   5.65320015        -5.01904397E-05
   5.66520023        -4.94748747E-05
   5.67719984        -4.85573000E-05
   5.68919992        -4.74145054E-05
   5.70120001        -4.60302799E-05
   5.71320009        -4.43963399E-05
   5.72520018        -4.25129911E-05
   5.73719978        -4.03894228E-05
   5.74919987        -3.80436650E-05
   5.76119995        -3.55021366E-05
   5.77320004        -3.27989001E-05
   5.78520012        -2.99745225E-05
   5.79720020        -2.70747005E-05
   5.80919981        -2.41486832E-05
   5.82119989        -2.12475497E-05
   5.83319998        -1.84224264E-05
   5.84520006        -1.57227551E-05
   5.85720015        -1.31946435E-05
   5.86920023        -1.08793811E-05
   5.88119984        -8.81220058E-06
   5.89319992        -7.02127136E-06
   5.90520000        -5.52700931E-06
   5.91720009        -4.34165804E-06
   5.92920017        -3.46916499E-06
   5.94119978        -2.90532535E-06
   5.95319986        -2.63815673E-06
   5.96519995        -2.64847358E-06
   5.97720003        -2.91061610E-06
   5.98920012        -3.39329517E-06
   6.00120020        -4.06050913E-06
   6.01319981        -4.87250645E-06
   6.02519989        -5.78675554E-06
   6.03719997        -6.75891397E-06
   6.04920006        -7.74377713E-06
   6.06120014        -8.69620180E-06
   6.07320023        -9.57200518E-06
   6.08519983        -1.03288467E-05
   6.09719992        -1.09270795E-05
   6.10920000        -1.13305932E-05
   6.12120008        -1.15076236E-05
   6.13320017        -1.14315380E-05
   6.14519978        -1.10815663E-05
   6.15719986        -1.04434657E-05
   6.16919994        -9.51008315E-06
   6.18120003        -8.28179782E-06
   6.19320011        -6.76679338E-06
   6.20520020        -4.98116060E-06
   6.21719980        -2.94876281E-06
   6.22919989        -7.00881742E-07
   6.24119997         1.72439718E-06
   6.25320005         4.28303974E-06
   6.26520014         6.92616140E-06
   6.27720022         9.60134821E-06
   6.28919983         1.22541460E-05
   6.30119991         1.48297013E-05
   6.31320000         1.72744622E-05
   6.32520008         1.95378980E-05
   6.33720016         2.15741766E-05
   6.34919977         2.33436931E-05
   6.36119986         2.48144352E-05
   6.37319994         2.59630851E-05
   6.38520002         2.67758478E-05
   6.39720011         2.72489269E-05
   6.40920019         2.73886726E-05
   6.42119980         2.72113666E-05
   6.43319988         2.67426440E-05
   6.44519997         2.60166034E-05
   6.45720005         2.50745943E-05
   6.46920013         2.39637684E-05
   6.48120022         2.27354158E-05
   6.49319983         2.14431566E-05
   6.50519991         2.01410603E-05
   6.51719999         1.88817521E-05
   6.52920008         1.77145612E-05
   6.54120016         1.66838126E-05
   6.55319977         1.58272887E-05
   6.56519985         1.51749427E-05
   6.57719994         1.47478959E-05
   6.58920002         1.45577797E-05
   6.60120010         1.46064212E-05
   6.61320019         1.48859235E-05
   6.62519979         1.53791061E-05
   6.63719988         1.60603176E-05
   6.64919996         1.68965635E-05
   6.66120005         1.78489354E-05
   6.67320013         1.88742324E-05
   6.68520021         1.99267524E-05
   6.69719982         2.09601276E-05
   6.70919991         2.19291487E-05
   6.72119999         2.27914788E-05
   6.73320007         2.35091884E-05
   6.74520016         2.40500394E-05
   6.75719976         2.43884660E-05
   6.76919985         2.45062238E-05
   6.78119993         2.43926916E-05
   6.79320002         2.40448462E-05
   6.80520010         2.34668987E-05
   6.81720018         2.26696939E-05
   6.82919979         2.16698700E-05
   6.84119987         2.04888947E-05
   6.85319996         1.91520048E-05
   6.86520004         1.76871490E-05
   6.87720013         1.61239768E-05
   6.88920021         1.44929081E-05
   6.90119982         1.28243491E-05
   6.91319990         1.11480413E-05
   6.92519999         9.49256719E-06
   6.93720007         7.88497800E-06
   6.94920015         6.35053675E-06
   6.96120024         4.91253695E-06
   6.97319984         3.59216187E-06
   6.98519993         2.40834811E-06
   6.99720001         1.37763823E-06
   7.00920010         5.13989789E-07
   7.02120018        -1.71447809E-07
   7.03319979        -6.70593295E-07
   7.04519987        -9.78706680E-07
   7.05719995        -1.09464963E-06
   7.06920004        -1.02110425E-06
   7.08120012        -7.64718664E-07
   7.09320021        -3.36145717E-07
   7.10519981         2.50039420E-07
   7.11719990         9.75563012E-07
   7.12919998         1.81882183E-06
   7.14120007         2.75538605E-06
   7.15320015         3.75862510E-06
   7.16520023         4.80042581E-06
   7.17719984         5.85197313E-06
   7.18919992         6.88455475E-06
   7.20120001         7.87034878E-06
   7.21320009         8.78316223E-06
   7.22520018         9.59907538E-06
   7.23719978         1.02969871E-05
   7.24919987         1.08590184E-05
   7.26119995         1.12707976E-05
   7.27320004         1.15216171E-05
   7.28520012         1.16044803E-05
   7.29720020         1.15160674E-05
   7.30919981         1.12566340E-05
   7.32119989         1.08298836E-05
   7.33319998         1.02428176E-05
   7.34520006         9.50558024E-06
   7.35720015         8.63132391E-06
   7.36920023         7.63606204E-06
   7.38119984         6.53852157E-06
   7.39319992         5.35997378E-06
   7.40520000         4.12400732E-06
   7.41720009         2.85624765E-06
   7.42920017         1.58398086E-06
   7.44119978         3.35675850E-07
   7.45319986        -8.59606928E-07
   7.46519995        -1.97291911E-06
   7.47720003        -2.97623410E-06
   7.48920012        -3.84333998E-06
   7.50120020        -4.55078634E-06
   7.51319981        -5.07884170E-06
   7.52519989        -5.41242025E-06
   7.53719997        -5.54191729E-06
   7.54920006        -5.46389947E-06
   7.56120014        -5.18159959E-06
   7.57320023        -4.70516852E-06
   7.58519983        -4.05164974E-06
   7.59719992        -3.24465123E-06
   7.60920000        -2.31372383E-06
   7.62120008        -1.29344471E-06
   7.63320017        -2.22249412E-07
   7.64519978         8.58943906E-07
   7.65719986         1.90825585E-06
   7.66919994         2.88444630E-06
   7.68120003         3.74851152E-06
   7.69320011         4.46521381E-06
   7.70520020         5.00446004E-06
   7.71719980         5.34247783E-06
   7.72919989         5.46272668E-06
   7.74119997         5.35650588E-06
   7.75320005         5.02323519E-06
   7.76520014         4.47040338E-06
   7.77720022         3.71319334E-06
   7.78919983         2.77380468E-06
   7.80119991         1.68051952E-06
   7.81320000         4.66560010E-07
   7.82520008        -8.31205227E-07
   7.83720016        -2.17364232E-06
   7.84919977        -3.52076654E-06
   7.86119986        -4.83312351E-06
   7.87319994        -6.07309585E-06
   7.88520002        -7.20608750E-06
   7.89720011        -8.20155037E-06
   7.90920019        -9.03383261E-06
   7.92119980        -9.68283348E-06
   7.93319988        -1.01344531E-05
   7.94519997        -1.03808397E-05
   7.95720005        -1.04204610E-05
   7.96920013        -1.02579797E-05
   7.98120022        -9.90398348E-06
   7.99319983        -9.37457662E-06
   8.00520039        -8.69084397E-06
   8.01720047        -7.87822410E-06
   8.02919960        -6.96578218E-06
   8.04119968        -5.98541510E-06
   8.05319977        -4.97099290E-06
   8.06519985        -3.95744837E-06
   8.07719994        -2.97983343E-06
   8.08920002        -2.07234893E-06
   8.10120010        -1.26737871E-06
   8.11320019        -5.94541802E-07
   8.12520027        -7.97927768E-08
   8.13720036         2.55406462E-07
   8.14920044         3.94810513E-07
   8.16119957         3.27984253E-07
   8.17319965         5.07409901E-08
   8.18519974        -4.34603066E-07
   8.19719982        -1.11917655E-06
   8.20919991        -1.98772113E-06
   8.22119999        -3.01898149E-06
   8.23320007        -4.18632044E-06
   8.24520016        -5.45853982E-06
   8.25720024        -6.80089033E-06
   8.26920033        -8.17622822E-06
   8.28120041        -9.54628103E-06
   8.29319954        -1.08729682E-05
   8.30519962        -1.21197245E-05
   8.31719971        -1.32527693E-05
   8.32919979        -1.42422605E-05
   8.34119987        -1.50632950E-05
   8.35319996        -1.56967053E-05
   8.36520004        -1.61296139E-05
   8.37720013        -1.63557343E-05
   8.38920021        -1.63753884E-05
   8.40120029        -1.61952612E-05
   8.41320038        -1.58279017E-05
   8.42520046        -1.52909852E-05
   8.43719959        -1.46064067E-05
   8.44919968        -1.37992347E-05
   8.46119976        -1.28965821E-05
   8.47319984        -1.19264560E-05
   8.48519993        -1.09166476E-05
   8.49720001        -9.89370346E-06
   8.50920010        -8.88203249E-06
   8.52120018        -7.90317881E-06
   8.53320026        -6.97527412E-06
   8.54520035        -6.11271025E-06
   8.55720043        -5.32600643E-06
   8.56919956        -4.62188154E-06
   8.58119965        -4.00350382E-06
   8.59319973        -3.47089895E-06
   8.60519981        -3.02148032E-06
   8.61719990        -2.65066319E-06
   8.62919998        -2.35252560E-06
   8.64120007        -2.12047235E-06
   8.65320015        -1.94787208E-06
   8.66520023        -1.82862595E-06
   8.67720032        -1.75764956E-06
   8.68920040        -1.73124079E-06
   8.70119953        -1.74732440E-06
   8.71319962        -1.80556674E-06
   8.72519970        -1.90735295E-06
   8.73719978        -2.05564265E-06
   8.74919987        -2.25469967E-06
   8.76119995        -2.50972448E-06
   8.77320004        -2.82640917E-06
   8.78520012        -3.21043194E-06
   8.79720020        -3.66693575E-06
   8.80920029        -4.20000833E-06
   8.82120037        -4.81220559E-06
   8.83320045        -5.50414370E-06
   8.84519958        -6.27418103E-06
   8.85719967        -7.11821940E-06
   8.86919975        -8.02961949E-06
   8.88119984        -8.99925908E-06
   8.89319992        -1.00157031E-05
   8.90520000        -1.10654964E-05
   8.91720009        -1.21335534E-05
   8.92920017        -1.32036148E-05
   8.94120026        -1.42587578E-05
   8.95320034        -1.52819212E-05
   8.96520042        -1.62564120E-05
   8.97719955        -1.71663833E-05
   8.98919964        -1.79972303E-05
   9.00119972        -1.87359256E-05
   9.01319981        -1.93712458E-05
   9.02519989        -1.98939342E-05
   9.03719997        -2.02967713E-05
   9.04920006        -2.05745910E-05
   9.06120014        -2.07242520E-05
   9.07320023        -2.07446046E-05
   9.08520031        -2.06364366E-05