 -0.622799993         1.00000002E-24
 -0.610800028         1.00000002E-24
 -0.598800004         1.00000002E-24
 -0.586799979         1.00000002E-24
 -0.574800014         1.00000002E-24
 -0.562799990         1.00000002E-24
 -0.550800025         1.00000002E-24
 -0.538800001         1.00000002E-24
 -0.526799977         1.00000002E-24
 -0.514800012         1.00000012E-24
 -0.502799988         1.00000022E-24
 -0.490799993         1.00000032E-24
 -0.478799999         1.00000041E-24
 -0.466800004         1.00000041E-24
 -0.454800010         1.00000041E-24
 -0.442799985         1.00000041E-24
 -0.430799991         1.00000041E-24
 -0.418799996         1.00000032E-24
 -0.406800002         1.00000022E-24
 -0.394800007         1.00000002E-24
 -0.382800013         9.99999822E-25
 -0.370799989         9.99999527E-25
 -0.358799994         9.99999428E-25
 -0.346799999         9.99999625E-25
 -0.334800005         1.00000041E-24
 -0.322800010         1.00000130E-24
 -0.310799986         9.99999822E-25
 -0.298799992         9.99988680E-25
 -0.286799997         9.99954759E-25
 -0.274800003         9.99885832E-25
 -0.262800008         9.99796099E-25
 -0.250800014         9.99786337E-25
 -0.238800004         1.00014320E-24
 -0.226799995         1.00144679E-24
 -0.214800000         1.00457886E-24
 -0.202800006         1.01042255E-24
 -0.190799996         1.01895802E-24
 -0.178800002         1.02752338E-24
 -0.166800007         1.02837811E-24
 -0.154799998         1.00654480E-24
 -0.142800003         9.40179317E-25
 -0.130799994         8.07008157E-25
 -0.118799999         6.00672121E-25
 -0.106799997         3.58595337E-25
  -9.48000029E-02     1.96699508E-25
  -8.28000009E-02     3.35418899E-25
  -7.07999989E-02     1.08820907E-24
  -5.88000007E-02     2.77434117E-24
  -4.67999987E-02     5.52280060E-24
  -3.48000005E-02     8.96602108E-24
  -2.28000004E-02     1.18893361E-23
  -1.08000003E-02     1.19992765E-23
   1.20000006E-03     6.07288081E-24
   1.31999999E-02    -9.20577563E-24
   2.52000000E-02    -3.55042659E-23
   3.72000001E-02    -7.02729664E-23
   4.91999984E-02    -1.03950581E-22
   6.12000003E-02    -1.18218784E-22
   7.32000023E-02    -8.71710675E-23
   8.51999968E-02     1.66119276E-23
   9.71999988E-02     2.09873276E-22
  0.109200001         4.81210049E-22
  0.121200003         7.72431596E-22
  0.133200005         9.66714430E-22
  0.145199999         8.94544639E-22
  0.157199994         3.68554830E-22
  0.169200003        -7.46610474E-22
  0.181199998        -2.43467446E-21
  0.193200007        -4.42078035E-21
  0.205200002        -6.09873642E-21
  0.217199996        -6.54784460E-21
  0.229200006        -4.69373501E-21
  0.241200000         3.57314383E-22
  0.253199995         8.83467103E-21
  0.265199989         1.97714859E-20
  0.277200013         3.06088460E-20
  0.289200008         3.71777619E-20
  0.301200002         3.42948306E-20
  0.313199997         1.71038720E-20
  0.325199991        -1.69187467E-20
  0.337199986        -6.56784121E-20
  0.349200010        -1.20595721E-19
  0.361200005        -1.66075197E-19
  0.373199999        -1.81208247E-19
  0.385199994        -1.44248873E-19
  0.397199988        -3.96638467E-20
  0.409200013         1.33456131E-19
  0.421200007         3.53892164E-19
  0.433200002         5.74689934E-19
  0.445199996         7.26430066E-19
  0.457199991         7.29306224E-19
  0.469199985         5.13791812E-19
  0.481200010         4.67400893E-20
  0.493200004        -6.43259330E-19
  0.505200028        -1.44954831E-18
  0.517199993        -2.18853585E-18
  0.529200017        -2.62423939E-18
  0.541199982        -2.51694868E-18
  0.553200006        -1.68963655E-18
  0.565199971        -9.84761298E-20
  0.577199996         2.11135039E-18
  0.589200020         4.58432553E-18
  0.601199985         6.78292321E-18
  0.613200009         8.07077146E-18
  0.625199974         7.84232320E-18
  0.637199998         5.67696536E-18
  0.649200022         1.48549530E-18
  0.661199987        -4.38631959E-18
  0.673200011        -1.11271244E-17
  0.685199976        -1.75198707E-17
  0.697200000        -2.20932712E-17
  0.709200025        -2.33497685E-17
  0.721199989        -2.00430081E-17
  0.733200014        -1.14715310E-17
  0.745199978         2.24688559E-18
  0.757200003         1.99578598E-17
  0.769200027         3.93535345E-17
  0.781199992         5.70100885E-17
  0.793200016         6.86434243E-17
  0.805199981         6.96449283E-17
  0.817200005         5.59303333E-17
  0.829200029         2.50673594E-17
  0.841199994        -2.24593218E-17
  0.853200018        -8.21168134E-17
  0.865199983        -1.44711106E-16
  0.877200007        -1.96722489E-16
  0.889199972        -2.21941121E-16
  0.901199996        -2.04521809E-16
  0.913200021        -1.33197188E-16
  0.925199986        -5.92653774E-18
  0.937200010         1.66164346E-16
  0.949199975         3.56927481E-16
  0.961199999         5.26691333E-16
  0.973200023         6.27857719E-16
  0.985199988         6.14419012E-16
  0.997200012         4.54055876E-16
   1.00919998         1.40351612E-16
   1.02119994        -2.98086220E-16
   1.03320003        -7.94845024E-16
   1.04519999        -1.25166789E-15
   1.05719995        -1.55383387E-15
   1.06920004        -1.59332731E-15
   1.08120000        -1.29578253E-15
   1.09319997        -6.45365943E-16
   1.10520005         2.98908927E-16
   1.11720002         1.40104067E-15
   1.12919998         2.46320188E-15
   1.14119995         3.25764869E-15
   1.15320003         3.57070424E-15
   1.16520000         3.25057004E-15
   1.17719996         2.24867406E-15
   1.18920004         6.44434048E-16
   1.20120001        -1.35406825E-15
   1.21319997        -3.43633538E-15
   1.22520006        -5.23963400E-15
   1.23720002        -6.41444075E-15
   1.24919999        -6.69232727E-15
   1.26119995        -5.94189547E-15
   1.27320004        -4.20005734E-15
   1.28520000        -1.67067010E-15
   1.29719996         1.31051106E-15
   1.30920005         4.33787892E-15
   1.32120001         7.01163540E-15
   1.33319998         9.00965144E-15
   1.34519994         1.01380323E-14
   1.35720003         1.03471876E-14
   1.36919999         9.70839687E-15
   1.38119996         8.35632985E-15
   1.39320004         6.41348021E-15
   1.40520000         3.92015530E-15
   1.41719997         7.96110015E-16
   1.42920005        -3.14464793E-15
   1.44120002        -8.11596307E-15
   1.45319998        -1.42257693E-14
   1.46519995        -2.13127330E-14
   1.47720003        -2.87958913E-14
   1.48920000        -3.55883773E-14
   1.50119996        -4.01228834E-14
   1.51320004        -4.05198200E-14
   1.52520001        -3.48999767E-14
   1.53719997        -2.18079305E-14
   1.54920006        -6.77169225E-16
   1.56120002         2.77574188E-14
   1.57319999         6.12019997E-14
   1.58519995         9.57895736E-14
   1.59720004         1.26361581E-13
   1.60920000         1.47046451E-13
   1.62119997         1.52078504E-13
   1.63320005         1.36749282E-13
   1.64520001         9.83493140E-14
   1.65719998         3.69488443E-14
   1.66919994        -4.41170063E-14
   1.68120003        -1.38154692E-13
   1.69319999        -2.35454343E-13
   1.70519996        -3.24057513E-13
   1.71720004        -3.90893210E-13
   1.72920001        -4.23187960E-13
   1.74119997        -4.10032685E-13
   1.75320005        -3.43970837E-13
   1.76520002        -2.22460031E-13
   1.77719998        -4.90447052E-14
   1.78919995         1.65932738E-13
   1.80120003         4.05255609E-13
   1.81320000         6.45541942E-13
   1.82519996         8.58833729E-13
   1.83720005         1.01506466E-12
   1.84920001         1.08527575E-12
   1.86119998         1.04530100E-12
   1.87320006         8.79510928E-13
   1.88520002         5.84110397E-13
   1.89719999         1.69472983E-13
   1.90919995        -3.38936209E-13
   1.92120004        -9.01335376E-13
   1.93320000        -1.46616400E-12
   1.94519997        -1.97420552E-12
   1.95720005        -2.36389879E-12
   1.96920002        -2.57729320E-12
   1.98119998        -2.56604438E-12
   1.99319994        -2.29689141E-12
   2.00519991        -1.75616216E-12
   2.01719999        -9.53011433E-13
   2.02920008         7.87846080E-14
   2.04119992         1.28055216E-12
   2.05320001         2.57002536E-12
   2.06520009         3.84432894E-12
   2.07719994         4.98477735E-12
   2.08920002         5.86366112E-12
   2.10120010         6.35312159E-12
   2.11319995         6.33605061E-12
   2.12520003         5.71864518E-12
   2.13720012         4.44387756E-12
   2.14919996         2.50470478E-12
   2.16120005        -4.45106158E-14
   2.17319989        -3.08015766E-12
   2.18519998        -6.40689932E-12
   2.19720006        -9.76214855E-12
   2.20919991        -1.28285646E-11
   2.22119999        -1.52549015E-11
   2.23320007        -1.66846155E-11
   2.24519992        -1.67906036E-11
   2.25720000        -1.53134935E-11
   2.26920009        -1.20999920E-11
   2.28119993        -7.13731765E-12
   2.29320002        -5.79410868E-13
   2.30520010         7.23902665E-12
   2.31719995         1.58040196E-11
   2.32920003         2.44415044E-11
   2.34120011         3.23549035E-11
   2.35319996         3.86800626E-11
   2.36520004         4.25547306E-11
   2.37719989         4.31981118E-11
   2.38919997         3.99946465E-11
   2.40120006         3.25752030E-11
   2.41319990         2.08884559E-11
   2.42519999         5.25530270E-12
   2.43720007        -1.36002347E-11
   2.44919991        -3.45492038E-11
   2.46120000        -5.60891299E-11
   2.47320008        -7.64111135E-11
   2.48519993        -9.35029831E-11
   2.49720001        -1.05286495E-10
   2.50920010        -1.09783974E-10
   2.52119994        -1.05306479E-10
   2.53320003        -9.06523745E-11
   2.54520011        -6.53016877E-11
   2.55719995        -2.95885538E-11
   2.56920004         1.51682746E-11
   2.58119988         6.65977343E-11
   2.59319997         1.21291491E-10
   2.60520005         1.74917872E-10
   2.61719990         2.22444674E-10
   2.62919998         2.58471716E-10
   2.64120007         2.77662893E-10
   2.65319991         2.75255152E-10
   2.66520000         2.47608378E-10
   2.67720008         1.92750788E-10
   2.68919992         1.10863881E-10
   2.70120001         4.64977406E-12
   2.71320009        -1.20476448E-10
   2.72519994        -2.56417804E-10
   2.73720002        -3.92684413E-10
   2.74920011        -5.16955867E-10
   2.76119995        -6.15907991E-10
   2.77320004        -6.76269374E-10
   2.78520012        -6.86046497E-10
   2.79719996        -6.35831110E-10
   2.80920005        -5.20083865E-10
   2.82119989        -3.38274603E-10
   2.83319998        -9.57529750E-11
   2.84520006         1.95769748E-10
   2.85719991         5.18233956E-10
   2.86919999         8.47816983E-10
   2.88120008         1.15612997E-09
   2.89319992         1.41201939E-09
   2.90520000         1.58391089E-09
   2.91720009         1.64257252E-09
   2.92919993         1.56412272E-09
   2.94120002         1.33304967E-09
   2.95320010         9.44978096E-10
   2.96519995         4.08891337E-10
   2.97720003        -2.51477061E-10
   2.98920012        -9.97339544E-10
   3.00119996        -1.77583903E-09
   3.01320004        -2.52243693E-09
   3.02519989        -3.16470894E-09
   3.03719997        -3.62742902E-09
   3.04920006        -3.83868448E-09
   3.06119990        -3.73663678E-09
   3.07319999        -3.27642935E-09
   3.08520007        -2.43665466E-09
   3.09719992        -1.22475385E-09
   3.10920000         3.19273719E-10
   3.12120008         2.12141127E-09
   3.13319993         4.07485468E-09
   3.14520001         6.04420070E-09
   3.15720010         7.87263232E-09
   3.16919994         9.39191924E-09
   3.18120003         1.04347508E-08
   3.19320011         1.08487113E-08
   3.20519996         1.05109663E-08
   3.21720004         9.34256139E-09
   3.22919989         7.32116767E-09
   3.24119997         4.49110038E-09
   3.25320005         9.69510583E-10
   3.26519990        -3.05211190E-09
   3.27719998        -7.31175076E-09
   3.28920007        -1.14862448E-08
   3.30119991        -1.52061030E-08
   3.31320000        -1.80752178E-08
   3.32520008        -1.96945571E-08
   3.33719993        -1.96885885E-08
   3.34920001        -1.77330151E-08
   3.36120009        -1.35821940E-08
   3.37319994        -7.09474079E-09
   3.38520002         1.74408188E-09
   3.39720011         1.28042892E-08
   3.40919995         2.57981210E-08
   3.42120004         4.02722655E-08
   3.43319988         5.56051454E-08
   3.44519997         7.10086070E-08
   3.45720005         8.55330100E-08
   3.46919990         9.80744304E-08
   3.48119998         1.07382789E-07
   3.49320006         1.12069323E-07
   3.50519991         1.10612746E-07
   3.51719999         1.01363355E-07
   3.52920008         8.25447870E-08
   3.54119992         5.22543999E-08
   3.55320001         8.46301607E-09
   3.56520009        -5.09843723E-08
   3.57719994        -1.28364206E-07
   3.58920002        -2.26064827E-07
   3.60120010        -3.46568640E-07
   3.61319995        -4.92424419E-07
   3.62520003        -6.66207143E-07
   3.63720012        -8.70465612E-07
   3.64919996        -1.10765711E-06
   3.66120005        -1.38006953E-06
   3.67319989        -1.68973440E-06
   3.68519998        -2.03833270E-06
   3.69720006        -2.42709916E-06
   3.70919991        -2.85672786E-06
   3.72119999        -3.32728791E-06
   3.73320007        -3.83814950E-06
   3.74519992        -4.38793404E-06
   3.75720000        -4.97448355E-06
   3.76920009        -5.59486080E-06
   3.78119993        -6.24537734E-06
   3.79320002        -6.92165531E-06
   3.80520010        -7.61871388E-06
   3.81719995        -8.33108516E-06
   3.82920003        -9.05295565E-06
   3.84120011        -9.77831951E-06
   3.85319996        -1.05011395E-05
   3.86520004        -1.12155158E-05
   3.87719989        -1.19158494E-05
   3.88919997        -1.25969818E-05
   3.90120006        -1.32543310E-05
   3.91319990        -1.38839869E-05
   3.92519999        -1.44827900E-05
   3.93720007        -1.50483747E-05
   3.94919991        -1.55791749E-05
   3.96120000        -1.60744094E-05
   3.97320008        -1.65340389E-05
   3.98519993        -1.69586838E-05
   3.99720001        -1.73495482E-05
   4.00920010        -1.77083202E-05
   4.02120018        -1.80370516E-05
   4.03319979        -1.83380689E-05
   4.04519987        -1.86138495E-05
   4.05719995        -1.88669474E-05
   4.06920004        -1.90998962E-05
   4.08120012        -1.93151427E-05
   4.09320021        -1.95150005E-05
   4.10519981        -1.97015961E-05
   4.11719990        -1.98768648E-05
   4.12919998        -2.00425275E-05
   4.14120007        -2.02000974E-05
   4.15320015        -2.03508862E-05
   4.16520023        -2.04960270E-05
   4.17719984        -2.06364930E-05
   4.18919992        -2.07731227E-05
   4.20120001        -2.09066438E-05
   4.21320009        -2.10377002E-05
   4.22520018        -2.11668721E-05
   4.23719978        -2.12947016E-05
   4.24919987        -2.14217089E-05
   4.26119995        -2.15484033E-05
   4.27320004        -2.16753033E-05
   4.28520012        -2.18029327E-05
   4.29720020        -2.19318244E-05
   4.30919981        -2.20625207E-05
   4.32119989        -2.21955597E-05
   4.33319998        -2.23314564E-05
   4.34520006        -2.24706910E-05
   4.35720015        -2.26136690E-05
   4.36920023        -2.27607052E-05
   4.38119984        -2.29119887E-05
   4.39319992        -2.30675487E-05
   4.40520000        -2.32272268E-05
   4.41720009        -2.33906612E-05
   4.42920017        -2.35572625E-05
   4.44119978        -2.37262138E-05
   4.45319986        -2.38964785E-05
   4.46519995        -2.40668232E-05
   4.47720003        -2.42358528E-05
   4.48920012        -2.44020666E-05
   4.50120020        -2.45639330E-05
   4.51319981        -2.47199532E-05
   4.52519989        -2.48687684E-05
   4.53719997        -2.50092344E-05
   4.54920006        -2.51405181E-05
   4.56120014        -2.52621830E-05
   4.57320023        -2.53742564E-05
   4.58519983        -2.54772785E-05
   4.59719992        -2.55723371E-05
   4.60920000        -2.56610620E-05
   4.62120008        -2.57456104E-05
   4.63320017        -2.58286018E-05
   4.64519978        -2.59130593E-05
   4.65719986        -2.60022953E-05
   4.66919994        -2.60998040E-05
   4.68120003        -2.62091398E-05
   4.69320011        -2.63337824E-05
   4.70520020        -2.64770206E-05
   4.71719980        -2.66418374E-05
   4.72919989        -2.68308104E-05
   4.74119997        -2.70460459E-05
   4.75320005        -2.72891320E-05
   4.76520014        -2.75611055E-05
   4.77720022        -2.78624757E-05
   4.78919983        -2.81932353E-05
   4.80119991        -2.85529241E-05
   4.81320000        -2.89406798E-05
   4.82520008        -2.93553185E-05
   4.83720016        -2.97954193E-05
   4.84919977        -3.02593799E-05
   4.86119986        -3.07455048E-05
   4.87319994        -3.12520460E-05
   4.88520002        -3.17772756E-05
   4.89720011        -3.23194690E-05
   4.90920019        -3.28769747E-05
   4.92119980        -3.34481811E-05
   4.93319988        -3.40315273E-05
   4.94519997        -3.46254819E-05
   4.95720005        -3.52285424E-05
   4.96920013        -3.58392062E-05
   4.98120022        -3.64559455E-05
   4.99319983        -3.70772250E-05
   5.00519991        -3.77014876E-05
   5.01719999        -3.83271654E-05
   5.02920008        -3.89526940E-05
   5.04120016        -3.95765237E-05
   5.05319977        -4.01971702E-05
   5.06519985        -4.08132109E-05
   5.07719994        -4.14233364E-05
   5.08920002        -4.20263677E-05
   5.10120010        -4.26212682E-05
   5.11320019        -4.32071683E-05
   5.12519979        -4.37833551E-05
   5.13719988        -4.43492863E-05
   5.14919996        -4.49045729E-05
   5.16120005        -4.54489673E-05
   5.17320013        -4.59823459E-05
   5.18520021        -4.65047160E-05
   5.19719982        -4.70161758E-05
   5.20919991        -4.75169327E-05
   5.22119999        -4.80072958E-05
   5.23320007        -4.84876764E-05
   5.24520016        -4.89586273E-05
   5.25719976        -4.94208398E-05
   5.26919985        -4.98752015E-05
   5.28119993        -5.03227893E-05
   5.29320002        -5.07649092E-05
   5.30520010        -5.12031147E-05
   5.31720018        -5.16391992E-05
   5.32919979        -5.20751855E-05
   5.34119987        -5.25132637E-05
   5.35319996        -5.29557619E-05
   5.36520004        -5.34050196E-05
   5.37720013        -5.38633067E-05
   5.38920021        -5.43326641E-05
   5.40119982        -5.48147727E-05
   5.41319990        -5.53107930E-05
   5.42519999        -5.58211868E-05
   5.43720007        -5.63455869E-05
   5.44920015        -5.68826545E-05
   5.46120024        -5.74299665E-05
   5.47319984        -5.79839616E-05
   5.48519993        -5.85399102E-05
   5.49720001        -5.90919444E-05
   5.50920010        -5.96331738E-05
   5.52120018        -6.01558095E-05
   5.53319979        -6.06513895E-05
   5.54519987        -6.11110227E-05
   5.55719995        -6.15257522E-05
   5.56920004        -6.18868653E-05
   5.58120012        -6.21862710E-05
   5.59320021        -6.24169479E-05
   5.60519981        -6.25732791E-05
   5.61719990        -6.26514302E-05
   5.62919998        -6.26497349E-05
   5.64120007        -6.25689208E-05
   5.65320015        -6.24124004E-05
   5.66520023        -6.21863801E-05
   5.67719984        -6.18999184E-05
   5.68919992        -6.15649551E-05
   5.70120001        -6.11961441E-05
   5.71320009        -6.08106566E-05
   5.72520018        -6.04278757E-05
   5.73719978        -6.00689600E-05
   5.74919987        -5.97564031E-05
   5.76119995        -5.95134334E-05
   5.77320004        -5.93634068E-05
   5.78520012        -5.93291516E-05
   5.79720020        -5.94322228E-05
   5.80919981        -5.96922255E-05
   5.82119989        -6.01260617E-05
   5.83319998        -6.07472793E-05
   5.84520006        -6.15653844E-05
   5.85720015        -6.25852845E-05
   5.86920023        -6.38067213E-05
   5.88119984        -6.52239323E-05
   5.89319992        -6.68252396E-05
   5.90520000        -6.85929263E-05
   5.91720009        -7.05031052E-05
   5.92920017        -7.25258069E-05
   5.94119978        -7.46250880E-05
   5.95319986        -7.67594029E-05
   5.96519995        -7.88819307E-05
   5.97720003        -8.09410994E-05
   5.98920012        -8.28812044E-05
   6.00120020        -8.46430412E-05
   6.01319981        -8.61645894E-05
   6.02519989        -8.73818208E-05
   6.03719997        -8.82294189E-05
   6.04920006        -8.86415437E-05
   6.06120014        -8.85526097E-05
   6.07320023        -8.78980209E-05
   6.08519983        -8.66148912E-05
   6.09719992        -8.46426992E-05
   6.10920000        -8.19240158E-05
   6.12120008        -7.84050717E-05
   6.13320017        -7.40364412E-05
   6.14519978        -6.87736319E-05
   6.15719986        -6.25776811E-05
   6.16919994        -5.54158105E-05
   6.18120003        -4.72620341E-05
   6.19320011        -3.80977908E-05
   6.20520020        -2.79126052E-05
   6.21719980        -1.67047219E-05
   6.22919989        -4.48175069E-06
   6.24119997         8.73872432E-06
   6.25320005         2.29285633E-05
   6.26520014         3.80485762E-05
   6.27720022         5.40480978E-05
   6.28919983         7.08646839E-05
   6.30119991         8.84239489E-05
   6.31320000         1.06639593E-04
   6.32520008         1.25413513E-04
   6.33720016         1.44636288E-04
   6.34919977         1.64187702E-04
   6.36119986         1.83937562E-04
   6.37319994         2.03746720E-04
   6.38520002         2.23468378E-04
   6.39720011         2.42949434E-04
   6.40920019         2.62032088E-04
   6.42119980         2.80555687E-04
   6.43319988         2.98358529E-04
   6.44519997         3.15279787E-04
   6.45720005         3.31161660E-04
   6.46920013         3.45851324E-04
   6.48120022         3.59202939E-04
   6.49319983         3.71079717E-04
   6.50519991         3.81355640E-04
   6.51719999         3.89917404E-04
   6.52920008         3.96665913E-04
   6.54120016         4.01518017E-04
   6.55319977         4.04407387E-04
   6.56519985         4.05285973E-04
   6.57719994         4.04124730E-04
   6.58920002         4.00914316E-04
   6.60120010         3.95665615E-04
   6.61320019         3.88409739E-04
   6.62519979         3.79198202E-04
   6.63719988         3.68102454E-04
   6.64919996         3.55213415E-04
   6.66120005         3.40640690E-04
   6.67320013         3.24511348E-04
   6.68520021         3.06968810E-04
   6.69719982         2.88171170E-04
   6.70919991         2.68289412E-04
   6.72119999         2.47505377E-04
   6.73320007         2.26009637E-04
   6.74520016         2.03998963E-04
   6.75719976         1.81673910E-04
   6.76919985         1.59236137E-04
   6.78119993         1.36885661E-04
   6.79320002         1.14818264E-04
   6.80520010         9.32227194E-05
   6.81720018         7.22782934E-05
   6.82919979         5.21522925E-05
   6.84119987         3.29978284E-05
   6.85319996         1.49518673E-05
   6.86520004        -1.86644979E-06
   6.87720013        -1.73571625E-05
   6.88920021        -3.14404715E-05
   6.90119982        -4.40573276E-05
   6.91319990        -5.51696394E-05
   6.92519999        -6.47600609E-05
   6.93720007        -7.28314189E-05
   6.94920015        -7.94057487E-05
   6.96120024        -8.45230243E-05
   6.97319984        -8.82395543E-05
   6.98519993        -9.06261848E-05
   6.99720001        -9.17662692E-05
   7.00920010        -9.17535290E-05
   7.02120018        -9.06898131E-05
   7.03319979        -8.86829075E-05
   7.04519987        -8.58442800E-05
   7.05719995        -8.22870643E-05
   7.06920004        -7.81240378E-05
   7.08120012        -7.34659334E-05
   7.09320021        -6.84198822E-05
   7.10519981        -6.30881259E-05
   7.11719990        -5.75669910E-05
   7.12919998        -5.19461064E-05
   7.14120007        -4.63078795E-05
   7.15320015        -4.07271909E-05
   7.16520023        -3.52713032E-05
   7.17719984        -2.99999065E-05
   7.18919992        -2.49653312E-05
   7.20120001        -2.02128413E-05
   7.21320009        -1.57809973E-05
   7.22520018        -1.17020290E-05
   7.23719978        -8.00221369E-06
   7.24919987        -4.70222858E-06
   7.26119995        -1.81745929E-06
   7.27320004         6.41749580E-07
   7.28520012         2.66989650E-06
   7.29720020         4.26617180E-06
   7.30919981         5.43434180E-06
   7.32119989         6.18264994E-06
   7.33319998         6.52371591E-06
   7.34520006         6.47441448E-06
   7.35720015         6.05570267E-06
   7.36920023         5.29239423E-06
   7.38119984         4.21285768E-06
   7.39319992         2.84863359E-06
   7.40520000         1.23397217E-06
   7.41720009        -5.94710514E-07
   7.42920017        -2.59943999E-06
   7.44119978        -4.74134049E-06
   7.45319986        -6.98132135E-06
   7.46519995        -9.28076497E-06
   7.47720003        -1.16021938E-05
   7.48920012        -1.39098756E-05
   7.50120020        -1.61703701E-05
   7.51319981        -1.83529610E-05
   7.52519989        -2.04299777E-05
   7.53719997        -2.23770057E-05
   7.54920006        -2.41729467E-05
   7.56120014        -2.57999727E-05
   7.57320023        -2.72433681E-05
   7.58519983        -2.84912567E-05
   7.59719992        -2.95342743E-05
   7.60920000        -3.03651723E-05
   7.62120008        -3.09784191E-05
   7.63320017        -3.13698001E-05
   7.64519978        -3.15360303E-05
   7.65719986        -3.14744648E-05
   7.66919994        -3.11828662E-05
   7.68120003        -3.06592701E-05
   7.69320011        -2.99019630E-05
   7.70520020        -2.89095569E-05
   7.71719980        -2.76811807E-05
   7.72919989        -2.62167632E-05
   7.74119997        -2.45173742E-05
   7.75320005        -2.25856311E-05
   7.76520014        -2.04261305E-05
   7.77720022        -1.80458737E-05
   7.78919983        -1.54546597E-05
   7.80119991        -1.26654350E-05
   7.81320000        -9.69453413E-06
   7.82520008        -6.56184557E-06
   7.83720016        -3.29083900E-06
   7.84919977         9.15241927E-08
   7.86119986         3.55501538E-06
   7.87319994         7.06648552E-06
   7.88520002         1.05903291E-05
   7.89720011         1.40890525E-05
   7.90920019         1.75239202E-05
   7.92119980         2.08556576E-05
   7.93319988         2.40451936E-05
   7.94519997         2.70544115E-05
   7.95720005         2.98468731E-05
   7.96920013         3.23885179E-05
   7.98120022         3.46483030E-05
   7.99319983         3.65987471E-05
   8.00520039         3.82164253E-05
   8.01720047         3.94823437E-05
   8.02919960         4.03822269E-05
   8.04119968         4.09066997E-05
   8.05319977         4.10514294E-05
   8.06519985         4.08171109E-05
   8.07719994         4.02094702E-05
   8.08920002         3.92391084E-05
   8.10120010         3.79213598E-05
   8.11320019         3.62760766E-05
   8.12520027         3.43273568E-05
   8.13720036         3.21032458E-05
   8.14920044         2.96353955E-05
   8.16119957         2.69586690E-05
   8.17319965         2.41107282E-05
   8.18519974         2.11315637E-05
   8.19719982         1.80629668E-05
   8.20919991         1.49479893E-05
   8.22119999         1.18303333E-05
   8.23320007         8.75371643E-06
   8.24520016         5.76120328E-06
   8.25720024         2.89452191E-06
   8.26920033         1.93372060E-07
   8.28120041        -2.30525256E-06
   8.29319954        -4.56771431E-06
   8.30519962        -6.56433076E-06
   8.31719971        -8.26991254E-06
   8.32919979        -9.66421430E-06
   8.34119987        -1.07322876E-05
   8.35319996        -1.14647328E-05
   8.36520004        -1.18578246E-05
   8.37720013        -1.19135193E-05
   8.38920021        -1.16393458E-05
   8.40120029        -1.10481751E-05
   8.41320038        -1.01578862E-05
   8.42520046        -8.99093629E-06
   8.43719959        -7.57385124E-06
   8.44919968        -5.93666027E-06
   8.46119976        -4.11227984E-06
   8.47319984        -2.13587487E-06
   8.48519993        -4.42110419E-08
   8.49720001         2.12498799E-06
   8.50920010         4.33366813E-06
   8.52120018         6.54404130E-06
   8.53320026         8.71915381E-06
   8.54520035         1.08234108E-05
   8.55720043         1.28230631E-05
   8.56919956         1.46866505E-05
   8.58119965         1.63854093E-05
   8.59319973         1.78936371E-05
   8.60519981         1.91890267E-05
   8.61719990         2.02529591E-05
   8.62919998         2.10707803E-05
   8.64120007         2.16320186E-05
   8.65320015         2.19305912E-05
   8.66520023         2.19649446E-05
   8.67720032         2.17381785E-05
   8.68920040         2.12580726E-05
   8.70119953         2.05370816E-05
   8.71319962         1.95922275E-05
   8.72519970         1.84449218E-05
   8.73719978         1.71206957E-05
   8.74919987         1.56488168E-05
   8.76119995         1.40618231E-05
   8.77320004         1.23949467E-05
   8.78520012         1.06854641E-05
   8.79720020         8.97195332E-06
   8.80920029         7.29350540E-06
   8.82120037         5.68888800E-06
   8.83320045         4.19569915E-06
   8.84519958         2.84953148E-06
   8.85719967         1.68317308E-06
   8.86919975         7.25872894E-07
   8.88119984         2.68829292E-09
   8.89319992        -4.66063483E-07
   8.90520000        -6.65236939E-07
   8.91720009        -5.85166390E-07
   8.92920017        -2.21845482E-07
   8.94120026         4.23020481E-07
   8.95320034         1.34207937E-06
   8.96520042         2.52251107E-06
   8.97719955         3.94630251E-06
   8.98919964         5.59061164E-06
   9.00119972         7.42820157E-06
   9.01319981         9.42793758E-06
   9.02519989         1.15553385E-05
   9.03719997         1.37731586E-05
   9.04920006         1.60420241E-05
   9.06120014         1.83210905E-05
   9.07320023         2.05687265E-05
   9.08520031         2.27432338E-05