 -0.300000012       0.00000000    
 -0.298000008       0.00000000    
 -0.296000004       0.00000000    
 -0.294000000       0.00000000    
 -0.291999996       0.00000000    
 -0.289999992       0.00000000    
 -0.287999988       0.00000000    
 -0.286000013       0.00000000    
 -0.284000009       0.00000000    
 -0.282000005       1.04452294E-35
 -0.280000001       1.80632638E-34
 -0.277999997       1.62106750E-33
 -0.275999993       1.00282672E-32
 -0.273999989       4.79240848E-32
 -0.272000015       1.87965238E-31
 -0.270000011       6.27543631E-31
 -0.268000007       1.82537515E-30
 -0.266000003       4.69453850E-30
 -0.263999999       1.07623899E-29
 -0.261999995       2.20334119E-29
 -0.259999990       4.00214020E-29
 -0.257999986       6.31255678E-29
 -0.256000012       8.14221310E-29
 -0.254000008       6.84151404E-29
 -0.252000004      -2.91499367E-29
 -0.250000000      -2.99212524E-28
 -0.247999996      -8.61257671E-28
 -0.246000007      -1.83821135E-27
 -0.244000003      -3.28648004E-27
 -0.241999999      -5.07068851E-27
 -0.239999995      -6.68502301E-27
 -0.238000005      -7.05505425E-27
 -0.236000001      -4.40312806E-27
 -0.233999997       3.68088854E-27
 -0.231999993       1.97737939E-26
 -0.230000004       4.55655611E-26
 -0.228000000       8.01119619E-26
 -0.225999996       1.17505368E-25
 -0.224000007       1.44445337E-25
 -0.222000003       1.38680773E-25
 -0.219999999       6.97973220E-26
 -0.217999995      -9.58654772E-26
 -0.216000006      -3.84546987E-25
 -0.214000002      -7.97977475E-25
 -0.211999997      -1.29117509E-24
 -0.209999993      -1.74944736E-24
 -0.208000004      -1.97260310E-24
 -0.206000000      -1.67785883E-24
 -0.203999996      -5.34780641E-25
 -0.202000007       1.75596533E-24
 -0.200000003       5.33506709E-24
 -0.197999999       1.00164115E-23
 -0.195999995       1.51058217E-23
 -0.194000006       1.92572196E-23
 -0.192000002       2.04382706E-23
 -0.189999998       1.60898326E-23
 -0.187999994       3.55686299E-24
 -0.186000004      -1.91662214E-23
 -0.184000000      -5.24016413E-23
 -0.181999996      -9.35934744E-23
 -0.180000007      -1.36203209E-22
 -0.178000003      -1.69068089E-22
 -0.175999999      -1.76677302E-22
 -0.173999995      -1.40821441E-22
 -0.172000006      -4.39442130E-23
 -0.170000002       1.25759271E-22
 -0.167999998       3.67897211E-22
 -0.165999994       6.63058467E-22
 -0.164000005       9.67183557E-22
 -0.162000000       1.20919598E-21
 -0.159999996       1.29417163E-21
 -0.158000007       1.11405992E-21
 -0.156000003       5.67077193E-22
 -0.153999999      -4.14685043E-22
 -0.151999995      -1.83210085E-21
 -0.150000006      -3.58551413E-21
 -0.148000002      -5.44857448E-21
 -0.145999998      -7.05881361E-21
 -0.143999994      -7.93465005E-21
 -0.142000005      -7.52674177E-21
 -0.140000001      -5.30724776E-21
 -0.137999997      -8.93667779E-22
 -0.136000007       5.80503479E-21
 -0.134000003       1.44421405E-20
 -0.131999999       2.41177222E-20
 -0.129999995       3.33306709E-20
 -0.128000006       4.00348890E-20
 -0.126000002       4.18287206E-20
 -0.123999998       3.62901680E-20
 -0.122000001       2.14456461E-20
 -0.119999997      -3.67142257E-21
 -0.118000001      -3.84490932E-20
 -0.115999997      -8.02189548E-20
 -0.114000000      -1.23996674E-19
 -0.112000003      -1.62566181E-19
 -0.109999999      -1.87008838E-19
 -0.108000003      -1.87727865E-19
 -0.105999999      -1.55942493E-19
 -0.104000002      -8.55310311E-20
 -0.101999998       2.49995840E-20
 -0.100000001       1.70729872E-19
  -9.79999974E-02   3.39102692E-19
  -9.60000008E-02   5.09640141E-19
  -9.39999968E-02   6.54929814E-19
  -9.20000002E-02   7.43079971E-19
  -9.00000036E-02   7.41644399E-19
  -8.79999995E-02   6.22767584E-19
  -8.60000029E-02   3.69026700E-19
  -8.39999989E-02  -2.08062404E-20
  -8.20000023E-02  -5.27043297E-19
  -7.99999982E-02  -1.10643410E-18
  -7.80000016E-02  -1.69254150E-18
  -7.59999976E-02  -2.19982687E-18
  -7.40000010E-02  -2.53170269E-18
  -7.19999969E-02  -2.59224197E-18
  -7.00000003E-02  -2.30058677E-18
  -6.80000037E-02  -1.60647739E-18
  -6.59999996E-02  -5.04804391E-19
  -6.40000030E-02   9.53195065E-19
  -6.19999990E-02   2.65445133E-18
  -5.99999987E-02   4.42626331E-18
  -5.79999983E-02   6.04739379E-18
  -5.60000017E-02   7.26819781E-18
  -5.40000014E-02   7.83863397E-18
  -5.20000011E-02   7.54167282E-18
  -5.00000007E-02   6.22844337E-18
  -4.80000004E-02   3.85057952E-18
  -4.60000001E-02   4.84943009E-19
  -4.39999998E-02  -3.65382386E-18
  -4.19999994E-02  -8.21643796E-18
  -3.99999991E-02  -1.27397362E-17
  -3.79999988E-02  -1.66848566E-17
  -3.59999985E-02  -1.94903555E-17
  -3.40000018E-02  -2.06354713E-17
  -3.20000015E-02  -1.97069345E-17
  -2.99999993E-02  -1.64615245E-17
  -2.80000009E-02  -1.08763257E-17
  -2.60000005E-02  -3.17942316E-18
  -2.40000002E-02   6.14443656E-18
  -2.19999999E-02   1.63761082E-17
  -1.99999996E-02   2.66119488E-17
  -1.79999992E-02   3.58377489E-17
  -1.60000008E-02   4.30201847E-17
  -1.40000004E-02   4.72068038E-17
  -1.20000001E-02   4.76244771E-17
  -9.99999978E-03   4.37659972E-17
  -8.00000038E-03   3.54557999E-17
  -6.00000005E-03   2.28879784E-17
  -4.00000019E-03   6.63280399E-18
  -2.00000009E-03  -1.23885988E-17
   0.00000000      -3.29585648E-17
   2.00000009E-03  -5.36405385E-17
   4.00000019E-03  -7.28726532E-17
   6.00000005E-03  -8.90690084E-17
   8.00000038E-03  -1.00720946E-16
   9.99999978E-03  -1.06491953E-16
   1.20000001E-02  -1.05301700E-16
   1.40000004E-02  -9.63970279E-17
   1.60000008E-02  -7.94098881E-17
   1.79999992E-02  -5.44030369E-17
   1.99999996E-02  -2.19052431E-17
   2.19999999E-02   1.70631776E-17
   2.40000002E-02   6.09751689E-17
   2.60000005E-02   1.07794908E-16
   2.80000009E-02   1.54994469E-16
   2.99999993E-02   1.99596405E-16
   3.20000015E-02   2.38251151E-16
   3.40000018E-02   2.67357718E-16
   3.59999985E-02   2.83234662E-16
   3.79999988E-02   2.82344113E-16
   3.99999991E-02   2.61567162E-16
   4.19999994E-02   2.18520683E-16
   4.39999998E-02   1.51899821E-16
   4.60000001E-02   6.18210901E-17
   4.80000004E-02  -4.98652564E-17
   5.00000007E-02  -1.79330030E-16
   5.20000011E-02  -3.20626085E-16
   5.40000014E-02  -4.65694109E-16
   5.60000017E-02  -6.04546367E-16
   5.79999983E-02  -7.25652332E-16
   5.99999987E-02  -8.16537008E-16
   6.19999990E-02  -8.64584264E-16
   6.40000030E-02  -8.58017853E-16
   6.59999996E-02  -7.87010075E-16
   6.80000037E-02  -6.44847136E-16
   7.00000003E-02  -4.29058690E-16
   7.19999969E-02  -1.42408552E-16
   7.40000010E-02   2.06368076E-16
   7.59999976E-02   6.02188756E-16
   7.80000016E-02   1.02370729E-15
   7.99999982E-02   1.44392722E-15
   8.20000023E-02   1.83137989E-15
   8.39999989E-02   2.15186010E-15
   8.60000029E-02   2.37065485E-15
   8.79999995E-02   2.45515316E-15
   9.00000036E-02   2.37767612E-15
   9.20000002E-02   2.11832013E-15
   9.39999968E-02   1.66758341E-15
   9.60000008E-02   1.02854057E-15
   9.79999974E-02   2.18334124E-16
  0.100000001      -7.31207174E-16
  0.101999998      -1.77396768E-15
  0.104000002      -2.85103053E-15
  0.105999999      -3.89324845E-15
  0.108000003      -4.82480682E-15
  0.109999999      -5.56761998E-15
  0.112000003      -6.04632235E-15
  0.114000000      -6.19357394E-15
  0.115999997      -5.95536244E-15
  0.118000001      -5.29597059E-15
  0.119999997      -4.20229181E-15
  0.122000001      -2.68719593E-15
  0.123999998      -7.91682944E-16
  0.126000002       1.41438483E-15
  0.128000006       3.83313918E-15
  0.129999995       6.34125033E-15
  0.131999999       8.79421200E-15
  0.134000003       1.10323390E-14
  0.136000007       1.28883906E-14
  0.137999997       1.41966203E-14
  0.140000001       1.48029850E-14
  0.142000005       1.45760953E-14
  0.143999994       1.34183919E-14
  0.145999998       1.12769003E-14
  0.148000002       8.15280054E-15
  0.150000006       4.10898181E-15
  0.151999995      -7.25277043E-16
  0.153999999      -6.15332633E-15
  0.156000003      -1.19145450E-14
  0.158000007      -1.76926057E-14
  0.159999996      -2.31287818E-14
  0.162000000      -2.78400790E-14
  0.164000005      -3.14415547E-14
  0.165999994      -3.35717782E-14
  0.167999998      -3.39198714E-14
  0.170000002      -3.22523651E-14
  0.172000006      -2.84377726E-14
  0.173999995      -2.24667629E-14
  0.175999999      -1.44659810E-14
  0.178000003      -4.70374972E-15
  0.180000007       6.41347259E-15
  0.181999996       1.83544704E-14
  0.184000000       3.04863217E-14
  0.186000004       4.21061467E-14
  0.187999994       5.24799117E-14
  0.189999998       6.08859073E-14
  0.192000002       6.66602190E-14
  0.194000006       6.92410471E-14
  0.195999995       6.82089747E-14
  0.197999999       6.33202055E-14
  0.200000003       5.45306970E-14
  0.202000007       4.20091818E-14
  0.203999996       2.61384610E-14
  0.206000000       7.50464500E-15
  0.208000004      -1.31249136E-14
  0.209999993      -3.48336099E-14
  0.211999997      -5.65957092E-14
  0.214000002      -7.73222022E-14
  0.216000006      -9.59102182E-14
  0.217999995      -1.11293394E-13
  0.219999999      -1.22491278E-13
  0.222000003      -1.28655712E-13
  0.224000007      -1.29112934E-13
  0.225999996      -1.23399853E-13
  0.228000000      -1.11294234E-13
  0.230000004      -9.28374809E-14
  0.231999993      -6.83499820E-14
  0.233999997      -3.84381586E-14
  0.236000001      -3.99265116E-15
  0.238000005       3.38231098E-14
  0.239999995       7.35948913E-14
  0.241999999       1.13690971E-13
  0.244000003       1.52307664E-13
  0.246000007       1.87527213E-13
  0.247999996       2.17388228E-13
  0.250000000       2.39967497E-13
  0.252000004       2.53471614E-13
  0.254000008       2.56335047E-13
  0.256000012       2.47321559E-13
  0.257999986       2.25622919E-13
  0.259999990       1.90950053E-13
  0.261999995       1.43609408E-13
  0.263999999       8.45586554E-14
  0.266000003       1.54350155E-14
  0.268000007      -6.14490487E-14
  0.270000011      -1.43146888E-13
  0.272000015      -2.26158027E-13
  0.273999989      -3.06547729E-13
  0.275999993      -3.80103555E-13
  0.277999997      -4.42524408E-13
  0.280000001      -4.89634049E-13
  0.282000005      -5.17609989E-13
  0.284000009      -5.23216019E-13
  0.286000013      -5.04025912E-13
  0.287999988      -4.58624024E-13
  0.289999992      -3.86771181E-13
  0.291999996      -2.89522583E-13
  0.294000000      -1.69287598E-13
  0.296000004      -2.98245180E-14
  0.298000008       1.23834848E-13
  0.300000012       2.85531744E-13
  0.301999986       4.48194650E-13
  0.303999990       6.04115228E-13
  0.305999994       7.45275207E-13
  0.307999998       8.63711067E-13
  0.310000002       9.51901101E-13
  0.312000006       1.00315589E-12
  0.314000010       1.01199583E-12
  0.316000015       9.74494574E-13
  0.317999989       8.88573395E-13
  0.319999993       7.54227735E-13
  0.321999997       5.73674355E-13
  0.324000001       3.51407271E-13
  0.326000005       9.41562502E-14
  0.328000009      -1.89257261E-13
  0.330000013      -4.88163980E-13
  0.331999987      -7.90387558E-13
  0.333999991      -1.08267204E-12
  0.335999995      -1.35118533E-12
  0.338000000      -1.58208006E-12
  0.340000004      -1.76209470E-12
  0.342000008      -1.87917065E-12
  0.344000012      -1.92306240E-12
  0.345999986      -1.88591352E-12
  0.347999990      -1.76277146E-12
  0.349999994      -1.55201720E-12
  0.351999998      -1.25568111E-12
  0.354000002      -8.79626125E-13
  0.356000006      -4.33577030E-13
  0.358000010       6.90135950E-14
  0.360000014       6.11272426E-13
  0.361999989       1.17338268E-12
  0.363999993       1.73322359E-12
  0.365999997       2.26715283E-12
  0.368000001       2.75090757E-12
  0.370000005       3.16059115E-12
  0.372000009       3.47370223E-12
  0.374000013       3.67016617E-12
  0.375999987       3.73331704E-12
  0.377999991       3.65078670E-12
  0.379999995       3.41525159E-12
  0.381999999       3.02500126E-12
  0.384000003       2.48428968E-12
  0.386000007       1.80345192E-12
  0.388000011       9.98764656E-13
  0.389999986       9.20560896E-14
  0.391999990      -8.89930545E-13
  0.393999994      -1.91639564E-12
  0.395999998      -2.95353368E-12
  0.398000002      -3.96573746E-12
  0.400000006      -4.91690369E-12
  0.402000010      -5.77179580E-12
  0.404000014      -6.49740071E-12
  0.405999988      -7.06424069E-12
  0.407999992      -7.44757207E-12
  0.409999996      -7.62843521E-12
  0.412000000      -7.59451963E-12
  0.414000005      -7.34079551E-12
  0.416000009      -6.86989961E-12
  0.418000013      -6.19226545E-12
  0.419999987      -5.32597404E-12
  0.421999991      -4.29634540E-12
  0.423999995      -3.13528066E-12
  0.425999999      -1.88037433E-12
  0.428000003      -5.73829612E-13
  0.430000007       7.38780293E-13
  0.432000011       2.00986580E-12
  0.433999985       3.19123677E-12
  0.435999990       4.23552643E-12
  0.437999994       5.09757687E-12
  0.439999998       5.73572179E-12
  0.442000002       6.11292961E-12
  0.444000006       6.19776322E-12
  0.446000010       5.96511165E-12
  0.448000014       5.39668050E-12
  0.449999988       4.48123092E-12
  0.451999992       3.21454126E-12
  0.453999996       1.59914974E-12
  0.456000000      -3.56145099E-13
  0.458000004      -2.63695836E-12
  0.460000008      -5.22412539E-12
  0.462000012      -8.09458924E-12
  0.463999987      -1.12223026E-11
  0.465999991      -1.45790914E-11
  0.467999995      -1.81353942E-11
  0.469999999      -2.18608031E-11
  0.472000003      -2.57243931E-11
  0.474000007      -2.96947501E-11
  0.476000011      -3.37396430E-11
  0.477999985      -3.78253436E-11
  0.479999989      -4.19155786E-11
  0.481999993      -4.59700680E-11
  0.483999997      -4.99426993E-11
  0.486000001      -5.37793803E-11
  0.488000005      -5.74155619E-11
  0.490000010      -6.07735806E-11
  0.492000014      -6.37597891E-11
  0.493999988      -6.62616698E-11
  0.495999992      -6.81449133E-11
  0.497999996      -6.92507232E-11
  0.500000000      -6.93932897E-11
  0.501999974      -6.83576321E-11
  0.504000008      -6.58979885E-11
  0.505999982      -6.17366436E-11
  0.508000016      -5.55636682E-11
  0.509999990      -4.70371762E-11
  0.512000024      -3.57847120E-11
  0.513999999      -2.14053792E-11
  0.515999973      -3.47335789E-12
  0.518000007       1.84577596E-11
  0.519999981       4.48493256E-11
  0.522000015       7.61703617E-11
  0.523999989       1.12889226E-10
  0.526000023       1.55463808E-10
  0.527999997       2.04329831E-10
  0.529999971       2.59887833E-10
  0.532000005       3.22487897E-10
  0.533999979       3.92412991E-10
  0.536000013       4.69860428E-10
  0.537999988       5.54921054E-10
  0.540000021       6.47557064E-10
  0.541999996       7.47577278E-10
  0.544000030       8.54611160E-10
  0.546000004       9.68081060E-10
  0.547999978       1.08717357E-09
  0.550000012       1.21080912E-09
  0.551999986       1.33761058E-09
  0.554000020       1.46587376E-09
  0.555999994       1.59353630E-09
  0.558000028       1.71814885E-09
  0.560000002       1.83684801E-09
  0.561999977       1.94633398E-09
  0.564000010       2.04284989E-09
  0.565999985       2.12217022E-09
  0.568000019       2.17959251E-09
  0.569999993       2.20994201E-09
  0.572000027       2.20758345E-09
  0.574000001       2.16644747E-09
  0.575999975       2.08007078E-09
  0.578000009       1.94164951E-09
  0.579999983       1.74411652E-09
  0.582000017       1.48023260E-09
  0.583999991       1.14270404E-09
  0.586000025       7.24320215E-10
  0.588000000       2.18118218E-10
  0.589999974      -3.82427257E-10
  0.592000008      -1.08318909E-09
  0.593999982      -1.88914151E-09
  0.596000016      -2.80409296E-09
  0.597999990      -3.83038889E-09
  0.600000024      -4.96859442E-09
  0.601999998      -6.21714946E-09
  0.603999972      -7.57201146E-09
  0.606000006      -9.02628283E-09
  0.607999980      -1.05698295E-08
  0.610000014      -1.21888899E-08
  0.611999989      -1.38656997E-08
  0.614000022      -1.55781237E-08
  0.615999997      -1.72993069E-08
  0.617999971      -1.89973619E-08
  0.620000005      -2.06351025E-08
  0.621999979      -2.21698269E-08
  0.624000013      -2.35531701E-08
  0.625999987      -2.47310421E-08
  0.628000021      -2.56436579E-08
  0.629999995      -2.62256670E-08
  0.632000029      -2.64064415E-08
  0.634000003      -2.61104400E-08
  0.635999978      -2.52577710E-08
  0.638000011      -2.37648923E-08
  0.639999986      -2.15454765E-08
  0.642000020      -1.85114644E-08
  0.643999994      -1.45743062E-08
  0.646000028      -9.64636016E-09
  0.648000002      -3.64250452E-09
  0.649999976       3.51806473E-09
  0.652000010       1.19098935E-08
  0.653999984       2.15991136E-08
  0.656000018       3.26411715E-08
  0.657999992       4.50783872E-08
  0.660000026       5.89374878E-08
  0.662000000       7.42269322E-08
  0.663999975       9.09342788E-08
  0.666000009       1.09023553E-07
  0.667999983       1.28432603E-07
  0.670000017       1.49070587E-07
  0.671999991       1.70815511E-07
  0.674000025       1.93512079E-07
  0.675999999       2.16969624E-07
  0.677999973       2.40960560E-07
  0.680000007       2.65219171E-07
  0.681999981       2.89440521E-07
  0.684000015       3.13280310E-07
  0.685999990       3.36355157E-07
  0.688000023       3.58243312E-07
  0.689999998       3.78486277E-07
  0.691999972       3.96591048E-07
  0.694000006       4.12033387E-07
  0.695999980       4.24261543E-07
  0.698000014       4.32701057E-07
  0.699999988       4.36760558E-07
  0.702000022       4.35838160E-07
  0.703999996       4.29329106E-07
  0.705999970       4.16633952E-07
  0.708000004       3.97167895E-07
  0.709999979       3.70370827E-07
  0.712000012       3.35717914E-07
  0.713999987       2.92731244E-07
  0.716000021       2.40991938E-07
  0.717999995       1.80152412E-07
  0.720000029       1.09949490E-07
  0.722000003       3.02174890E-08
  0.723999977      -5.90985039E-08
  0.726000011      -1.57929676E-07
  0.727999985      -2.66070515E-07
  0.730000019      -3.83166679E-07
  0.731999993      -5.08703010E-07
  0.734000027      -6.41993097E-07
  0.736000001      -7.82169366E-07
  0.737999976      -9.28174643E-07
  0.740000010      -1.07875542E-06
  0.741999984      -1.23245707E-06
  0.744000018      -1.38761993E-06
  0.745999992      -1.54237898E-06
  0.748000026      -1.69466500E-06
  0.750000000      -1.84220812E-06
  0.751999974      -1.98254452E-06
  0.754000008      -2.11302586E-06
  0.755999982      -2.23083134E-06
  0.758000016      -2.33298260E-06
  0.759999990      -2.41636167E-06
  0.762000024      -2.47773278E-06
  0.763999999      -2.51376582E-06
  0.765999973      -2.52106338E-06
  0.768000007      -2.49619029E-06
  0.769999981      -2.43570685E-06
  0.772000015      -2.33620358E-06
  0.773999989      -2.19433809E-06
  0.776000023      -2.00687418E-06
  0.777999997      -1.77072332E-06
  0.779999971      -1.48298716E-06
  0.782000005      -1.14100044E-06
  0.783999979      -7.42375335E-07
  0.786000013      -2.85044734E-07
  0.787999988       2.32692543E-07
  0.790000021       8.12128576E-07
  0.791999996       1.45410525E-06
  0.794000030       2.15897444E-06
  0.796000004       2.92655727E-06
  0.797999978       3.75611125E-06
  0.800000012       4.64629829E-06
  0.801999986       5.59515365E-06
  0.804000020       6.60006253E-06
  0.805999994       7.65774348E-06
  0.808000028       8.76422928E-06
  0.810000002       9.91485831E-06
  0.811999977       1.11042746E-05
  0.814000010       1.23264244E-05
  0.815999985       1.35745713E-05
  0.818000019       1.48413037E-05
  0.819999993       1.61185617E-05
  0.822000027       1.73976659E-05
  0.824000001       1.86693433E-05
  0.825999975       1.99237857E-05
  0.828000009       2.11506795E-05
  0.829999983       2.23392690E-05
  0.832000017       2.34784147E-05
  0.833999991       2.45566607E-05
  0.836000025       2.55622981E-05
  0.838000000       2.64834525E-05
  0.839999974       2.73081514E-05
  0.842000008       2.80244167E-05
  0.843999982       2.86203485E-05
  0.846000016       2.90842145E-05
  0.847999990       2.94045312E-05
  0.850000024       2.95701739E-05
  0.851999998       2.95704522E-05
  0.853999972       2.93952089E-05
  0.856000006       2.90349108E-05
  0.857999980       2.84807320E-05
  0.860000014       2.77246418E-05
  0.861999989       2.67594878E-05
  0.864000022       2.55790674E-05
  0.865999997       2.41782054E-05
  0.867999971       2.25528202E-05
  0.870000005       2.06999775E-05
  0.871999979       1.86179514E-05
  0.874000013       1.63062650E-05
  0.875999987       1.37657271E-05
  0.878000021       1.09984676E-05
  0.879999995       8.00795169E-06
  0.882000029       4.79899245E-06
  0.884000003       1.37776033E-06
  0.885999978      -2.24823361E-06
  0.888000011      -6.07014499E-06
  0.889999986      -1.00778225E-05
  0.892000020      -1.42598456E-05
  0.893999994      -1.86035595E-05
  0.896000028      -2.30951355E-05
  0.898000002      -2.77196250E-05
  0.899999976      -3.24610119E-05
  0.902000010      -3.73023249E-05
  0.903999984      -4.22256708E-05
  0.906000018      -4.72123575E-05
  0.907999992      -5.22429727E-05
  0.910000026      -5.72974786E-05
  0.912000000      -6.23553206E-05
  0.913999975      -6.73955146E-05
  0.916000009      -7.23967823E-05
  0.917999983      -7.73376378E-05
  0.920000017      -8.21964932E-05
  0.921999991      -8.69517899E-05
  0.924000025      -9.15820856E-05
  0.925999999      -9.60662146E-05
  0.927999973      -1.00383295E-04
  0.930000007      -1.04512954E-04
  0.931999981      -1.08435313E-04
  0.934000015      -1.12131194E-04
  0.935999990      -1.15582116E-04
  0.938000023      -1.18770426E-04
  0.939999998      -1.21679412E-04
  0.941999972      -1.24293307E-04
  0.944000006      -1.26597413E-04
  0.945999980      -1.28578162E-04
  0.948000014      -1.30223110E-04
  0.949999988      -1.31521083E-04
  0.952000022      -1.32462126E-04
  0.953999996      -1.33037625E-04
  0.955999970      -1.33240232E-04
  0.958000004      -1.33063993E-04
  0.959999979      -1.32504269E-04
  0.962000012      -1.31557827E-04
  0.963999987      -1.30222761E-04
  0.966000021      -1.28498548E-04
  0.967999995      -1.26385974E-04
  0.970000029      -1.23887163E-04
  0.972000003      -1.21005549E-04
  0.973999977      -1.17745833E-04
  0.976000011      -1.14113944E-04
  0.977999985      -1.10117013E-04
  0.980000019      -1.05763327E-04
  0.981999993      -1.01062316E-04
  0.984000027      -9.60244724E-05
  0.986000001      -9.06613059E-05
  0.987999976      -8.49853168E-05
  0.990000010      -7.90099512E-05
  0.991999984      -7.27495499E-05
  0.994000018      -6.62192688E-05
  0.995999992      -5.94350895E-05
  0.998000026      -5.24137322E-05
   1.00000000      -4.51726337E-05
   1.00199997      -3.77299039E-05
   1.00399995      -3.01042946E-05
   1.00600004      -2.23151492E-05
   1.00800002      -1.43824009E-05
   1.00999999      -6.32652336E-06
   1.01199996       1.83149052E-06
   1.01400006       1.00701436E-05
   1.01600003       1.83674529E-05
   1.01800001       2.67009600E-05
   1.01999998       3.50477421E-05
   1.02199996       4.33844398E-05
   1.02400005       5.16872351E-05
   1.02600002       5.99318810E-05
   1.02800000       6.80937010E-05
   1.02999997       7.61475821E-05
   1.03199995       8.40679859E-05
   1.03400004       9.18289661E-05
   1.03600001       9.94041766E-05
   1.03799999       1.06766842E-04
   1.03999996       1.13889837E-04
   1.04200006       1.20745666E-04
   1.04400003       1.27306499E-04
   1.04600000       1.33544221E-04
   1.04799998       1.39430471E-04
   1.04999995       1.44936639E-04
   1.05200005       1.50034044E-04
   1.05400002       1.54693917E-04
   1.05599999       1.58887517E-04
   1.05799997       1.62586235E-04
   1.05999994       1.65761725E-04
   1.06200004       1.68385974E-04
   1.06400001       1.70431536E-04
   1.06599998       1.71871652E-04
   1.06799996       1.72680375E-04
   1.07000005       1.72832850E-04
   1.07200003       1.72305430E-04
   1.07400000       1.71076055E-04
   1.07599998       1.69124251E-04
   1.07799995       1.66431608E-04
   1.08000004       1.62981902E-04
   1.08200002       1.58761468E-04
   1.08399999       1.53759378E-04
   1.08599997       1.47967818E-04
   1.08800006       1.41382392E-04
   1.09000003       1.34002345E-04
   1.09200001       1.25830920E-04
   1.09399998       1.16875693E-04
   1.09599996       1.07148793E-04
   1.09800005       9.66672524E-05
   1.10000002       8.54532336E-05
   1.10200000       7.35343347E-05
   1.10399997       6.09437921E-05
   1.10599995       4.77207432E-05
   1.10800004       3.39104008E-05
   1.11000001       1.95641933E-05
   1.11199999       4.73994942E-06
   1.11399996      -1.04980591E-05
   1.11600006      -2.60790221E-05
   1.11800003      -4.19256248E-05
   1.12000000      -5.79540538E-05
   1.12199998      -7.40741016E-05
   1.12399995      -9.01893218E-05
   1.12600005      -1.06197222E-04
   1.12800002      -1.21989520E-04
   1.13000000      -1.37452458E-04
   1.13199997      -1.52467241E-04
   1.13399994      -1.66910409E-04
   1.13600004      -1.80654402E-04
   1.13800001      -1.93568121E-04
   1.13999999      -2.05517499E-04
   1.14199996      -2.16366330E-04
   1.14400005      -2.25976910E-04
   1.14600003      -2.34210907E-04
   1.14800000      -2.40930167E-04
   1.14999998      -2.45997711E-04
   1.15199995      -2.49278615E-04
   1.15400004      -2.50641082E-04
   1.15600002      -2.49957462E-04
   1.15799999      -2.47105258E-04
   1.15999997      -2.41968286E-04
   1.16199994      -2.34437670E-04
   1.16400003      -2.24413132E-04
   1.16600001      -2.11803912E-04
   1.16799998      -1.96529974E-04
   1.16999996      -1.78522969E-04
   1.17200005      -1.57727467E-04
   1.17400002      -1.34101821E-04
   1.17600000      -1.07619184E-04
   1.17799997      -7.82684074E-05
   1.17999995      -4.60548908E-05
   1.18200004      -1.10014398E-05
   1.18400002       2.68511594E-05
   1.18599999       6.74435069E-05
   1.18799996       1.10697118E-04
   1.19000006       1.56513910E-04
   1.19200003       2.04776035E-04
   1.19400001       2.55345687E-04
   1.19599998       3.08065064E-04
   1.19799995       3.62756487E-04
   1.20000005       4.19222662E-04
   1.20200002       4.77247027E-04
   1.20400000       5.36594307E-04
   1.20599997       5.97011065E-04
   1.20799994       6.58226723E-04
   1.21000004       7.19954434E-04
   1.21200001       7.81891984E-04
   1.21399999       8.43723246E-04
   1.21599996       9.05119698E-04
   1.21800005       9.65741696E-04
   1.22000003       1.02524005E-03
   1.22200000       1.08325796E-03
   1.22399998       1.13943266E-03
   1.22599995       1.19339779E-03
   1.22800004       1.24478526E-03
   1.23000002       1.29322684E-03
   1.23199999       1.33835734E-03
   1.23399997       1.37981609E-03
   1.23599994       1.41724956E-03
   1.23800004       1.45031349E-03
   1.24000001       1.47867564E-03
   1.24199998       1.50201772E-03
   1.24399996       1.52003753E-03
   1.24600005       1.53245195E-03
   1.24800003       1.53899810E-03
   1.25000000       1.53943652E-03
   1.25199997       1.53355254E-03
   1.25399995       1.52115873E-03
   1.25600004       1.50209619E-03
   1.25800002       1.47623674E-03
   1.25999999       1.44348410E-03
   1.26199996       1.40377553E-03
   1.26400006       1.35708309E-03
   1.26600003       1.30341446E-03
   1.26800001       1.24281412E-03
   1.26999998       1.17536355E-03
   1.27199996       1.10118219E-03
   1.27400005       1.02042709E-03
   1.27600002       9.33293253E-04
   1.27800000       8.40013323E-04
   1.27999997       7.40857213E-04
   1.28199995       6.36131037E-04
   1.28400004       5.26176358E-04
   1.28600001       4.11369198E-04
   1.28799999       2.92118406E-04
   1.28999996       1.68863844E-04
   1.29200006       4.20747529E-05
   1.29400003      -8.77522907E-05
   1.29600000      -2.20095826E-04
   1.29799998      -3.54411866E-04
   1.29999995      -4.90136328E-04
   1.30200005      -6.26688416E-04
   1.30400002      -7.63473101E-04
   1.30599999      -8.99884151E-04
   1.30799997      -1.03530765E-03
   1.30999994      -1.16912497E-03
   1.31200004      -1.30071677E-03
   1.31400001      -1.42946513E-03
   1.31599998      -1.55475852E-03
   1.31799996      -1.67599437E-03
   1.32000005      -1.79258268E-03
   1.32200003      -1.90394931E-03
   1.32400000      -2.00954010E-03
   1.32599998      -2.10882281E-03
   1.32799995      -2.20129173E-03
   1.33000004      -2.28646980E-03
   1.33200002      -2.36391230E-03
   1.33399999      -2.43320875E-03
   1.33599997      -2.49398616E-03
   1.33800006      -2.54591159E-03
   1.34000003      -2.58869329E-03
   1.34200001      -2.62208423E-03
   1.34399998      -2.64588255E-03
   1.34599996      -2.65993364E-03
   1.34800005      -2.66413088E-03
   1.35000002      -2.65841675E-03
   1.35200000      -2.64278427E-03
   1.35399997      -2.61727627E-03
   1.35599995      -2.58198543E-03
   1.35800004      -2.53705494E-03
   1.36000001      -2.48267758E-03
   1.36199999      -2.41909409E-03
   1.36399996      -2.34659365E-03
   1.36600006      -2.26551061E-03
   1.36800003      -2.17622425E-03
   1.37000000      -2.07915576E-03
   1.37199998      -1.97476754E-03
   1.37399995      -1.86355854E-03
   1.37600005      -1.74606359E-03
   1.37800002      -1.62284914E-03
   1.38000000      -1.49451068E-03
   1.38199997      -1.36166997E-03
   1.38399994      -1.22497045E-03
   1.38600004      -1.08507450E-03
   1.38800001      -9.42659331E-04
   1.38999999      -7.98413414E-04
   1.39199996      -6.53032621E-04
   1.39400005      -5.07216260E-04
   1.39600003      -3.61663027E-04
   1.39800000      -2.17067412E-04
   1.39999998      -7.41153999E-05
   1.40199995       6.65189291E-05
   1.40400004       2.04177501E-04
   1.40600002       3.38221696E-04
   1.40799999       4.68035840E-04
   1.40999997       5.93030942E-04
   1.41199994       7.12647452E-04