 -0.300000012       0.00000000    
 -0.298000008       0.00000000    
 -0.296000004       0.00000000    
 -0.294000000       0.00000000    
 -0.291999996      -1.04120568E-23
 -0.289999992      -8.11115934E-23
 -0.287999988      -3.37292285E-22
 -0.286000013      -9.82484479E-22
 -0.284000009      -2.21611905E-21
 -0.282000005      -4.03763255E-21
 -0.280000001      -5.97803550E-21
 -0.277999997      -6.89192831E-21
 -0.275999993      -5.00977455E-21
 -0.273999989       1.56720838E-21
 -0.272000015       1.38893125E-20
 -0.270000011       3.09153875E-20
 -0.268000007       4.85192482E-20
 -0.266000003       5.94602175E-20
 -0.263999999       5.49810668E-20
 -0.261999995       2.82829175E-20
 -0.259999990      -2.06413616E-20
 -0.257999986      -8.02866091E-20
 -0.256000012      -1.25304292E-19
 -0.254000008      -1.19071344E-19
 -0.252000004      -2.29545900E-20
 -0.250000000       1.87765462E-19
 -0.247999996       5.04095239E-19
 -0.246000007       8.65463927E-19
 -0.244000003       1.15189171E-18
 -0.241999999       1.19465405E-18
 -0.239999995       8.11358715E-19
 -0.238000005      -1.34492381E-19
 -0.236000001      -1.65794891E-18
 -0.233999997      -3.57911869E-18
 -0.231999993      -5.47760532E-18
 -0.230000004      -6.70361230E-18
 -0.228000000      -6.46937089E-18
 -0.225999996      -4.02995033E-18
 -0.224000007       1.06096067E-18
 -0.222000003       8.66360436E-18
 -0.219999999       1.78042653E-17
 -0.217999995       2.65567791E-17
 -0.216000006       3.21439177E-17
 -0.214000002       3.13249328E-17
 -0.211999997       2.10841655E-17
 -0.209999993      -4.39268681E-19
 -0.208000004      -3.29274231E-17
 -0.206000000      -7.29925745E-17
 -0.203999996      -1.13699403E-16
 -0.202000007      -1.44781198E-16
 -0.200000003      -1.53764789E-16
 -0.197999999      -1.28076901E-16
 -0.195999995      -5.79994362E-17
 -0.194000006       5.99031957E-17
 -0.192000002       2.19497590E-16
 -0.189999998       4.02724038E-16
 -0.187999994       5.79011712E-16
 -0.186000004       7.07198554E-16
 -0.184000000       7.40384246E-16
 -0.181999996       6.33660424E-16
 -0.180000007       3.54047569E-16
 -0.178000003      -1.08691380E-16
 -0.175999999      -7.32258236E-16
 -0.173999995      -1.45530192E-15
 -0.172000006      -2.17642808E-15
 -0.170000002      -2.76055513E-15
 -0.167999998      -3.05352519E-15
 -0.165999994      -2.90457338E-15
 -0.164000005      -2.19467486E-15
 -0.162000000      -8.67194820E-16
 -0.159999996       1.04406827E-15
 -0.158000007       3.39512489E-15
 -0.156000003       5.92591873E-15
 -0.153999999       8.27283612E-15
 -0.151999995       1.00019582E-14
 -0.150000006       1.06623999E-14
 -0.148000002       9.85547822E-15
 -0.145999998       7.31186792E-15
 -0.143999994       2.96584097E-15
 -0.142000005      -2.98612487E-15
 -0.140000001      -1.00551510E-14
 -0.137999997      -1.74689381E-14
 -0.136000007      -2.42264891E-14
 -0.134000003      -2.91991230E-14
 -0.131999999      -3.12711147E-14
 -0.129999995      -2.95058540E-14
 -0.128000006      -2.33170230E-14
 -0.126000002      -1.26199312E-14
 -0.123999998       2.06293456E-15
 -0.122000001       1.95653057E-14
 -0.119999997       3.81259558E-14
 -0.118000001       5.55290846E-14
 -0.115999997       6.93298297E-14
 -0.114000000       7.71449961E-14
 -0.112000003       7.69769583E-14
 -0.109999999       6.75298101E-14
 -0.108000003       4.84728868E-14
 -0.105999999       2.06091536E-14
 -0.104000002      -1.40850957E-14
 -0.101999998      -5.25682979E-14
 -0.100000001      -9.09893092E-14
  -9.79999974E-02  -1.25070215E-13
  -9.60000008E-02  -1.50575895E-13
  -9.39999968E-02  -1.63815427E-13
  -9.20000002E-02  -1.62111440E-13
  -9.00000036E-02  -1.44174711E-13
  -8.79999995E-02  -1.10330236E-13
  -8.60000029E-02  -6.25593937E-14
  -8.39999989E-02  -4.34663343E-15
  -8.20000023E-02   5.96540029E-14
  -7.99999982E-02   1.24091885E-13
  -7.80000016E-02   1.83471402E-13
  -7.59999976E-02   2.32709441E-13
  -7.40000010E-02   2.67625277E-13
  -7.19999969E-02   2.85299860E-13
  -7.00000003E-02   2.84260977E-13
  -6.80000037E-02   2.64479492E-13
  -6.59999996E-02   2.27189971E-13
  -6.40000030E-02   1.74577678E-13
  -6.19999990E-02   1.09395186E-13
  -5.99999987E-02   3.45813262E-14
  -5.79999983E-02  -4.70459853E-14
  -5.60000017E-02  -1.32966460E-13
  -5.40000014E-02  -2.20971570E-13
  -5.20000011E-02  -3.09015454E-13
  -5.00000007E-02  -3.94934113E-13
  -4.80000004E-02  -4.76092581E-13
  -4.60000001E-02  -5.49038245E-13
  -4.39999998E-02  -6.09244968E-13
  -4.19999994E-02  -6.51024807E-13
  -3.99999991E-02  -6.67662811E-13
  -3.79999988E-02  -6.51798494E-13
  -3.59999985E-02  -5.96042801E-13
  -3.40000018E-02  -4.93782315E-13
  -3.20000015E-02  -3.40092429E-13
  -2.99999993E-02  -1.32663506E-13
  -2.80000009E-02   1.27364766E-13
  -2.60000005E-02   4.34755612E-13
  -2.40000002E-02   7.79792138E-13
  -2.19999999E-02   1.14820902E-12
  -1.99999996E-02   1.52146091E-12
  -1.79999992E-02   1.87732056E-12
  -1.60000008E-02   2.19077599E-12
  -1.40000004E-02   2.43518855E-12
  -1.20000001E-02   2.58365551E-12
  -9.99999978E-03   2.61053787E-12
  -8.00000038E-03   2.49310078E-12
  -6.00000005E-03   2.21322895E-12
  -4.00000019E-03   1.75916714E-12
  -2.00000009E-03   1.12723199E-12
   0.00000000       3.23418240E-13
   2.00000009E-03  -6.35196485E-13
   4.00000019E-03  -1.71937757E-12
   6.00000005E-03  -2.88712825E-12
   8.00000038E-03  -4.08370560E-12
   9.99999978E-03  -5.24239636E-12
   1.20000001E-02  -6.28616820E-12
   1.40000004E-02  -7.13023130E-12
   1.60000008E-02  -7.68551542E-12
   1.79999992E-02  -7.86292472E-12
   1.99999996E-02  -7.57821236E-12
   2.19999999E-02  -6.75716774E-12
   2.40000002E-02  -5.34081199E-12
   2.60000005E-02  -3.29022356E-12
   2.80000009E-02  -5.90644341E-13
   2.99999993E-02   2.74545989E-12
   3.20000015E-02   6.67662410E-12
   3.40000018E-02   1.11320779E-11
   3.59999985E-02   1.60129375E-11
   3.79999988E-02   2.11948844E-11
   3.99999991E-02   2.65321723E-11
   4.19999994E-02   3.18627867E-11
   4.39999998E-02   3.70144783E-11
   4.60000001E-02   4.18114640E-11
   4.80000004E-02   4.60814963E-11
   5.00000007E-02   4.96630619E-11
   5.20000011E-02   5.24125465E-11
   5.40000014E-02   5.42111495E-11
   5.60000017E-02   5.49713920E-11
   5.79999983E-02   5.46430956E-11
   5.99999987E-02   5.32186101E-11
   6.19999990E-02   5.07372235E-11
   6.40000030E-02   4.72884856E-11
   6.59999996E-02   4.30143525E-11
   6.80000037E-02   3.81098902E-11
   7.00000003E-02   3.28224566E-11
   7.19999969E-02   2.74491731E-11
   7.40000010E-02   2.23326618E-11
   7.59999976E-02   1.78549710E-11
   7.80000016E-02   1.44297725E-11
   7.99999982E-02   1.24928956E-11
   8.20000023E-02   1.24912580E-11
   8.39999989E-02   1.48704694E-11
   8.60000029E-02   2.00612339E-11
   8.79999995E-02   2.84645918E-11
   9.00000036E-02   4.04364736E-11
   9.20000002E-02   5.62714805E-11
   9.39999968E-02   7.61863211E-11
   9.60000008E-02   1.00303071E-10
   9.79999974E-02   1.28632646E-10
  0.100000001       1.61058875E-10
  0.101999998       1.97323602E-10
  0.104000002       2.37013298E-10
  0.105999999       2.79547968E-10
  0.108000003       3.24172550E-10
  0.109999999       3.69951514E-10
  0.112000003       4.15767115E-10
  0.114000000       4.60321281E-10
  0.115999997       5.02141273E-10
  0.118000001       5.39589429E-10
  0.119999997       5.70875791E-10
  0.122000001       5.94074179E-10
  0.123999998       6.07139838E-10
  0.126000002       6.07929540E-10
  0.128000006       5.94221339E-10
  0.129999995       5.63735614E-10
  0.131999999       5.14154996E-10
  0.134000003       4.43143883E-10
  0.136000007       3.48366391E-10
  0.137999997       2.27504932E-10
  0.140000001       7.82759899E-11
  0.142000005      -1.01552475E-10
  0.143999994      -3.14142823E-10
  0.145999998      -5.61568347E-10
  0.148000002      -8.45790549E-10
  0.150000006      -1.16863075E-09
  0.151999995      -1.53173774E-09
  0.153999999      -1.93654515E-09
  0.156000003      -2.38422171E-09
  0.158000007      -2.87560775E-09
  0.159999996      -3.41114248E-09
  0.162000000      -3.99077482E-09
  0.164000005      -4.61386129E-09
  0.165999994      -5.27904831E-09
  0.167999998      -5.98413585E-09
  0.170000002      -6.72593226E-09
  0.172000006      -7.50008766E-09
  0.173999995      -8.30091906E-09
  0.175999999      -9.12122111E-09
  0.178000003      -9.95207294E-09
  0.180000007      -1.07826335E-08
  0.181999996      -1.15999397E-08
  0.184000000      -1.23887105E-08
  0.186000004      -1.31311548E-08
  0.187999994      -1.38068010E-08
  0.189999998      -1.43923442E-08
  0.192000002      -1.48615333E-08
  0.194000006      -1.51850923E-08
  0.195999995      -1.53306985E-08
  0.197999999      -1.52630228E-08
  0.200000003      -1.49438470E-08
  0.202000007      -1.43322616E-08
  0.203999996      -1.33849758E-08
  0.206000000      -1.20567272E-08
  0.208000004      -1.03008224E-08
  0.209999993      -8.06981326E-09
  0.211999997      -5.31630562E-09
  0.214000002      -1.99394834E-09
  0.216000006       1.94145144E-09
  0.217999995       6.53061738E-09
  0.219999999       1.18093517E-08
  0.222000003       1.78068795E-08
  0.224000007       2.45440770E-08
  0.225999996       3.20315010E-08
  0.228000000       4.02672669E-08
  0.230000004       4.92348597E-08
  0.231999993       5.89007314E-08
  0.233999997       6.92119286E-08
  0.236000001       8.00935354E-08
  0.238000005       9.14461893E-08
  0.239999995       1.03143620E-07
  0.241999999       1.15030183E-07
  0.244000003       1.26918650E-07
  0.246000007       1.38588049E-07
  0.247999996       1.49781854E-07
  0.250000000       1.60206511E-07
  0.252000004       1.69530281E-07
  0.254000008       1.77382660E-07
  0.256000012       1.83354345E-07
  0.257999986       1.86997809E-07
  0.259999990       1.87828661E-07
  0.261999995       1.85327778E-07
  0.263999999       1.78944390E-07
  0.266000003       1.68100016E-07
  0.268000007       1.52193564E-07
  0.270000011       1.30607518E-07
  0.272000015       1.02715113E-07
  0.273999989       6.78888981E-08
  0.275999993       2.55105181E-08
  0.277999997      -2.50186734E-08
  0.280000001      -8.42653023E-08
  0.282000005      -1.52750843E-07
  0.284000009      -2.30937204E-07
  0.286000013      -3.19211580E-07
  0.287999988      -4.17870268E-07
  0.289999992      -5.27101690E-07
  0.291999996      -6.46969056E-07
  0.294000000      -7.77392586E-07
  0.296000004      -9.18131491E-07
  0.298000008      -1.06876723E-06
  0.300000012      -1.22868528E-06
  0.301999986      -1.39705969E-06
  0.303999990      -1.57283750E-06
  0.305999994      -1.75472587E-06
  0.307999998      -1.94117956E-06
  0.310000002      -2.13039311E-06
  0.312000006      -2.32029379E-06
  0.314000010      -2.50853782E-06
  0.316000015      -2.69251245E-06
  0.317999989      -2.86933937E-06
  0.319999993      -3.03588422E-06
  0.321999997      -3.18877028E-06
  0.324000001      -3.32439754E-06
  0.326000005      -3.43896727E-06
  0.328000009      -3.52851157E-06
  0.330000013      -3.58892953E-06
  0.331999987      -3.61602952E-06
  0.333999991      -3.60557601E-06
  0.335999995      -3.55334373E-06
  0.338000000      -3.45517742E-06
  0.340000004      -3.30705575E-06
  0.342000008      -3.10516202E-06
  0.344000012      -2.84595922E-06
  0.345999986      -2.52626819E-06
  0.347999990      -2.14335068E-06
  0.349999994      -1.69499401E-06
  0.351999998      -1.17959871E-06
  0.354000002      -5.96266773E-07
  0.356000006       5.51109274E-08
  0.358000010       7.73767113E-07
  0.360000014       1.55797420E-06
  0.361999989       2.40496297E-06
  0.363999993       3.31084607E-06
  0.365999997       4.27055056E-06
  0.368000001       5.27775228E-06
  0.370000005       6.32482488E-06
  0.372000009       7.40279711E-06
  0.374000013       8.50131983E-06
  0.375999987       9.60864872E-06
  0.377999991       1.07116375E-05
  0.379999995       1.17957516E-05
  0.381999999       1.28450883E-05
  0.384000003       1.38424220E-05
  0.386000007       1.47692681E-05
  0.388000011       1.56059523E-05
  0.389999986       1.63317109E-05
  0.391999990       1.69247996E-05
  0.393999994       1.73626340E-05
  0.395999998       1.76219255E-05
  0.398000002       1.76788581E-05
  0.400000006       1.75092609E-05
  0.402000010       1.70888125E-05
  0.404000014       1.63932436E-05
  0.405999988       1.53985675E-05
  0.407999992       1.40813117E-05
  0.409999996       1.24187618E-05
  0.412000000       1.03892035E-05
  0.414000005       7.97218763E-06
  0.416000009       5.14878093E-06
  0.418000013       1.90182300E-06
  0.419999987      -1.78382550E-06
  0.421999991      -5.92101514E-06
  0.423999995      -1.05201034E-05
  0.425999999      -1.55886864E-05
  0.428000003      -2.11314036E-05
  0.430000007      -2.71497283E-05
  0.432000011      -3.36417907E-05
  0.433999985      -4.06022227E-05
  0.435999990      -4.80219824E-05
  0.437999994      -5.58882966E-05
  0.439999998      -6.41845400E-05
  0.442000002      -7.28901359E-05
  0.444000006      -8.19806228E-05
  0.446000010      -9.14275661E-05
  0.448000014      -1.01198646E-04
  0.449999988      -1.11257672E-04
  0.451999992      -1.21564743E-04
  0.453999996      -1.32076326E-04
  0.456000000      -1.42745412E-04
  0.458000004      -1.53521774E-04
  0.460000008      -1.64352081E-04
  0.462000012      -1.75180234E-04
  0.463999987      -1.85947632E-04
  0.465999991      -1.96593392E-04
  0.467999995      -2.07054836E-04
  0.469999999      -2.17267690E-04
  0.472000003      -2.27166471E-04
  0.474000007      -2.36684937E-04
  0.476000011      -2.45756441E-04
  0.477999985      -2.54314305E-04
  0.479999989      -2.62292277E-04
  0.481999993      -2.69624870E-04
  0.483999997      -2.76247854E-04
  0.486000001      -2.82098656E-04
  0.488000005      -2.87116651E-04
  0.490000010      -2.91243749E-04
  0.492000014      -2.94424593E-04
  0.493999988      -2.96606944E-04
  0.495999992      -2.97742197E-04
  0.497999996      -2.97785504E-04
  0.500000000      -2.96696089E-04
  0.501999974      -2.94437719E-04
  0.504000008      -2.90978758E-04
  0.505999982      -2.86292372E-04
  0.508000016      -2.80356791E-04
  0.509999990      -2.73155543E-04
  0.512000024      -2.64677365E-04
  0.513999999      -2.54916493E-04
  0.515999973      -2.43872462E-04
  0.518000007      -2.31550410E-04
  0.519999981      -2.17960842E-04
  0.522000015      -2.03119707E-04
  0.523999989      -1.87048179E-04
  0.526000023      -1.69772669E-04
  0.527999997      -1.51324624E-04
  0.529999971      -1.31740308E-04
  0.532000005      -1.11060624E-04
  0.533999979      -8.93308970E-05
  0.536000013      -6.66006017E-05
  0.537999988      -4.29230786E-05
  0.540000021      -1.83552220E-05
  0.541999996       7.04278409E-06
  0.544000030       3.32078453E-05
  0.546000004       6.00742133E-05
  0.547999978       8.75739352E-05
  0.550000012       1.15637093E-04
  0.551999986       1.44192178E-04
  0.554000020       1.73166438E-04
  0.555999994       2.02486175E-04
  0.558000028       2.32077131E-04
  0.560000002       2.61864770E-04
  0.561999977       2.91774544E-04
  0.564000010       3.21732165E-04
  0.565999985       3.51663912E-04
  0.568000019       3.81496939E-04
  0.569999993       4.11159272E-04
  0.572000027       4.40580188E-04
  0.574000001       4.69690276E-04
  0.575999975       4.98421607E-04
  0.578000009       5.26707852E-04
  0.579999983       5.54484257E-04
  0.582000017       5.81687840E-04
  0.583999991       6.08257309E-04
  0.586000025       6.34133001E-04
  0.588000000       6.59256941E-04
  0.589999974       6.83572667E-04
  0.592000008       7.07025232E-04
  0.593999982       7.29561143E-04
  0.596000016       7.51127955E-04
  0.597999990       7.71674560E-04
  0.600000024       7.91150436E-04
  0.601999998       8.09506048E-04
  0.603999972       8.26692441E-04
  0.606000006       8.42660840E-04
  0.607999980       8.57362873E-04
  0.610000014       8.70749878E-04
  0.611999989       8.82773369E-04
  0.614000022       8.93384218E-04
  0.615999997       9.02533182E-04
  0.617999971       9.10170143E-04
  0.620000005       9.16244346E-04
  0.621999979       9.20704391E-04
  0.624000013       9.23498068E-04
  0.625999987       9.24572465E-04
  0.628000021       9.23873740E-04
  0.629999995       9.21347702E-04
  0.632000029       9.16939520E-04
  0.634000003       9.10594070E-04
  0.635999978       9.02255997E-04
  0.638000011       8.91870353E-04
  0.639999986       8.79382424E-04
  0.642000020       8.64738540E-04
  0.643999994       8.47886375E-04
  0.646000028       8.28775170E-04
  0.648000002       8.07356613E-04
  0.649999976       7.83585070E-04
  0.652000010       7.57418340E-04
  0.653999984       7.28818355E-04
  0.656000018       6.97751530E-04
  0.657999992       6.64189749E-04
  0.660000026       6.28110953E-04
  0.662000000       5.89499890E-04
  0.663999975       5.48348762E-04
  0.666000009       5.04658034E-04
  0.667999983       4.58436931E-04
  0.670000017       4.09704546E-04
  0.671999991       3.58490099E-04
  0.674000025       3.04833899E-04
  0.675999999       2.48787750E-04
  0.677999973       1.90415623E-04
  0.680000007       1.29794033E-04
  0.681999981       6.70126246E-05
  0.684000015       2.17453794E-06
  0.685999990      -6.46032786E-05
  0.688000023      -1.33189998E-04
  0.689999998      -2.03440548E-04
  0.691999972      -2.75195925E-04
  0.694000006      -3.48282832E-04
  0.695999980      -4.22513986E-04
  0.698000014      -4.97688539E-04
  0.699999988      -5.73592435E-04
  0.702000022      -6.49998547E-04
  0.703999996      -7.26667757E-04
  0.705999970      -8.03349423E-04
  0.708000004      -8.79782136E-04
  0.709999979      -9.55694879E-04
  0.712000012      -1.03080797E-03
  0.713999987      -1.10483402E-03
  0.716000021      -1.17747963E-03
  0.717999995      -1.24844629E-03
  0.720000029      -1.31743203E-03
  0.722000003      -1.38413254E-03
  0.723999977      -1.44824362E-03
  0.726000011      -1.50946202E-03
  0.727999985      -1.56748726E-03
  0.730000019      -1.62202341E-03
  0.731999993      -1.67278084E-03
  0.734000027      -1.71947852E-03
  0.736000001      -1.76184485E-03
  0.737999976      -1.79961999E-03
  0.740000010      -1.83255738E-03
  0.741999984      -1.86042569E-03
  0.744000018      -1.88301026E-03
  0.745999992      -1.90011470E-03
  0.748000026      -1.91156263E-03
  0.750000000      -1.91719900E-03
  0.751999974      -1.91689120E-03
  0.754000008      -1.91053085E-03
  0.755999982      -1.89803471E-03
  0.758000016      -1.87934528E-03
  0.759999990      -1.85443251E-03
  0.762000024      -1.82329351E-03
  0.763999999      -1.78595388E-03
  0.765999973      -1.74246787E-03
  0.768000007      -1.69291859E-03
  0.769999981      -1.63741841E-03
  0.772000015      -1.57610793E-03
  0.773999989      -1.50915713E-03
  0.776000023      -1.43676391E-03
  0.777999997      -1.35915366E-03
  0.779999971      -1.27657887E-03
  0.782000005      -1.18931790E-03
  0.783999979      -1.09767378E-03
  0.786000013      -1.00197352E-03
  0.787999988      -9.02565895E-04
  0.790000021      -7.99820584E-04
  0.791999996      -6.94126182E-04
  0.794000030      -5.85888221E-04
  0.796000004      -4.75527660E-04
  0.797999978      -3.63478699E-04
  0.800000012      -2.50186567E-04
  0.801999986      -1.36105547E-04
  0.804000020      -2.16964781E-05
  0.805999994       9.25754575E-05
  0.808000028       2.06243189E-04
  0.810000002       3.18839593E-04
  0.811999977       4.29900712E-04
  0.814000010       5.38967433E-04
  0.815999985       6.45588269E-04
  0.818000019       7.49321654E-04
  0.819999993       8.49737902E-04
  0.822000027       9.46421642E-04
  0.824000001       1.03897427E-03
  0.825999975       1.12701557E-03
  0.828000009       1.21018605E-03
  0.829999983       1.28814846E-03
  0.832000017       1.36059010E-03
  0.833999991       1.42722391E-03
  0.836000025       1.48778991E-03
  0.838000000       1.54205761E-03
  0.839999974       1.58982573E-03
  0.842000008       1.63092441E-03
  0.843999982       1.66521559E-03
  0.846000016       1.69259391E-03
  0.847999990       1.71298697E-03
  0.850000024       1.72635599E-03
  0.851999998       1.73269596E-03
  0.853999972       1.73203577E-03
  0.856000006       1.72443758E-03
  0.857999980       1.70999707E-03
  0.860000014       1.68884243E-03
  0.861999989       1.66113384E-03
  0.864000022       1.62706268E-03
  0.865999997       1.58685038E-03
  0.867999971       1.54074735E-03
  0.870000005       1.48903159E-03
  0.871999979       1.43200695E-03
  0.874000013       1.37000170E-03
  0.875999987       1.30336685E-03
  0.878000021       1.23247399E-03
  0.879999995       1.15771359E-03
  0.882000029       1.07949227E-03
  0.884000003       9.98231233E-04
  0.885999978       9.14363423E-04
  0.888000011       8.28331627E-04
  0.889999986       7.40585616E-04
  0.892000020       6.51579874E-04
  0.893999994       5.61770983E-04
  0.896000028       4.71615291E-04
  0.898000002       3.81566264E-04
  0.899999976       2.92071985E-04
  0.902000010       2.03572592E-04
  0.903999984       1.16498086E-04
  0.906000018       3.12659031E-05
  0.907999992      -5.17213157E-05
  0.910000026      -1.32078101E-04
  0.912000000      -2.09438076E-04
  0.913999975      -2.83455825E-04
  0.916000009      -3.53808922E-04
  0.917999983      -4.20199533E-04
  0.920000017      -4.82356088E-04
  0.921999991      -5.40034380E-04
  0.924000025      -5.93019067E-04
  0.925999999      -6.41124439E-04
  0.927999973      -6.84195489E-04
  0.930000007      -7.22108234E-04
  0.931999981      -7.54770357E-04
  0.934000015      -7.82121206E-04
  0.935999990      -8.04131967E-04
  0.938000023      -8.20805493E-04
  0.939999998      -8.32175545E-04
  0.941999972      -8.38306558E-04
  0.944000006      -8.39292479E-04
  0.945999980      -8.35255894E-04
  0.948000014      -8.26346979E-04
  0.949999988      -8.12741870E-04
  0.952000022      -7.94641383E-04
  0.953999996      -7.72269268E-04
  0.955999970      -7.45870406E-04
  0.958000004      -7.15708826E-04
  0.959999979      -6.82065787E-04
  0.962000012      -6.45237393E-04
  0.963999987      -6.05532899E-04
  0.966000021      -5.63271926E-04
  0.967999995      -5.18782355E-04
  0.970000029      -4.72398126E-04
  0.972000003      -4.24456637E-04
  0.973999977      -3.75296775E-04
  0.976000011      -3.25256202E-04
  0.977999985      -2.74669525E-04
  0.980000019      -2.23865805E-04
  0.981999993      -1.73166773E-04
  0.984000027      -1.22884667E-04
  0.986000001      -7.33204288E-05
  0.987999976      -2.47620210E-05
  0.990000010       2.25172880E-05
  0.991999984       6.82602549E-05
  0.994000018       1.12226924E-04
  0.995999992       1.54195979E-04
  0.998000026       1.93965534E-04
   1.00000000       2.31353974E-04
   1.00199997       2.66200717E-04
   1.00399995       2.98366533E-04
   1.00600004       3.27734015E-04
   1.00800002       3.54207528E-04
   1.00999999       3.77713324E-04
   1.01199996       3.98199365E-04
   1.01400006       4.15634830E-04
   1.01600003       4.30009706E-04
   1.01800001       4.41334269E-04
   1.01999998       4.49638028E-04
   1.02199996       4.54969151E-04
   1.02400005       4.57393209E-04
   1.02600002       4.56992362E-04
   1.02800000       4.53863991E-04
   1.02999997       4.48119623E-04
   1.03199995       4.39883530E-04
   1.03400004       4.29291511E-04
   1.03600001       4.16489434E-04
   1.03799999       4.01632074E-04
   1.03999996       3.84881452E-04
   1.04200006       3.66405700E-04
   1.04400003       3.46377492E-04
   1.04600000       3.24972847E-04
   1.04799998       3.02369706E-04
   1.04999995       2.78746738E-04
   1.05200005       2.54282000E-04
   1.05400002       2.29151803E-04
   1.05599999       2.03529577E-04
   1.05799997       1.77584850E-04
   1.05999994       1.51482280E-04
   1.06200004       1.25380742E-04
   1.06400001       9.94325092E-05
   1.06599998       7.37825394E-05
   1.06799996       4.85678538E-05
   1.07000005       2.39168658E-05
   1.07200003      -5.09677704E-08
   1.07400000      -2.32256571E-05
   1.07599998      -4.55069712E-05
   1.07799995      -6.68047505E-05
   1.08000004      -8.70389704E-05
   1.08200002      -1.06140003E-04
   1.08399999      -1.24048514E-04
   1.08599997      -1.40715449E-04
   1.08800006      -1.56102018E-04
   1.09000003      -1.70179395E-04
   1.09200001      -1.82928517E-04
   1.09399998      -1.94339766E-04
   1.09599996      -2.04412630E-04
   1.09800005      -2.13155217E-04
   1.10000002      -2.20583897E-04
   1.10200000      -2.26722696E-04
   1.10399997      -2.31602928E-04
   1.10599995      -2.35262414E-04
   1.10800004      -2.37745146E-04
   1.11000001      -2.39100511E-04
   1.11199999      -2.39382760E-04
   1.11399996      -2.38650406E-04
   1.11600006      -2.36965556E-04
   1.11800003      -2.34393257E-04
   1.12000000      -2.31000915E-04
   1.12199998      -2.26857621E-04
   1.12399995      -2.22033530E-04
   1.12600005      -2.16599219E-04
   1.12800002      -2.10625076E-04
   1.13000000      -2.04180746E-04
   1.13199997      -1.97334550E-04
   1.13399994      -1.90152903E-04
   1.13600004      -1.82699878E-04
   1.13800001      -1.75036781E-04
   1.13999999      -1.67221675E-04
   1.14199996      -1.59309071E-04
   1.14400005      -1.51349625E-04
   1.14600003      -1.43389872E-04
   1.14800000      -1.35472088E-04
   1.14999998      -1.27634063E-04
   1.15199995      -1.19909091E-04
   1.15400004      -1.12325899E-04
   1.15600002      -1.04908650E-04
   1.15799999      -9.76770025E-05
   1.15999997      -9.06462228E-05
   1.16199994      -8.38272899E-05
   1.16400003      -7.72270723E-05
   1.16600001      -7.08486114E-05
   1.16799998      -6.46913250E-05
   1.16999996      -5.87513350E-05
   1.17200005      -5.30217912E-05
   1.17400002      -4.74932567E-05
   1.17600000      -4.21540972E-05
   1.17799997      -3.69909321E-05
   1.17999995      -3.19890132E-05
   1.18200004      -2.71327081E-05
   1.18400002      -2.24059386E-05
   1.18599999      -1.77925886E-05
   1.18799996      -1.32769355E-05
   1.19000006      -8.84401743E-06
   1.19200003      -4.48000264E-06
   1.19400001      -1.72515527E-07
   1.19599998       4.08908591E-06
   1.19799995       8.31344914E-06
   1.20000005       1.25070164E-05
   1.20200002       1.66738555E-05
   1.20400000       2.08155234E-05
   1.20599997       2.49309451E-05
   1.20799994       2.90163734E-05
   1.21000004       3.30653638E-05
   1.21200001       3.70687994E-05
   1.21399999       4.10149514E-05
   1.21599996       4.48895880E-05
   1.21800005       4.86761419E-05
   1.22000003       5.23558811E-05
   1.22200000       5.59082073E-05
   1.22399998       5.93108780E-05
   1.22599995       6.25403482E-05
   1.22800004       6.55720942E-05
   1.23000002       6.83810213E-05
   1.23199999       7.09417436E-05
   1.23399997       7.32290646E-05
   1.23599994       7.52182823E-05
   1.23800004       7.68855971E-05
   1.24000001       7.82084389E-05
   1.24199998       7.91658385E-05
   1.24399996       7.97387474E-05
   1.24600005       7.99103655E-05
   1.24800003       7.96663735E-05
   1.25000000       7.89952828E-05
   1.25199997       7.78886242E-05
   1.25399995       7.63411517E-05
   1.25600004       7.43510755E-05
   1.25800002       7.19201344E-05
   1.25999999       6.90537781E-05
   1.26199996       6.57612036E-05
   1.26400006       6.20553619E-05
   1.26600003       5.79529587E-05
   1.26800001       5.34744104E-05
   1.26999998       4.86437057E-05
   1.27199996       4.34883004E-05
   1.27400005       3.80389065E-05
   1.27600002       3.23293061E-05
   1.27800000       2.63961138E-05
   1.27999997       2.02785195E-05
   1.28199995       1.40179964E-05
   1.28400004       7.65799996E-06
   1.28600001       1.24366989E-06
   1.28799999      -5.17849139E-06
   1.28999996      -1.15609910E-05
   1.29200006      -1.78556747E-05
   1.29400003      -2.40140726E-05
   1.29600000      -2.99877975E-05
   1.29799998      -3.57288773E-05
   1.29999995      -4.11901565E-05
   1.30200005      -4.63256220E-05
   1.30400002      -5.10908067E-05
   1.30599999      -5.54431099E-05
   1.30799997      -5.93421391E-05
   1.30999994      -6.27500049E-05
   1.31200004      -6.56316406E-05
   1.31400001      -6.79550503E-05
   1.31599998      -6.96915595E-05
   1.31799996      -7.08160296E-05
   1.32000005      -7.13070694E-05
   1.32200003      -7.11471730E-05
   1.32400000      -7.03229016E-05
   1.32599998      -6.88249784E-05
   1.32799995      -6.66484048E-05
   1.33000004      -6.37925259E-05
   1.33200002      -6.02610744E-05
   1.33399999      -5.60622029E-05
   1.33599997      -5.12084698E-05
   1.33800006      -4.57168026E-05
   1.34000003      -3.96084542E-05
   1.34200001      -3.29088798E-05
   1.34399998      -2.56476196E-05
   1.34599996      -1.78581358E-05
   1.34800005      -9.57763859E-06
   1.35000002      -8.46850128E-07
   1.35200000       8.29022156E-06
   1.35399997       1.77865459E-05
   1.35599995       2.75923521E-05
   1.35800004       3.76553980E-05
   1.36000001       4.79212904E-05
   1.36199999       5.83338187E-05
   1.36399996       6.88352302E-05
   1.36600006       7.93665822E-05
   1.36800003       8.98680810E-05
   1.37000000       1.00279387E-04
   1.37199998       1.10539972E-04
   1.37399995       1.20589437E-04
   1.37600005       1.30367873E-04
   1.37800002       1.39816198E-04
   1.38000000       1.48876454E-04
   1.38199997       1.57492148E-04
   1.38399994       1.65608610E-04
   1.38600004       1.73173234E-04
   1.38800001       1.80135758E-04
   1.38999999       1.86448538E-04
   1.39199996       1.92066829E-04
   1.39400005       1.96948909E-04
   1.39600003       2.01056377E-04
   1.39800000       2.04354204E-04
   1.39999998       2.06810946E-04
   1.40199995       2.08398880E-04
   1.40400004       2.09094040E-04
   1.40600002       2.08876358E-04
   1.40799999       2.07729696E-04
   1.40999997       2.05641889E-04
   1.41199994       2.02604861E-04