 -0.300000012       0.00000000    
 -0.298000008       0.00000000    
 -0.296000004       0.00000000    
 -0.294000000       0.00000000    
 -0.291999996       0.00000000    
 -0.289999992       8.38925698E-19
 -0.287999988       9.01956168E-18
 -0.286000013       5.25435349E-17
 -0.284000009       2.19572817E-16
 -0.282000005       7.35979199E-16
 -0.280000001       2.09941266E-15
 -0.277999997       5.28397618E-15
 -0.275999993       1.20187258E-14
 -0.273999989       2.51236664E-14
 -0.272000015       4.88587002E-14
 -0.270000011       8.92069960E-14
 -0.268000007       1.53976509E-13
 -0.266000003       2.52573787E-13
 -0.263999999       3.95283957E-13
 -0.261999995       5.91897028E-13
 -0.259999990       8.49555669E-13
 -0.257999986       1.16977901E-12
 -0.256000012       1.54471499E-12
 -0.254000008       1.95290810E-12
 -0.252000004       2.35487346E-12
 -0.250000000       2.68930516E-12
 -0.247999996       2.87053237E-12
 -0.246000007       2.78834161E-12
 -0.244000003       2.31120917E-12
 -0.241999999       1.29404972E-12
 -0.239999995      -4.08776501E-13
 -0.238000005      -2.92438036E-12
 -0.236000001      -6.33641056E-12
 -0.233999997      -1.06546438E-11
 -0.231999993      -1.57807292E-11
 -0.230000004      -2.14724575E-11
 -0.228000000      -2.73100396E-11
 -0.225999996      -3.26685241E-11
 -0.224000007      -3.67016105E-11
 -0.222000003      -3.83426242E-11
 -0.219999999      -3.63273370E-11
 -0.217999995      -2.92449363E-11
 -0.216000006      -1.56203175E-11
 -0.214000002       5.96973252E-12
 -0.211999997       3.67471019E-11
 -0.209999993       7.75524853E-11
 -0.208000004       1.28641486E-10
 -0.206000000       1.89468760E-10
 -0.203999996       2.58473631E-10
 -0.202000007       3.32886024E-10
 -0.200000003       4.08575090E-10
 -0.197999999       4.79962181E-10
 -0.195999995       5.40028855E-10
 -0.194000006       5.80435033E-10
 -0.192000002       5.91779348E-10
 -0.189999998       5.64012059E-10
 -0.187999994       4.87009433E-10
 -0.186000004       3.51319668E-10
 -0.184000000       1.49050064E-10
 -0.181999996      -1.25114002E-10
 -0.180000007      -4.72802908E-10
 -0.178000003      -8.90834517E-10
 -0.175999999      -1.37012435E-09
 -0.173999995      -1.89473148E-09
 -0.172000006      -2.44112885E-09
 -0.170000002      -2.97779645E-09
 -0.167999998      -3.46525941E-09
 -0.165999994      -3.85664345E-09
 -0.164000005      -4.09885548E-09
 -0.162000000      -4.13443813E-09
 -0.159999996      -3.90413968E-09
 -0.158000007      -3.35018147E-09
 -0.156000003      -2.42022113E-09
 -0.153999999      -1.07183884E-09
 -0.151999995       7.22508997E-10
 -0.150000006       2.97035951E-09
 -0.148000002       5.65407454E-09
 -0.145999998       8.72607409E-09
 -0.143999994       1.21046684E-08
 -0.142000005       1.56709508E-08
 -0.140000001       1.92670715E-08
 -0.137999997       2.26963284E-08
 -0.136000007       2.57253845E-08
 -0.134000003       2.80889516E-08
 -0.131999999       2.94972207E-08
 -0.129999995       2.96461291E-08
 -0.128000006       2.82306587E-08
 -0.126000002       2.49609506E-08
 -0.123999998       1.95807246E-08
 -0.122000001       1.18884627E-08
 -0.119999997       1.75947856E-09
 -0.118000001      -1.08311387E-08
 -0.115999997      -2.57858606E-08
 -0.114000000      -4.28636966E-08
 -0.112000003      -6.16627887E-08
 -0.109999999      -8.16068280E-08
 -0.108000003      -1.01937722E-07
 -0.105999999      -1.21716965E-07
 -0.104000002      -1.39834867E-07
 -0.101999998      -1.55031302E-07
 -0.100000001      -1.65927915E-07
  -9.79999974E-02  -1.71071989E-07
  -9.60000008E-02  -1.68993253E-07
  -9.39999968E-02  -1.58272130E-07
  -9.20000002E-02  -1.37619224E-07
  -9.00000036E-02  -1.05963096E-07
  -8.79999995E-02  -6.25446646E-08
  -8.60000029E-02  -7.01482872E-09
  -8.39999989E-02   6.04705619E-08
  -8.20000023E-02   1.39159837E-07
  -7.99999982E-02   2.27628021E-07
  -7.80000016E-02   3.23715710E-07
  -7.59999976E-02   4.24491787E-07
  -7.40000010E-02   5.26244150E-07
  -7.19999969E-02   6.24507209E-07
  -7.00000003E-02   7.14127452E-07
  -6.80000037E-02   7.89372962E-07
  -6.59999996E-02   8.44088220E-07
  -6.40000030E-02   8.71896532E-07
  -6.19999990E-02   8.66446555E-07
  -5.99999987E-02   8.21700155E-07
  -5.79999983E-02   7.32256581E-07
  -5.60000017E-02   5.93699042E-07
  -5.40000014E-02   4.02963309E-07
  -5.20000011E-02   1.58698256E-07
  -5.00000007E-02  -1.38383385E-07
  -4.80000004E-02  -4.85190697E-07
  -4.60000001E-02  -8.75986984E-07
  -4.39999998E-02  -1.30220508E-06
  -4.19999994E-02  -1.75234118E-06
  -3.99999991E-02  -2.21197251E-06
  -3.79999988E-02  -2.66388679E-06
  -3.59999985E-02  -3.08836024E-06
  -3.40000018E-02  -3.46357729E-06
  -3.20000015E-02  -3.76620051E-06
  -2.99999993E-02  -3.97209078E-06
  -2.80000009E-02  -4.05716128E-06
  -2.60000005E-02  -3.99835289E-06
  -2.40000002E-02  -3.77470974E-06
  -2.19999999E-02  -3.36851917E-06
  -1.99999996E-02  -2.76647165E-06
  -1.79999992E-02  -1.96082055E-06
  -1.60000008E-02  -9.50456013E-07
  -1.40000004E-02   2.58122952E-07
  -1.20000001E-02   1.65001757E-06
  -9.99999978E-03   3.20136201E-06
  -8.00000038E-03   4.87901661E-06
  -6.00000005E-03   6.64061281E-06
  -4.00000019E-03   8.43491125E-06
  -2.00000009E-03   1.02025888E-05
   0.00000000       1.18773642E-05
   2.00000009E-03   1.33875747E-05
   4.00000019E-03   1.46580851E-05
   6.00000005E-03   1.56125516E-05
   8.00000038E-03   1.61760054E-05
   9.99999978E-03   1.62776032E-05
   1.20000001E-02   1.58535913E-05
   1.40000004E-02   1.48502550E-05
   1.60000008E-02   1.32268360E-05
   1.79999992E-02   1.09582979E-05
   1.99999996E-02   8.03777948E-06
   2.19999999E-02   4.47865432E-06
   2.40000002E-02   3.16102842E-07
   2.60000005E-02  -4.39189762E-06
   2.80000009E-02  -9.56437634E-06
   2.99999993E-02  -1.50976921E-05
   3.20000015E-02  -2.08668698E-05
   3.40000018E-02  -2.67275773E-05
   3.59999985E-02  -3.25188412E-05
   3.79999988E-02  -3.80666534E-05
   3.99999991E-02  -4.31880071E-05
   4.19999994E-02  -4.76954629E-05
   4.39999998E-02  -5.14023959E-05
   4.60000001E-02  -5.41281479E-05
   4.80000004E-02  -5.57033818E-05
   5.00000007E-02  -5.59754335E-05
   5.20000011E-02  -5.48131175E-05
   5.40000014E-02  -5.21115035E-05
   5.60000017E-02  -4.77957219E-05
   5.79999983E-02  -4.18240525E-05
   5.99999987E-02  -3.41903469E-05
   6.19999990E-02  -2.49253990E-05
   6.40000030E-02  -1.40973434E-05
   6.59999996E-02  -1.81104372E-06
   6.80000037E-02   1.17933214E-05
   7.00000003E-02   2.65427643E-05
   7.19999969E-02   4.22341909E-05
   7.40000010E-02   5.86386268E-05
   7.59999976E-02   7.55044530E-05
   7.80000016E-02   9.25620043E-05
   7.99999982E-02   1.09527340E-04
   8.20000023E-02   1.26106461E-04
   8.39999989E-02   1.41997371E-04
   8.60000029E-02   1.56894035E-04
   8.79999995E-02   1.70486877E-04
   9.00000036E-02   1.82463686E-04
   9.20000002E-02   1.92509804E-04
   9.39999968E-02   2.00305905E-04
   9.60000008E-02   2.05526158E-04
   9.79999974E-02   2.07834688E-04
  0.100000001       2.06882425E-04
  0.101999998       2.02303025E-04
  0.104000002       1.93708547E-04
  0.105999999       1.80687814E-04
  0.108000003       1.62801342E-04
  0.109999999       1.39584459E-04
  0.112000003       1.10546796E-04
  0.114000000       7.51766929E-05
  0.115999997       3.29494578E-05
  0.118000001      -1.66603622E-05
  0.119999997      -7.41654731E-05
  0.122000001      -1.40042626E-04
  0.123999998      -2.14710308E-04
  0.126000002      -2.98494124E-04
  0.128000006      -3.91596521E-04
  0.129999995      -4.94049455E-04
  0.131999999      -6.05675916E-04
  0.134000003      -7.26032653E-04
  0.136000007      -8.54363781E-04
  0.137999997      -9.89538850E-04
  0.140000001      -1.12999883E-03
  0.142000005      -1.27369596E-03
  0.143999994      -1.41804002E-03
  0.145999998      -1.55984017E-03
  0.148000002      -1.69526204E-03
  0.150000006      -1.81978510E-03
  0.151999995      -1.92817440E-03
  0.153999999      -2.01446284E-03
  0.156000003      -2.07195315E-03
  0.158000007      -2.09323107E-03
  0.159999996      -2.07020878E-03
  0.162000000      -1.99419470E-03
  0.164000005      -1.85598433E-03
  0.165999994      -1.64599251E-03
  0.167999998      -1.35440612E-03
  0.170000002      -9.71392554E-04
  0.172000006      -4.87336394E-04
  0.173999995       1.06876236E-04
  0.175999999       8.19558569E-04
  0.178000003       1.65781658E-03
  0.180000007       2.62718555E-03
  0.181999996       3.73115670E-03
  0.184000000       4.97070188E-03
  0.186000004       6.34377310E-03
  0.187999994       7.84474332E-03
  0.189999998       9.46389325E-03
  0.192000002       1.11868083E-02
  0.194000006       1.29938442E-02
  0.195999995       1.48596186E-02
  0.197999999       1.67524684E-02
  0.200000003       1.86340995E-02
  0.202000007       2.04591006E-02
  0.203999996       2.21748054E-02
  0.206000000       2.37210561E-02
  0.208000004       2.50302758E-02
  0.209999993       2.60276292E-02
  0.211999997       2.66313497E-02
  0.214000002       2.67534126E-02
  0.216000006       2.63003670E-02
  0.217999995       2.51744054E-02
  0.219999999       2.32748780E-02
  0.222000003       2.04999149E-02
  0.224000007       1.67485513E-02
  0.225999996       1.19231846E-02
  0.228000000       5.93205867E-03
  0.230000004      -1.30738050E-03
  0.231999993      -9.86529049E-03
  0.233999997      -1.97956320E-02
  0.236000001      -3.11323870E-02
  0.238000005      -4.38851304E-02
  0.239999995      -5.80350235E-02
  0.241999999      -7.35299662E-02
  0.244000003      -9.02804956E-02
  0.246000007     -0.108155146    
  0.247999996     -0.126976356    
  0.250000000     -0.146516159    
  0.252000004     -0.166493297    
  0.254000008     -0.186569631    
  0.256000012     -0.206348285    
  0.257999986     -0.225372151    
  0.259999990     -0.243122861    
  0.261999995     -0.259022653    
  0.263999999     -0.272436321    
  0.266000003     -0.282674074    
  0.268000007     -0.288997471    
  0.270000011     -0.290626794    
  0.272000015     -0.286750108    
  0.273999989     -0.276533425    
  0.275999993     -0.259135485    
  0.277999997     -0.233722270    
  0.280000001     -0.199485049    
  0.282000005     -0.155658960    
  0.284000009     -0.101546638    
  0.286000013      -3.65412757E-02
  0.287999988       3.98497172E-02
  0.289999992      0.127973303    
  0.291999996      0.228008404    
  0.294000000      0.339932650    
  0.296000004      0.463493735    
  0.298000008      0.598183155    
  0.300000012      0.743204594    
  0.301999986      0.897446632    
  0.303999990       1.05946362    
  0.305999994       1.22744560    
  0.307999998       1.39920771    
  0.310000002       1.57216871    
  0.312000006       1.74334919    
  0.314000010       1.90936732    
  0.316000015       2.06643963    
  0.317999989       2.21040177    
  0.319999993       2.33672452    
  0.321999997       2.44054770    
  0.324000001       2.51671720    
  0.326000005       2.55984092    
  0.328000009       2.56435347    
  0.330000013       2.52458525    
  0.331999987       2.43485832    
  0.333999991       2.28956890    
  0.335999995       2.08331609    
  0.338000000       1.81100166    
  0.340000004       1.46797574    
  0.342000008       1.05016541    
  0.344000012      0.554228187    
  0.345999986      -2.23046560E-02
  0.347999990     -0.680863917    
  0.349999994      -1.42168641    
  0.351999998      -2.24365473    
  0.354000002      -3.14415097    
  0.356000006      -4.11890411    
  0.358000010      -5.16184568    
  0.360000014      -6.26498985    
  0.361999989      -7.41833639    
  0.363999993      -8.60974693    
  0.365999997      -9.82492352    
  0.368000001      -11.0473299    
  0.370000005      -12.2582359    
  0.372000009      -13.4366922    
  0.374000013      -14.5596352    
  0.375999987      -15.6020002    
  0.377999991      -16.5368538    
  0.379999995      -17.3356285    
  0.381999999      -17.9683418    
  0.384000003      -18.4039669    
  0.386000007      -18.6106758    
  0.388000011      -18.5563679    
  0.389999986      -18.2090874    
  0.391999990      -17.5374794    
  0.393999994      -16.5114613    
  0.395999998      -15.1027279    
  0.398000002      -13.2854195    
  0.400000006      -11.0368080    
  0.402000010      -8.33797455    
  0.404000014      -5.17457724    
  0.405999988      -1.53751910    
  0.407999992       2.57632470    
  0.409999996       7.16332245    
  0.412000000       12.2124491    
  0.414000005       17.7046967    
  0.416000009       23.6122513    
  0.418000013       29.8982410    
  0.419999987       36.5160713    
  0.421999991       43.4091110    
  0.423999995       50.5104446    
  0.425999999       57.7427063    
  0.428000003       65.0181122    
  0.430000007       72.2386322    
  0.432000011       79.2961960    
  0.433999985       86.0732727    
  0.435999990       92.4434662    
  0.437999994       98.2724152    
  0.439999998       103.418945    
  0.442000002       107.736069    
  0.444000006       111.072655    
  0.446000010       113.275162    
  0.448000014       114.189110    
  0.449999988       113.661453    
  0.451999992       111.542877    
  0.453999996       107.689980    
  0.456000000       101.967667    
  0.458000004       94.2519913    
  0.460000008       84.4330902    
  0.462000012       72.4177170    
  0.463999987       58.1322098    
  0.465999991       41.5250092    
  0.467999995       22.5704575    
  0.469999999       1.27019858    
  0.472000003      -22.3430595    
  0.474000007      -48.2036362    
  0.476000011      -76.2105408    
  0.477999985      -106.225471    
  0.479999989      -138.070847    
  0.481999993      -171.529053    
  0.483999997      -206.341034    
  0.486000001      -242.205780    
  0.488000005      -278.780701    
  0.490000010      -315.681549    
  0.492000014      -352.484070    
  0.493999988      -388.725311    
  0.495999992      -423.906464    
  0.497999996      -457.494568    
  0.500000000      -488.927734    
  0.501999974      -517.617981    
  0.504000008      -542.956726    
  0.505999982      -564.320801    
  0.508000016      -581.077515    
  0.509999990      -592.592834    
  0.512000024      -598.237305    
  0.513999999      -597.394714    
  0.515999973      -589.470703    
  0.518000007      -573.901123    
  0.519999981      -550.160400    
  0.522000015      -517.773254    
  0.523999989      -476.320160    
  0.526000023      -425.451263    
  0.527999997      -364.893341    
  0.529999971      -294.458466    
  0.532000005      -214.055527    
  0.533999979      -123.697243    
  0.536000013      -23.5066833    
  0.537999988       86.2707062    
  0.540000021       205.265411    
  0.541999996       332.975342    
  0.544000030       468.761017    
  0.546000004       611.844788    
  0.547999978       761.305176    
  0.550000012       916.078125    
  0.551999986       1074.95630    
  0.554000020       1236.59363    
  0.555999994       1399.50598    
  0.558000028       1562.07812    
  0.560000002       1722.57202    
  0.561999977       1879.13525    
  0.564000010       2029.81116    
  0.565999985       2172.55176    
  0.568000019       2305.23267    
  0.569999993       2425.66992    
  0.572000027       2531.63550    
  0.574000001       2620.87939    
  0.575999975       2691.14941    
  0.578000009       2740.21191    
  0.579999983       2765.87891    
  0.582000017       2766.03027    
  0.583999991       2738.63623    
  0.586000025       2681.79126    
  0.588000000       2593.73389    
  0.589999974       2472.87305    
  0.592000008       2317.82202    
  0.593999982       2127.41528    
  0.596000016       1900.74280    
  0.597999990       1637.17236    
  0.600000024       1336.36560    
  0.601999998       998.316772    
  0.603999972       623.357056    
  0.606000006       212.187714    
  0.607999980      -234.115341    
  0.610000014      -714.080566    
  0.611999989      -1225.82275    
  0.614000022      -1767.05493    
  0.615999997      -2335.06201    
  0.617999971      -2926.70215    
  0.620000005      -3538.42554    
  0.621999979      -4166.25195    
  0.624000013      -4805.81055    
  0.625999987      -5452.32520    
  0.628000021      -6100.64746    
  0.629999995      -6745.27979    
  0.632000029      -7380.38623    
  0.634000003      -7999.83691    
  0.635999978      -8597.24414    
  0.638000011      -9165.96875    
  0.639999986      -9699.21094    
  0.642000020      -10190.0186    
  0.643999994      -10631.3428    
  0.646000028      -11016.0986    
  0.648000002      -11337.2275    
  0.649999976      -11587.7139    
  0.652000010      -11760.7080    
  0.653999984      -11849.5391    
  0.656000018      -11847.7949    
  0.657999992      -11749.3857    
  0.660000026      -11548.6104    
  0.662000000      -11240.2412    
  0.663999975      -10819.5645    
  0.666000009      -10282.4316    
  0.667999983      -9625.38965    
  0.670000017      -8845.67676    
  0.671999991      -7941.30615    
  0.674000025      -6911.13623    
  0.675999999      -5754.91211    
  0.677999973      -4473.32812    
  0.680000007      -3068.05298    
  0.681999981      -1541.80542    
  0.684000015       101.653984    
  0.685999990       1857.42505    
  0.688000023       3719.52393    
  0.689999998       5680.78711    
  0.691999972       7732.92285    
  0.694000006       9866.46875    
  0.695999980       12070.7695    
  0.698000014       14334.0664    
  0.699999988       16643.4824    
  0.702000022       18984.9785    
  0.703999996       21343.5117    
  0.705999970       23702.9824    
  0.708000004       26046.3281    
  0.709999979       28355.5820    
  0.712000012       30612.0000    
  0.713999987       32795.9805    
  0.716000021       34887.3320    
  0.717999995       36865.2734    
  0.720000029       38708.5742    
  0.722000003       40395.6211    
  0.723999977       41904.5898    
  0.726000011       43213.5742    
  0.727999985       44300.6172    
  0.730000019       45144.0273    
  0.731999993       45722.3672    
  0.734000027       46014.6484    
  0.736000001       46000.5391    
  0.737999976       45660.4648    
  0.740000010       44975.7383    
  0.741999984       43928.8047    
  0.744000018       42503.3281    
  0.745999992       40684.4297    
  0.748000026       38458.7109    
  0.750000000       35814.5742    
  0.751999974       32742.2559    
  0.754000008       29234.0273    
  0.755999982       25284.3535    
  0.758000016       20889.8965    
  0.759999990       16049.8643    
  0.762000024       10766.0020    
  0.763999999       5042.64746    
  0.765999973      -1113.03528    
  0.768000007      -7691.07715    
  0.769999981      -14678.5703    
  0.772000015      -22059.6270    
  0.773999989      -29815.3652    
  0.776000023      -37923.7617    
  0.777999997      -46359.8398    
  0.779999971      -55095.3750    
  0.782000005      -64099.3164    
  0.783999979      -73337.5391    
  0.786000013      -82772.8516    
  0.787999988      -92365.2422    
  0.790000021      -102072.062    
  0.791999996      -111847.820    
  0.794000030      -121644.625    
  0.796000004      -131412.281    
  0.797999978      -141098.188    
  0.800000012      -150647.984    
  0.801999986      -160005.391    
  0.804000020      -169112.625    
  0.805999994      -177910.672    
  0.808000028      -186339.438    
  0.810000002      -194338.156    
  0.811999977      -201845.453    
  0.814000010      -208799.906    
  0.815999985      -215140.438    
  0.818000019      -220806.594    
  0.819999993      -225738.297    
  0.822000027      -229877.078    
  0.824000001      -233166.000    
  0.825999975      -235550.203    
  0.828000009      -236976.828    
  0.829999983      -237395.891    
  0.832000017      -236760.625    
  0.833999991      -235027.547    
  0.836000025      -232156.844    
  0.838000000      -228112.891    
  0.839999974      -222864.484    
  0.842000008      -216385.547    
  0.843999982      -208654.438    
  0.846000016      -199655.469    
  0.847999990      -189378.141    
  0.850000024      -177818.047    
  0.851999998      -164977.312    
  0.853999972      -150863.750    
  0.856000006      -135491.859    
  0.857999980      -118883.258    
  0.860000014      -101065.742    
  0.861999989      -82073.8516    
  0.864000022      -61949.3711    
  0.865999997      -40741.4219    
  0.867999971      -18504.8906    
  0.870000005       4698.08984    
  0.871999979       28798.5156    
  0.874000013       53720.8438    
  0.875999987       79383.4062    
  0.878000021       105698.555    
  0.879999995       132572.125    
  0.882000029       159904.953    
  0.884000003       187592.797    
  0.885999978       215526.109    
  0.888000011       243590.547    
  0.889999986       271669.500    
  0.892000020       299641.469    
  0.893999994       327381.906    
  0.896000028       354764.594    
  0.898000002       381661.281    
  0.899999976       407942.500    
  0.902000010       433478.156    
  0.903999984       458138.594    
  0.906000018       481793.938    
  0.907999992       504317.250    
  0.910000026       525582.688    
  0.912000000       545467.188    
  0.913999975       563851.625    
  0.916000009       580620.812    
  0.917999983       595665.375    
  0.920000017       608879.750    
  0.921999991       620166.062    
  0.924000025       629433.000    
  0.925999999       636596.062    
  0.927999973       641579.938    
  0.930000007       644317.000    
  0.931999981       644749.812    
  0.934000015       642829.250    
  0.935999990       638517.250    
  0.938000023       631786.500    
  0.939999998       622619.125    
  0.941999972       611009.500    
  0.944000006       596963.000    
  0.945999980       580496.188    
  0.948000014       561637.312    
  0.949999988       540426.500    
  0.952000022       516915.406    
  0.953999996       491166.250    
  0.955999970       463253.938    
  0.958000004       433262.531    
  0.959999979       401288.875    
  0.962000012       367438.938    
  0.963999987       331828.719    
  0.966000021       294583.562    
  0.967999995       255838.438    
  0.970000029       215735.812    
  0.972000003       174425.188    
  0.973999977       132063.750    
  0.976000011       88814.2031    
  0.977999985       44845.4141    
  0.980000019       329.109344    
  0.981999993      -44558.8164    
  0.984000027      -89638.8828    
  0.986000001      -134732.578    
  0.987999976      -179657.891    
  0.990000010      -224235.625    
  0.991999984      -268284.938    
  0.994000018      -311631.875    
  0.995999992      -354100.594    
  0.998000026      -395522.406    
   1.00000000      -435733.719    
   1.00199997      -474575.781    
   1.00399995      -511896.656    
   1.00600004      -547552.438    
   1.00800002      -581407.312    
   1.00999999      -613335.125    
   1.01199996      -643218.875    
   1.01400006      -670951.750    
   1.01600003      -696439.062    
   1.01800001      -719594.875    
   1.01999998      -740347.562    
   1.02199996      -758635.500    
   1.02400005      -774408.812    
   1.02600002      -787632.688    
   1.02800000      -798281.250    
   1.02999997      -806343.812    
   1.03199995      -811820.750    
   1.03400004      -814723.750    
   1.03600001      -815076.062    
   1.03799999      -812913.875    
   1.03999996      -808284.188    
   1.04200006      -801243.125    
   1.04400003      -791859.188    
   1.04600000      -780207.562    
   1.04799998      -766373.500    
   1.04999995      -750451.438    
   1.05200005      -732540.750    
   1.05400002      -712749.312    
   1.05599999      -691190.562    
   1.05799997      -667981.625    
   1.05999994      -643245.250    
   1.06200004      -617106.250    
   1.06400001      -589692.562    
   1.06599998      -561133.375    
   1.06799996      -531558.062    
   1.07000005      -501096.281    
   1.07200003      -469876.406    
   1.07400000      -438026.062    
   1.07599998      -405669.062    
   1.07799995      -372926.969    
   1.08000004      -339916.062    
   1.08200002      -306750.844    
   1.08399999      -273537.719    
   1.08599997      -240381.031    
   1.08800006      -207375.766    
   1.09000003      -174612.688    
   1.09200001      -142175.719    
   1.09399998      -110142.305    
   1.09599996      -78581.9219    
   1.09800005      -47558.0117    
   1.10000002      -17127.3379    
   1.10200000       12660.5332    
   1.10399997       41764.0156    
   1.10599995       70145.6172    
   1.10800004       97777.0547    
   1.11000001       124633.844    
   1.11199999       150698.391    
   1.11399996       175957.125    
   1.11600006       200403.312    
   1.11800003       224032.344    
   1.12000000       246845.250    
   1.12199998       268845.281    
   1.12399995       290039.188    
   1.12600005       310434.969    
   1.12800002       330042.094    
   1.13000000       348872.250    
   1.13199997       366937.188    
   1.13399994       384246.844    
   1.13600004       400813.531    
   1.13800001       416645.969    
   1.13999999       431752.469    
   1.14199996       446138.594    
   1.14400005       459807.562    
   1.14600003       472761.188    
   1.14800000       484996.844    
   1.14999998       496509.062    
   1.15199995       507289.125    
   1.15400004       517324.656    
   1.15600002       526600.562    
   1.15799999       535096.500    
   1.15999997       542790.562    
   1.16199994       549656.188    
   1.16400003       555665.438    
   1.16600001       560785.125    
   1.16799998       564982.312    
   1.16999996       568220.188    
   1.17200005       570461.938    
   1.17400002       571668.188    
   1.17600000       571799.625    
   1.17799997       570817.500    
   1.17999995       568683.000    
   1.18200004       565358.875    
   1.18400002       560810.312    
   1.18599999       555003.250    
   1.18799996       547908.875    
   1.19000006       539500.875    
   1.19200003       529758.000    
   1.19400001       518665.219    
   1.19599998       506211.000    
   1.19799995       492390.781    
   1.20000005       477206.969    
   1.20200002       460668.156    
   1.20400000       442792.000    
   1.20599997       423603.281    
   1.20799994       403134.469    
   1.21000004       381426.812    
   1.21200001       358529.312    
   1.21399999       334500.531    
   1.21599996       309406.031    
   1.21800005       283319.844    
   1.22000003       256325.203    
   1.22200000       228511.797    
   1.22399998       199977.406    
   1.22599995       170825.562    
   1.22800004       141167.422    
   1.23000002       111119.281    
   1.23199999       80802.1484    
   1.23399997       50342.2148    
   1.23599994       19868.5977    
   1.23800004      -10487.6221    
   1.24000001      -40592.0820    
   1.24199998      -70311.1328    
   1.24399996      -99509.9766    
   1.24600005      -128056.000    
   1.24800003      -155817.844    
   1.25000000      -182667.859    
   1.25199997      -208482.562    
   1.25399995      -233143.156    
   1.25600004      -256536.812    
   1.25800002      -278558.750    
   1.25999999      -299110.594    
   1.26199996      -318102.906    
   1.26400006      -335456.156    
   1.26600003      -351100.188    
   1.26800001      -364976.344    
   1.26999998      -377036.438    
   1.27199996      -387244.281    
   1.27400005      -395575.594    
   1.27600002      -402018.344    
   1.27800000      -406573.125    
   1.27999997      -409252.500    
   1.28199995      -410081.719    
   1.28400004      -409098.312    
   1.28600001      -406352.156    
   1.28799999      -401903.906    
   1.28999996      -395826.281    
   1.29200006      -388202.188    
   1.29400003      -379124.375    
   1.29600000      -368695.062    
   1.29799998      -357024.594    
   1.29999995      -344231.031    
   1.30200005      -330438.500    
   1.30400002      -315777.250    
   1.30599999      -300381.750    
   1.30799997      -284389.250    
   1.30999994      -267939.594    
   1.31200004      -251172.906    
   1.31400001      -234229.734    
   1.31599998      -217248.781    
   1.31799996      -200366.141    
   1.32000005      -183713.656    
   1.32200003      -167418.375    
   1.32400000      -151601.375    
   1.32599998      -136376.562    
   1.32799995      -121849.438    
   1.33000004      -108116.734    
   1.33200002      -95264.6484    
   1.33399999      -83369.6719    
   1.33599997      -72496.2500    
   1.33800006      -62697.0977    
   1.34000003      -54012.6328    
   1.34200001      -46470.6953    
   1.34399998      -40086.2383    
   1.34599996      -34861.4102    
   1.34800005      -30785.1953    
   1.35000002      -27833.6797    
   1.35200000      -25970.7461    
   1.35399997      -25147.8691    
   1.35599995      -25305.3516    
   1.35800004      -26372.2832    
   1.36000001      -28267.4180    
   1.36199999      -30900.3145    
   1.36399996      -34171.9258    
   1.36600006      -37975.7617    
   1.36800003      -42199.3008    
   1.37000000      -46724.4023    
   1.37199998      -51428.9023    
   1.37399995      -56188.2969    
   1.37600005      -60876.5742    
   1.37800002      -65367.4492    
   1.38000000      -69535.7812    
   1.38199997      -73259.5859    
   1.38399994      -76420.0781    
   1.38600004      -78903.5859    
   1.38800001      -80603.1484    
   1.38999999      -81419.3828    
   1.39199996      -81261.1719    
   1.39400005      -80047.3516    
   1.39600003      -77707.3359    
   1.39800000      -74181.9062    
   1.39999998      -69423.9844    
   1.40199995      -63399.2461    
   1.40400004      -56086.8789    
   1.40600002      -47479.7578    
   1.40799999      -37584.2578    
   1.40999997      -26421.2617    
   1.41199994      -14025.2432    