 -0.300000012       0.00000000    
 -0.298000008       0.00000000    
 -0.296000004       0.00000000    
 -0.294000000       0.00000000    
 -0.291999996       0.00000000    
 -0.289999992       0.00000000    
 -0.287999988       0.00000000    
 -0.286000013       0.00000000    
 -0.284000009      -3.75133220E-32
 -0.282000005      -5.59953364E-31
 -0.280000001      -4.33892945E-30
 -0.277999997      -2.31588637E-29
 -0.275999993      -9.53093739E-29
 -0.273999989      -3.20862625E-28
 -0.272000015      -9.14805072E-28
 -0.270000011      -2.25516921E-27
 -0.268000007      -4.86019515E-27
 -0.266000003      -9.17678193E-27
 -0.263999999      -1.50430736E-26
 -0.261999995      -2.07775686E-26
 -0.259999990      -2.21397064E-26
 -0.257999986      -1.19592407E-26
 -0.256000012       1.80347732E-26
 -0.254000008       7.10666424E-26
 -0.252000004       1.32932849E-25
 -0.250000000       1.53364063E-25
 -0.247999996       2.55380606E-26
 -0.246000007      -4.24670942E-25
 -0.244000003      -1.41943263E-24
 -0.241999999      -3.15266111E-24
 -0.239999995      -5.63079172E-24
 -0.238000005      -8.42144200E-24
 -0.236000001      -1.03401332E-23
 -0.233999997      -9.16949355E-24
 -0.231999993      -1.58693245E-24
 -0.230000004       1.64470746E-23
 -0.228000000       4.85568752E-23
 -0.225999996       9.58597771E-23
 -0.224000007       1.53918539E-22
 -0.222000003       2.09148243E-22
 -0.219999999       2.35664105E-22
 -0.217999995       1.94206536E-22
 -0.216000006       3.53083160E-23
 -0.214000002      -2.91014802E-22
 -0.211999997      -8.17406765E-22
 -0.209999993      -1.53319815E-21
 -0.208000004      -2.35325392E-21
 -0.206000000      -3.08845956E-21
 -0.203999996      -3.42889144E-21
 -0.202000007      -2.95409946E-21
 -0.200000003      -1.18585428E-21
 -0.197999999       2.30465888E-21
 -0.195999995       7.73240682E-21
 -0.194000006       1.48896905E-20
 -0.192000002       2.29268907E-20
 -0.189999998       3.01801822E-20
 -0.187999994       3.41237109E-20
 -0.186000004       3.15331525E-20
 -0.184000000       1.89375763E-20
 -0.181999996      -6.59993072E-21
 -0.180000007      -4.63993491E-20
 -0.178000003      -9.88992844E-20
 -0.175999999      -1.58442310E-19
 -0.173999995      -2.14446806E-19
 -0.172000006      -2.51372330E-19
 -0.170000002      -2.49887308E-19
 -0.167999998      -1.89547106E-19
 -0.165999994      -5.30686640E-20
 -0.164000005       1.68057083E-19
 -0.162000000       4.67309948E-19
 -0.159999996       8.17400132E-19
 -0.158000007       1.16659174E-18
 -0.156000003       1.43883735E-18
 -0.153999999       1.53935158E-18
 -0.151999995       1.36671589E-18
 -0.150000006       8.31612956E-19
 -0.148000002      -1.19118648E-19
 -0.145999998      -1.47608623E-18
 -0.143999994      -3.14323690E-18
 -0.142000005      -4.92196535E-18
 -0.140000001      -6.50986758E-18
 -0.137999997      -7.51992294E-18
 -0.136000007      -7.52380076E-18
 -0.134000003      -6.11944578E-18
 -0.131999999      -3.01826356E-18
 -0.129999995       1.85821989E-18
 -0.128000006       8.28766483E-18
 -0.126000002       1.56815461E-17
 -0.123999998       2.30659231E-17
 -0.122000001       2.91270212E-17
 -0.119999997       3.23339475E-17
 -0.118000001       3.11402895E-17
 -0.115999997       2.42522788E-17
 -0.114000000       1.09353980E-17
 -0.112000003      -8.68386697E-18
 -0.109999999      -3.33758013E-17
 -0.108000003      -6.06842594E-17
 -0.105999999      -8.69771547E-17
 -0.104000002      -1.07709815E-16
 -0.101999998      -1.17913630E-16
 -0.100000001      -1.12887350E-16
  -9.79999974E-02  -8.90275964E-17
  -9.60000008E-02  -4.46969294E-17
  -9.39999968E-02   1.90039766E-17
  -9.20000002E-02   9.77083871E-17
  -9.00000036E-02   1.83642738E-16
  -8.79999995E-02   2.65985021E-16
  -8.60000029E-02   3.31778570E-16
  -8.39999989E-02   3.67380450E-16
  -8.20000023E-02   3.60335016E-16
  -7.99999982E-02   3.01472764E-16
  -7.80000016E-02   1.86961533E-16
  -7.59999976E-02   1.99890544E-17
  -7.40000010E-02  -1.88245542E-16
  -7.19999969E-02  -4.18509530E-16
  -7.00000003E-02  -6.44663171E-16
  -6.80000037E-02  -8.35974720E-16
  -6.59999996E-02  -9.60491846E-16
  -6.40000030E-02  -9.89160311E-16
  -6.19999990E-02  -9.00225346E-16
  -5.99999987E-02  -6.83334407E-16
  -5.79999983E-02  -3.42726656E-16
  -5.60000017E-02   1.01066476E-16
  -5.40000014E-02   6.11446721E-16
  -5.20000011E-02   1.13812016E-15
  -5.00000007E-02   1.62156062E-15
  -4.80000004E-02   1.99921163E-15
  -4.60000001E-02   2.21279438E-15
  -4.39999998E-02   2.21587038E-15
  -4.19999994E-02   1.98069083E-15
  -3.99999991E-02   1.50337538E-15
  -3.79999988E-02   8.06611053E-16
  -3.59999985E-02  -6.06649695E-17
  -3.40000018E-02  -1.02676169E-15
  -3.20000015E-02  -2.00365834E-15
  -2.99999993E-02  -2.89569479E-15
  -2.80000009E-02  -3.60953011E-15
  -2.60000005E-02  -4.06416742E-15
  -2.40000002E-02  -4.19979349E-15
  -2.19999999E-02  -3.98431762E-15
  -1.99999996E-02  -3.41679115E-15
  -1.79999992E-02  -2.52731952E-15
  -1.60000008E-02  -1.37356652E-15
  -1.40000004E-02  -3.44298776E-17
  -1.20000001E-02   1.39813408E-15
  -9.99999978E-03   2.82791902E-15
  -8.00000038E-03   4.16264559E-15
  -6.00000005E-03   5.32040495E-15
  -4.00000019E-03   6.23361573E-15
  -2.00000009E-03   6.85022268E-15
   0.00000000       7.13241044E-15
   2.00000009E-03   7.05359614E-15
   4.00000019E-03   6.59483293E-15
   6.00000005E-03   5.74193894E-15
   8.00000038E-03   4.48455029E-15
   9.99999978E-03   2.81799285E-15
   1.20000001E-02   7.48307393E-16
   1.40000004E-02  -1.69992355E-15
   1.60000008E-02  -4.47399415E-15
   1.79999992E-02  -7.48339548E-15
   1.99999996E-02  -1.05920970E-14
   2.19999999E-02  -1.36149501E-14
   2.40000002E-02  -1.63201124E-14
   2.60000005E-02  -1.84388061E-14
   2.80000009E-02  -1.96828248E-14
   2.99999993E-02  -1.97691595E-14
   3.20000015E-02  -1.84499666E-14
   3.40000018E-02  -1.55451180E-14
   3.59999985E-02  -1.09738776E-14
   3.79999988E-02  -4.78184361E-15
   3.99999991E-02   2.84055485E-15
   4.19999994E-02   1.15511264E-14
   4.39999998E-02   2.08626756E-14
   4.60000001E-02   3.01642595E-14
   4.80000004E-02   3.87562297E-14
   5.00000007E-02   4.58969343E-14
   5.20000011E-02   5.08576268E-14
   5.40000014E-02   5.29812197E-14
   5.60000017E-02   5.17400149E-14
   5.79999983E-02   4.67875691E-14
   5.99999987E-02   3.80002866E-14
   6.19999990E-02   2.55053326E-14
   6.40000030E-02   9.69248621E-15
   6.59999996E-02  -8.79101445E-15
   6.80000037E-02  -2.90623476E-14
   7.00000003E-02  -5.00402705E-14
   7.19999969E-02  -7.04952725E-14
   7.40000010E-02  -8.91098447E-14
   7.59999976E-02  -1.04545855E-13
   7.80000016E-02  -1.15515860E-13
   7.99999982E-02  -1.20855718E-13
   8.20000023E-02  -1.19595807E-13
   8.39999989E-02  -1.11028774E-13
   8.60000029E-02  -9.47715891E-14
   8.79999995E-02  -7.08197403E-14
   9.00000036E-02  -3.95910992E-14
   9.20000002E-02  -1.95660037E-15
   9.39999968E-02   4.07456966E-14
   9.60000008E-02   8.67170173E-14
   9.79999974E-02   1.33728667E-13
  0.100000001       1.79181011E-13
  0.101999998       2.20193682E-13
  0.104000002       2.53728245E-13
  0.105999999       2.76743201E-13
  0.108000003       2.86377286E-13
  0.109999999       2.80155293E-13
  0.112000003       2.56205647E-13
  0.114000000       2.13476684E-13
  0.115999997       1.51935742E-13
  0.118000001       7.27325982E-14
  0.119999997      -2.16916125E-14
  0.122000001      -1.27567350E-13
  0.123999998      -2.39847367E-13
  0.126000002      -3.52355271E-13
  0.128000006      -4.58036983E-13
  0.129999995      -5.49311627E-13
  0.131999999      -6.18510614E-13
  0.134000003      -6.58384480E-13
  0.136000007      -6.62648918E-13
  0.137999997      -6.26534740E-13
  0.140000001      -5.47301625E-13
  0.142000005      -4.24673101E-13
  0.143999994      -2.61151344E-13
  0.145999998      -6.21756200E-14
  0.148000002       1.63904697E-13
  0.150000006       4.06059816E-13
  0.151999995       6.51016025E-13
  0.153999999       8.83888232E-13
  0.156000003       1.08898199E-12
  0.158000007       1.25072435E-12
  0.159999996       1.35467115E-12
  0.162000000       1.38852558E-12
  0.164000005       1.34310423E-12
  0.165999994       1.21317995E-12
  0.167999998       9.98137445E-13
  0.170000002       7.02390186E-13
  0.172000006       3.35514982E-13
  0.173999995      -8.79184082E-14
  0.175999999      -5.48827097E-13
  0.178000003      -1.02439032E-12
  0.180000007      -1.48908609E-12
  0.181999996      -1.91593746E-12
  0.184000000      -2.27790508E-12
  0.186000004      -2.54935157E-12
  0.187999994      -2.70749807E-12
  0.189999998      -2.73379930E-12
  0.192000002      -2.61515939E-12
  0.194000006      -2.34492699E-12
  0.195999995      -1.92362207E-12
  0.197999999      -1.35935306E-12
  0.200000003      -6.67902962E-13
  0.202000007       1.27515958E-13
  0.203999996       9.96842149E-13
  0.206000000       1.90405460E-12
  0.208000004       2.80835056E-12
  0.209999993       3.66557566E-12
  0.211999997       4.42987270E-12
  0.214000002       5.05549986E-12
  0.216000006       5.49878329E-12
  0.217999995       5.72014224E-12
  0.219999999       5.68613559E-12
  0.222000003       5.37146716E-12
  0.224000007       4.76086748E-12
  0.225999996       3.85077343E-12
  0.228000000       2.65071602E-12
  0.230000004       1.18430688E-12
  0.231999993      -5.10262622E-13
  0.233999997      -2.38031339E-12
  0.236000001      -4.35943599E-12
  0.238000005      -6.36897349E-12
  0.239999995      -8.32024640E-12
  0.241999999      -1.01175110E-11
  0.244000003      -1.16615788E-11
  0.246000007      -1.28539844E-11
  0.247999996      -1.36015400E-11
  0.250000000      -1.38210632E-11
  0.252000004      -1.34440540E-11
  0.254000008      -1.24210382E-11
  0.256000012      -1.07253312E-11
  0.257999986      -8.35596609E-12
  0.259999990      -5.33958208E-12
  0.261999995      -1.73109292E-12
  0.263999999       2.38694307E-12
  0.266000003       6.90630018E-12
  0.268000007       1.16963444E-11
  0.270000011       1.66084681E-11
  0.272000015       2.14814954E-11
  0.273999989       2.61478287E-11
  0.275999993       3.04400637E-11
  0.277999997       3.41977696E-11
  0.280000001       3.72741213E-11
  0.282000005       3.95421404E-11
  0.284000009       4.09002797E-11
  0.286000013       4.12771275E-11
  0.287999988       4.06351237E-11
  0.289999992       3.89731164E-11
  0.291999996       3.63277776E-11
  0.294000000       3.27738288E-11
  0.296000004       2.84231059E-11
  0.298000008       2.34225781E-11
  0.300000012       1.79513418E-11
  0.301999986       1.22167519E-11
  0.303999990       6.44980206E-12
  0.305999994       8.99876799E-13
  0.307999998      -4.17098257E-12
  0.310000002      -8.49413335E-12
  0.312000006      -1.18005787E-11
  0.314000010      -1.38272354E-11
  0.316000015      -1.43230592E-11
  0.317999989      -1.30548740E-11
  0.319999993      -9.81276258E-12
  0.321999997      -4.41485650E-12
  0.324000001       3.28858902E-12
  0.326000005       1.34119122E-11
  0.328000009       2.60316074E-11
  0.330000013       4.11847709E-11
  0.331999987       5.88683199E-11
  0.333999991       7.90389559E-11
  0.335999995       1.01613620E-10
  0.338000000       1.26470293E-10
  0.340000004       1.53448892E-10
  0.342000008       1.82351814E-10
  0.344000012       2.12944024E-10
  0.345999986       2.44952003E-10
  0.347999990       2.78061740E-10
  0.349999994       3.11914827E-10
  0.351999998       3.46103229E-10
  0.354000002       3.80161624E-10
  0.356000006       4.13557910E-10
  0.358000010       4.45681853E-10
  0.360000014       4.75831596E-10
  0.361999989       5.03198927E-10
  0.363999993       5.26852784E-10
  0.365999997       5.45722856E-10
  0.368000001       5.58582236E-10
  0.370000005       5.64031266E-10
  0.372000009       5.60482605E-10
  0.374000013       5.46148071E-10
  0.375999987       5.19029097E-10
  0.377999991       4.76910400E-10
  0.379999995       4.17358786E-10
  0.381999999       3.37726735E-10
  0.384000003       2.35163167E-10
  0.386000007       1.06630302E-10
  0.388000011      -5.10713971E-11
  0.389999986      -2.41269726E-10
  0.391999990      -4.67377970E-10
  0.393999994      -7.32842176E-10
  0.395999998      -1.04107756E-09
  0.398000002      -1.39539313E-09
  0.400000006      -1.79890358E-09
  0.402000010      -2.25442864E-09
  0.404000014      -2.76437628E-09
  0.405999988      -3.33061378E-09
  0.407999992      -3.95432220E-09
  0.409999996      -4.63583394E-09
  0.412000000      -5.37445866E-09
  0.414000005      -6.16829032E-09
  0.416000009      -7.01400493E-09
  0.418000013      -7.90664334E-09
  0.419999987      -8.83938345E-09
  0.421999991      -9.80331283E-09
  0.423999995      -1.07871916E-08
  0.425999999      -1.17772192E-08
  0.428000003      -1.27568143E-08
  0.430000007      -1.37064049E-08
  0.432000011      -1.46032368E-08
  0.433999985      -1.54212234E-08
  0.435999990      -1.61308247E-08
  0.437999994      -1.66989782E-08
  0.439999998      -1.70890964E-08
  0.442000002      -1.72611312E-08
  0.444000006      -1.71717183E-08
  0.446000010      -1.67744272E-08
  0.448000014      -1.60201186E-08
  0.449999988      -1.48574246E-08
  0.451999992      -1.32333504E-08
  0.453999996      -1.10940563E-08
  0.456000000      -8.38575609E-09
  0.458000004      -5.05581932E-09
  0.460000008      -1.05402287E-09
  0.462000012       3.66599862E-09
  0.463999987       9.14512732E-09
  0.465999991       1.54169513E-08
  0.467999995       2.25057750E-08
  0.469999999       3.04244629E-08
  0.472000003       3.91721180E-08
  0.474000007       4.87316498E-08
  0.476000011       5.90671903E-08
  0.477999985       7.01214589E-08
  0.479999989       8.18130843E-08
  0.481999993       9.40339078E-08
  0.483999997       1.06646354E-07
  0.486000001       1.19480944E-07
  0.488000005       1.32333824E-07
  0.490000010       1.44964815E-07
  0.492000014       1.57095499E-07
  0.493999988       1.68407794E-07
  0.495999992       1.78543104E-07
  0.497999996       1.87101961E-07
  0.500000000       1.93644198E-07
  0.501999974       1.97690099E-07
  0.504000008       1.98722219E-07
  0.505999982       1.96188154E-07
  0.508000016       1.89504348E-07
  0.509999990       1.78060873E-07
  0.512000024       1.61227490E-07
  0.513999999       1.38360747E-07
  0.515999973       1.08812472E-07
  0.518000007       7.19393256E-08
  0.519999981       2.71137992E-08
  0.522000015      -2.62636703E-08
  0.523999989      -8.87513210E-08
  0.526000023      -1.60851542E-07
  0.527999997      -2.42995384E-07
  0.529999971      -3.35526039E-07
  0.532000005      -4.38681496E-07
  0.533999979      -5.52576694E-07
  0.536000013      -6.77185596E-07
  0.537999988      -8.12322298E-07
  0.540000021      -9.57623001E-07
  0.541999996      -1.11252848E-06
  0.544000030      -1.27626652E-06
  0.546000004      -1.44783633E-06
  0.547999978      -1.62599417E-06
  0.550000012      -1.80924076E-06
  0.551999986      -1.99581109E-06
  0.554000020      -2.18366722E-06
  0.555999994      -2.37049403E-06
  0.558000028      -2.55369810E-06
  0.560000002      -2.73041201E-06
  0.561999977      -2.89750164E-06
  0.564000010      -3.05157960E-06
  0.565999985      -3.18902175E-06
  0.568000019      -3.30599119E-06
  0.569999993      -3.39846815E-06
  0.572000027      -3.46228398E-06
  0.574000001      -3.49316224E-06
  0.575999975      -3.48676576E-06
  0.578000009      -3.43875126E-06
  0.579999983      -3.34482706E-06
  0.582000017      -3.20081858E-06
  0.583999991      -3.00274019E-06
  0.586000025      -2.74686977E-06
  0.588000000      -2.42983037E-06
  0.589999974      -2.04867365E-06
  0.592000008      -1.60096909E-06
  0.593999982      -1.08489394E-06
  0.596000016      -4.99324472E-07
  0.597999990       1.56070257E-07
  0.600000024       8.80736536E-07
  0.601999998       1.67314556E-06
  0.603999972       2.53070584E-06
  0.606000006       3.44968043E-06
  0.607999980       4.42510827E-06
  0.610000014       5.45073635E-06
  0.611999989       6.51895334E-06
  0.614000022       7.62074205E-06
  0.615999997       8.74563921E-06
  0.617999971       9.88170177E-06
  0.620000005       1.10154997E-05
  0.621999979       1.21321164E-05
  0.624000013       1.32151672E-05
  0.625999987       1.42468325E-05
  0.628000021       1.52079165E-05
  0.629999995       1.60779200E-05
  0.632000029       1.68351326E-05
  0.634000003       1.74567485E-05
  0.635999978       1.79190047E-05
  0.638000011       1.81973228E-05
  0.639999986       1.82665081E-05
  0.642000020       1.81009200E-05
  0.643999994       1.76747017E-05
  0.646000028       1.69620052E-05
  0.648000002       1.59372357E-05
  0.649999976       1.45753311E-05
  0.652000010       1.28520178E-05
  0.653999984       1.07441138E-05
  0.656000018       8.22981929E-06
  0.657999992       5.28902183E-06
  0.660000026       1.90360106E-06
  0.662000000      -1.94226027E-06
  0.663999975      -6.26177098E-06
  0.666000009      -1.10652327E-05
  0.667999983      -1.63597451E-05
  0.670000017      -2.21489245E-05
  0.671999991      -2.84326470E-05
  0.674000025      -3.52067837E-05
  0.675999999      -4.24629980E-05
  0.677999973      -5.01885261E-05
  0.680000007      -5.83660003E-05
  0.681999981      -6.69733417E-05
  0.684000015      -7.59835966E-05
  0.685999990      -8.53649472E-05
  0.688000023      -9.50805697E-05
  0.689999998      -1.05088737E-04
  0.691999972      -1.15342809E-04
  0.694000006      -1.25791368E-04
  0.695999980      -1.36378309E-04
  0.698000014      -1.47043087E-04
  0.699999988      -1.57720875E-04
  0.702000022      -1.68342871E-04
  0.703999996      -1.78836621E-04
  0.705999970      -1.89126353E-04
  0.708000004      -1.99133399E-04
  0.709999979      -2.08776619E-04
  0.712000012      -2.17972905E-04
  0.713999987      -2.26637683E-04
  0.716000021      -2.34685416E-04
  0.717999995      -2.42030248E-04
  0.720000029      -2.48586526E-04
  0.722000003      -2.54269486E-04
  0.723999977      -2.58995715E-04
  0.726000011      -2.62684043E-04
  0.727999985      -2.65256036E-04
  0.730000019      -2.66636634E-04
  0.731999993      -2.66754825E-04
  0.734000027      -2.65544193E-04
  0.736000001      -2.62943766E-04
  0.737999976      -2.58898363E-04
  0.740000010      -2.53359234E-04
  0.741999984      -2.46284646E-04
  0.744000018      -2.37640430E-04
  0.745999992      -2.27400305E-04
  0.748000026      -2.15546461E-04
  0.750000000      -2.02069758E-04
  0.751999974      -1.86970254E-04
  0.754000008      -1.70257277E-04
  0.755999982      -1.51949833E-04
  0.758000016      -1.32076602E-04
  0.759999990      -1.10676119E-04
  0.762000024      -8.77968123E-05
  0.763999999      -6.34969474E-05
  0.765999973      -3.78445184E-05
  0.768000007      -1.09171306E-05
  0.769999981       1.71982610E-05
  0.772000015       4.64056066E-05
  0.773999989       7.66001394E-05
  0.776000023       1.07668784E-04
  0.777999997       1.39490614E-04
  0.779999971       1.71937369E-04
  0.782000005       2.04874057E-04
  0.783999979       2.38159613E-04
  0.786000013       2.71647528E-04
  0.787999988       3.05186550E-04
  0.790000021       3.38621554E-04
  0.791999996       3.71794158E-04
  0.794000030       4.04543796E-04
  0.796000004       4.36708273E-04
  0.797999978       4.68124868E-04
  0.800000012       4.98631096E-04
  0.801999986       5.28065721E-04
  0.804000020       5.56269544E-04
  0.805999994       5.83086279E-04
  0.808000028       6.08363654E-04
  0.810000002       6.31953997E-04
  0.811999977       6.53715339E-04
  0.814000010       6.73512346E-04
  0.815999985       6.91216905E-04
  0.818000019       7.06708990E-04
  0.819999993       7.19877426E-04
  0.822000027       7.30620639E-04
  0.824000001       7.38847419E-04
  0.825999975       7.44477264E-04
  0.828000009       7.47441314E-04
  0.829999983       7.47682410E-04
  0.832000017       7.45156081E-04
  0.833999991       7.39830430E-04
  0.836000025       7.31686770E-04
  0.838000000       7.20719807E-04
  0.839999974       7.06937804E-04
  0.842000008       6.90362474E-04
  0.843999982       6.71029557E-04
  0.846000016       6.48988062E-04
  0.847999990       6.24300737E-04
  0.850000024       5.97043603E-04
  0.851999998       5.67305658E-04
  0.853999972       5.35188534E-04
  0.856000006       5.00805967E-04
  0.857999980       4.64283745E-04
  0.860000014       4.25758451E-04
  0.861999989       3.85377352E-04
  0.864000022       3.43297317E-04
  0.865999997       2.99684325E-04
  0.867999971       2.54712504E-04
  0.870000005       2.08563200E-04
  0.871999979       1.61424075E-04
  0.874000013       1.13488197E-04
  0.875999987       6.49528884E-05
  0.878000021       1.60188174E-05
  0.879999995      -3.31111878E-05
  0.882000029      -8.22331567E-05
  0.884000003      -1.31143112E-04
  0.885999978      -1.79638169E-04
  0.888000011      -2.27517623E-04
  0.889999986      -2.74584047E-04
  0.892000020      -3.20644409E-04
  0.893999994      -3.65511078E-04
  0.896000028      -4.09002765E-04
  0.898000002      -4.50945634E-04
  0.899999976      -4.91174171E-04
  0.902000010      -5.29531972E-04
  0.903999984      -5.65872819E-04
  0.906000018      -6.00060856E-04
  0.907999992      -6.31972100E-04
  0.910000026      -6.61494210E-04
  0.912000000      -6.88527594E-04
  0.913999975      -7.12985639E-04
  0.916000009      -7.34794943E-04
  0.917999983      -7.53895787E-04
  0.920000017      -7.70242361E-04
  0.921999991      -7.83802476E-04
  0.924000025      -7.94558087E-04
  0.925999999      -8.02504714E-04
  0.927999973      -8.07651784E-04
  0.930000007      -8.10022000E-04
  0.931999981      -8.09651217E-04
  0.934000015      -8.06587865E-04
  0.935999990      -8.00892594E-04
  0.938000023      -7.92637700E-04
  0.939999998      -7.81906536E-04
  0.941999972      -7.68792641E-04
  0.944000006      -7.53399334E-04
  0.945999980      -7.35838839E-04
  0.948000014      -7.16231356E-04
  0.949999988      -6.94704358E-04
  0.952000022      -6.71391666E-04
  0.953999996      -6.46432687E-04
  0.955999970      -6.19971310E-04
  0.958000004      -5.92155149E-04
  0.959999979      -5.63134847E-04
  0.962000012      -5.33062674E-04
  0.963999987      -5.02092182E-04
  0.966000021      -4.70376865E-04
  0.967999995      -4.38069750E-04
  0.970000029      -4.05322353E-04
  0.972000003      -3.72283917E-04
  0.973999977      -3.39100719E-04
  0.976000011      -3.05915339E-04
  0.977999985      -2.72865989E-04
  0.980000019      -2.40085952E-04
  0.981999993      -2.07702877E-04
  0.984000027      -1.75838446E-04
  0.986000001      -1.44607708E-04
  0.987999976      -1.14118804E-04
  0.990000010      -8.44724782E-05
  0.991999984      -5.57618259E-05
  0.994000018      -2.80719578E-05
  0.995999992      -1.47981007E-06
  0.998000026       2.39460624E-05
   1.00000000       4.81456191E-05
   1.00199997       7.10674067E-05
   1.00399995       9.26686043E-05
   1.00600004       1.12915055E-04
   1.00800002       1.31781184E-04
   1.00999999       1.49249958E-04
   1.01199996       1.65312726E-04
   1.01400006       1.79969065E-04
   1.01600003       1.93226602E-04
   1.01800001       2.05100776E-04
   1.01999998       2.15614476E-04
   1.02199996       2.24797972E-04
   1.02400005       2.32688282E-04
   1.02600002       2.39329107E-04
   1.02800000       2.44770315E-04
   1.02999997       2.49067380E-04
   1.03199995       2.52281199E-04
   1.03400004       2.54477462E-04
   1.03600001       2.55726132E-04
   1.03799999       2.56101193E-04
   1.03999996       2.55679741E-04
   1.04200006       2.54541694E-04
   1.04400003       2.52769183E-04
   1.04600000       2.50446028E-04
   1.04799998       2.47657066E-04
   1.04999995       2.44487572E-04
   1.05200005       2.41022659E-04
   1.05400002       2.37346831E-04
   1.05599999       2.33543309E-04
   1.05799997       2.29693323E-04
   1.05999994       2.25875818E-04
   1.06200004       2.22166622E-04
   1.06400001       2.18638175E-04
   1.06599998       2.15358799E-04
   1.06799996       2.12392377E-04
   1.07000005       2.09797858E-04
   1.07200003       2.07628793E-04
   1.07400000       2.05933000E-04
   1.07599998       2.04752272E-04
   1.07799995       2.04121956E-04
   1.08000004       2.04070835E-04
   1.08200002       2.04620927E-04
   1.08399999       2.05787248E-04
   1.08599997       2.07577817E-04
   1.08800006       2.09993595E-04
   1.09000003       2.13028514E-04
   1.09200001       2.16669534E-04
   1.09399998       2.20896807E-04
   1.09599996       2.25683849E-04
   1.09800005       2.30997786E-04
   1.10000002       2.36799679E-04
   1.10200000       2.43044837E-04
   1.10399997       2.49683158E-04
   1.10599995       2.56659609E-04
   1.10800004       2.63914670E-04
   1.11000001       2.71384808E-04
   1.11199999       2.79002998E-04
   1.11399996       2.86699185E-04
   1.11600006       2.94400990E-04
   1.11800003       3.02034197E-04
   1.12000000       3.09523282E-04
   1.12199998       3.16792022E-04
   1.12399995       3.23764019E-04
   1.12600005       3.30363458E-04
   1.12800002       3.36515397E-04
   1.13000000       3.42146435E-04
   1.13199997       3.47185211E-04
   1.13399994       3.51562805E-04
   1.13600004       3.55213386E-04
   1.13800001       3.58074380E-04
   1.13999999       3.60086997E-04
   1.14199996       3.61196435E-04
   1.14400005       3.61352402E-04
   1.14600003       3.60509061E-04
   1.14800000       3.58625606E-04
   1.14999998       3.55666125E-04
   1.15199995       3.51599912E-04
   1.15400004       3.46401532E-04
   1.15600002       3.40050843E-04
   1.15799999       3.32533207E-04
   1.15999997       3.23839369E-04
   1.16199994       3.13965429E-04
   1.16400003       3.02912842E-04
   1.16600001       2.90688360E-04
   1.16799998       2.77303916E-04
   1.16999996       2.62776506E-04
   1.17200005       2.47127988E-04
   1.17400002       2.30385063E-04
   1.17600000       2.12579005E-04
   1.17799997       1.93745494E-04
   1.17999995       1.73924476E-04
   1.18200004       1.53159985E-04
   1.18400002       1.31499983E-04
   1.18599999       1.08996115E-04
   1.18799996       8.57036430E-05
   1.19000006       6.16811667E-05
   1.19200003       3.69904956E-05
   1.19400001       1.16964711E-05
   1.19599998      -1.41332312E-05
   1.19799995      -4.04282691E-05
   1.20000005      -6.71158341E-05
   1.20200002      -9.41208054E-05
   1.20400000      -1.21365978E-04
   1.20599997      -1.48772247E-04
   1.20799994      -1.76258807E-04
   1.21000004      -2.03743359E-04
   1.21200001      -2.31142330E-04
   1.21399999      -2.58371059E-04
   1.21599996      -2.85344169E-04
   1.21800005      -3.11975629E-04
   1.22000003      -3.38179176E-04
   1.22200000      -3.63868516E-04
   1.22399998      -3.88957618E-04
   1.22599995      -4.13361035E-04
   1.22800004      -4.36994218E-04
   1.23000002      -4.59773844E-04
   1.23199999      -4.81618219E-04
   1.23399997      -5.02447423E-04
   1.23599994      -5.22183895E-04
   1.23800004      -5.40752604E-04
   1.24000001      -5.58081374E-04
   1.24199998      -5.74101578E-04
   1.24399996      -5.88748022E-04
   1.24600005      -6.01959531E-04
   1.24800003      -6.13679120E-04
   1.25000000      -6.23854634E-04
   1.25199997      -6.32438576E-04
   1.25399995      -6.39388745E-04
   1.25600004      -6.44668180E-04
   1.25800002      -6.48245856E-04
   1.25999999      -6.50096219E-04
   1.26199996      -6.50200120E-04
   1.26400006      -6.48544170E-04
   1.26600003      -6.45121560E-04
   1.26800001      -6.39931764E-04
   1.26999998      -6.32980489E-04
   1.27199996      -6.24280074E-04
   1.27400005      -6.13849203E-04
   1.27600002      -6.01712789E-04
   1.27800000      -5.87902032E-04
   1.27999997      -5.72454359E-04
   1.28199995      -5.55413135E-04
   1.28400004      -5.36827662E-04
   1.28600001      -5.16752596E-04
   1.28799999      -4.95248416E-04
   1.28999996      -4.72380343E-04
   1.29200006      -4.48218692E-04
   1.29400003      -4.22838377E-04
   1.29600000      -3.96318472E-04
   1.29799998      -3.68742069E-04
   1.29999995      -3.40195926E-04
   1.30200005      -3.10770061E-04
   1.30400002      -2.80557520E-04
   1.30599999      -2.49653938E-04
   1.30799997      -2.18157351E-04
   1.30999994      -1.86167759E-04
   1.31200004      -1.53786837E-04
   1.31400001      -1.21117635E-04
   1.31599998      -8.82641980E-05
   1.31799996      -5.53312639E-05
   1.32000005      -2.24239284E-05
   1.32200003       1.03526863E-05
   1.32400000       4.28937819E-05
   1.32599998       7.50952095E-05
   1.32799995       1.06853804E-04
   1.33000004       1.38067728E-04
   1.33200002       1.68636805E-04
   1.33399999       1.98462789E-04
   1.33599997       2.27449782E-04
   1.33800006       2.55504507E-04
   1.34000003       2.82536639E-04
   1.34200001       3.08459101E-04
   1.34399998       3.33188480E-04
   1.34599996       3.56645294E-04
   1.34800005       3.78754397E-04
   1.35000002       3.99445213E-04
   1.35200000       4.18652227E-04
   1.35399997       4.36315226E-04
   1.35599995       4.52379696E-04
   1.35800004       4.66797064E-04
   1.36000001       4.79525246E-04
   1.36199999       4.90528648E-04
   1.36399996       4.99778544E-04
   1.36600006       5.07253513E-04
   1.36800003       5.12939354E-04
   1.37000000       5.16829372E-04
   1.37199998       5.18924673E-04
   1.37399995       5.19234047E-04
   1.37600005       5.17774257E-04
   1.37800002       5.14569809E-04
   1.38000000       5.09653124E-04
   1.38199997       5.03064599E-04
   1.38399994       4.94852196E-04
   1.38600004       4.85071389E-04
   1.38800001       4.73785069E-04
   1.38999999       4.61063202E-04
   1.39199996       4.46982333E-04
   1.39400005       4.31625434E-04
   1.39600003       4.15081275E-04
   1.39800000       3.97444004E-04
   1.39999998       3.78812401E-04
   1.40199995       3.59289581E-04
   1.40400004       3.38982034E-04
   1.40600002       3.17999162E-04
   1.40799999       2.96452490E-04
   1.40999997       2.74454855E-04
   1.41199994       2.52119935E-04