 -0.622799993       0.00000000    
 -0.610800028       0.00000000    
 -0.598800004       0.00000000    
 -0.586799979       1.07933412E-16
 -0.574800014       7.37176639E-16
 -0.562799990       2.76418974E-15
 -0.550800025       7.37365220E-15
 -0.538800001       1.52547568E-14
 -0.526799977       2.49787814E-14
 -0.514800012       3.08572815E-14
 -0.502799988       2.12306437E-14
 -0.490799993      -2.13731332E-14
 -0.478799999      -1.16883662E-13
 -0.466800004      -2.80836850E-13
 -0.454800010      -5.15578086E-13
 -0.442799985      -8.03149214E-13
 -0.430799991      -1.10479627E-12
 -0.418799996      -1.37155478E-12
 -0.406800002      -1.56756661E-12
 -0.394800007      -1.70304233E-12
 -0.382800013      -1.86850622E-12
 -0.370799989      -2.25825435E-12
 -0.358799994      -3.17088868E-12
 -0.346799999      -4.97950379E-12
 -0.334800005      -8.07312203E-12
 -0.322800010      -1.27819933E-11
 -0.310799986      -1.93087699E-11
 -0.298799992      -2.76915105E-11
 -0.286799997      -3.78203649E-11
 -0.274800003      -4.95172688E-11
 -0.262800008      -6.26697930E-11
 -0.250800014      -7.73913642E-11
 -0.238800004      -9.41664871E-11
 -0.226799995      -1.13936631E-10
 -0.214800000      -1.38092357E-10
 -0.202800006      -1.68359104E-10
 -0.190799996      -2.06591549E-10
 -0.178800002      -2.54518406E-10
 -0.166800007      -3.13495979E-10
 -0.154799998      -3.84330651E-10
 -0.142800003      -4.67215433E-10
 -0.130799994      -5.61797664E-10
 -0.118799999      -6.67361999E-10
 -0.106799997      -7.83083876E-10
  -9.48000029E-02  -9.08292941E-10
  -8.28000009E-02  -1.04268483E-09
  -7.07999989E-02  -1.18643761E-09
  -5.88000007E-02  -1.34020839E-09
  -4.67999987E-02  -1.50501311E-09
  -3.48000005E-02  -1.68200465E-09
  -2.28000004E-02  -1.87216798E-09
  -1.08000003E-02  -2.07594786E-09
   1.20000006E-03  -2.29282038E-09
   1.31999999E-02  -2.52082200E-09
   2.52000000E-02  -2.75607448E-09
   3.72000001E-02  -2.99237701E-09
   4.91999984E-02  -3.22097748E-09
   6.12000003E-02  -3.43065754E-09
   7.32000023E-02  -3.60826391E-09
   8.51999968E-02  -3.73976761E-09
   9.71999988E-02  -3.81184728E-09
  0.109200001      -3.81388654E-09
  0.121200003      -3.74016462E-09
  0.133200005      -3.59197094E-09
  0.145199999      -3.37934525E-09
  0.157199994      -3.12220516E-09
  0.169200003      -2.85069390E-09
  0.181199998      -2.60465960E-09
  0.193200007      -2.43221576E-09
  0.205200002      -2.38731679E-09
  0.217199996      -2.52621923E-09
  0.229200006      -2.90265412E-09
  0.241200000      -3.56153618E-09
  0.253199995      -4.53120963E-09
  0.265199989      -5.81452486E-09
  0.277200013      -7.37951611E-09
  0.289200008      -9.15096354E-09
  0.301200002      -1.10045644E-08
  0.313199997      -1.27656561E-08
  0.325199991      -1.42143204E-08
  0.337199986      -1.50981663E-08
  0.349200010      -1.51532085E-08
  0.361200005      -1.41321781E-08
  0.373199999      -1.18383943E-08
  0.385199994      -8.16228862E-09
  0.397199988      -3.11692872E-09
  0.409200013       3.13156900E-09
  0.421200007       1.02428928E-08
  0.433200002       1.76945463E-08
  0.445199996       2.47903760E-08
  0.457199991       3.06882448E-08
  0.469199985       3.44483233E-08
  0.481200010       3.51021399E-08
  0.493200004       3.17406830E-08
  0.505200028       2.36176003E-08
  0.517199993       1.02609450E-08
  0.529200017      -8.41553316E-09
  0.541199982      -3.20128954E-08
  0.553200006      -5.95719989E-08
  0.565199971      -8.95358099E-08
  0.577199996      -1.19760514E-07
  0.589200020      -1.47583819E-07
  0.601199985      -1.69954362E-07
  0.613200009      -1.83620529E-07
  0.625199974      -1.85370524E-07
  0.637199998      -1.72309967E-07
  0.649200022      -1.42156878E-07
  0.661199987      -9.35305238E-08
  0.673200011      -2.62076103E-08
  0.685199976       5.86816000E-08
  0.697200000       1.58542861E-07
  0.709200025       2.69314739E-07
  0.721199989       3.85588805E-07
  0.733200014       5.00860040E-07
  0.745199978       6.07905577E-07
  0.757200003       6.99276882E-07
  0.769200027       7.67880351E-07
  0.781199992       8.07609240E-07
  0.793200016       8.13980080E-07
  0.805199981       7.84720612E-07
  0.817200005       7.20252842E-07
  0.829200029       6.24014262E-07
  0.841199994       5.02568639E-07
  0.853200018       3.65465866E-07
  0.865199983       2.24825456E-07
  0.877200007       9.46380467E-08
  0.889199972      -1.02022639E-08
  0.901199996      -7.50972333E-08
  0.913200021      -8.71185222E-08
  0.925199986      -3.64752317E-08
  0.937200010       8.20172872E-08
  0.949199975       2.67574620E-07
  0.961199999       5.12297163E-07
  0.973200023       8.00346697E-07
  0.985199988       1.10754320E-06
  0.997200012       1.40145460E-06
   1.00919998       1.64203550E-06
   1.02119994       1.78282482E-06
   1.03320003       1.77269135E-06
   1.04519999       1.55806788E-06
   1.05719995       1.08557799E-06
   1.06920004       3.04944621E-07
   1.08120000      -8.27993460E-07
   1.09319997      -2.34830236E-06
   1.10520005      -4.27922805E-06
   1.11720002      -6.62986531E-06
   1.12919998      -9.39341044E-06
   1.14119995      -1.25461465E-05
   1.15320003      -1.60472318E-05
   1.16520000      -1.98393864E-05
   1.17719996      -2.38504854E-05
   1.18920004      -2.79959822E-05
   1.20120001      -3.21821462E-05
   1.21319997      -3.63098879E-05
   1.22520006      -4.02790865E-05
   1.23720002      -4.39931464E-05
   1.24919999      -4.73636210E-05
   1.26119995      -5.03146111E-05
   1.27320004      -5.27868142E-05
   1.28520000      -5.47408563E-05
   1.29719996      -5.61599009E-05
   1.30920005      -5.70512711E-05
   1.32120001      -5.74469777E-05
   1.33319998      -5.74031656E-05
   1.34519994      -5.69984077E-05
   1.35720003      -5.63309004E-05
   1.36919999      -5.55146617E-05
   1.38119996      -5.46748743E-05
   1.39320004      -5.39424982E-05
   1.40520000      -5.34484607E-05
   1.41719997      -5.33175444E-05
   1.42920005      -5.36622611E-05
   1.44120002      -5.45769835E-05
   1.45319998      -5.61325214E-05
   1.46519995      -5.83714391E-05
   1.47720003      -6.13042794E-05
   1.48920000      -6.49069043E-05
   1.50119996      -6.91191162E-05
   1.51320004      -7.38445815E-05
   1.52520001      -7.89522892E-05
   1.53719997      -8.42793379E-05
   1.54920006      -8.96351266E-05
   1.56120002      -9.48068046E-05
   1.57319999      -9.95657392E-05
   1.58519995      -1.03674902E-04
   1.59720004      -1.06896739E-04
   1.60920000      -1.09001427E-04
   1.62119997      -1.09774963E-04
   1.63320005      -1.09026987E-04
   1.64520001      -1.06597879E-04
   1.65719998      -1.02364873E-04
   1.66919994      -9.62469348E-05
   1.68120003      -8.82082531E-05
   1.69319999      -7.82600837E-05
   1.70519996      -6.64610416E-05
   1.71720004      -5.29156787E-05
   1.72920001      -3.77715769E-05
   1.74119997      -2.12149607E-05
   1.75320005      -3.46518436E-06
   1.76520002       1.52317580E-05
   1.77719998       3.46103552E-05
   1.78919995       5.43930291E-05
   1.80120003       7.42976044E-05
   1.81320000       9.40444806E-05
   1.82519996       1.13363305E-04
   1.83720005       1.31998750E-04
   1.84920001       1.49715561E-04
   1.86119998       1.66302285E-04
   1.87320006       1.81574171E-04
   1.88520002       1.95374872E-04
   1.89719999       2.07577148E-04
   1.90919995       2.18082772E-04
   1.92120004       2.26821619E-04
   1.93320000       2.33750339E-04
   1.94519997       2.38850465E-04
   1.95720005       2.42126524E-04
   1.96920002       2.43603921E-04
   1.98119998       2.43327013E-04
   1.99319994       2.41357207E-04
   2.00519991       2.37771455E-04
   2.01719999       2.32660750E-04
   2.02920008       2.26129123E-04
   2.04119992       2.18292509E-04
   2.05320001       2.09278034E-04
   2.06520009       1.99223141E-04
   2.07719994       1.88274673E-04
   2.08920002       1.76587884E-04
   2.10120010       1.64325233E-04
   2.11319995       1.51654705E-04
   2.12520003       1.38748102E-04
   2.13720012       1.25778679E-04
   2.14919996       1.12918606E-04
   2.16120005       1.00336183E-04
   2.17319989       8.81926462E-05
   2.18519998       7.66389203E-05
   2.19720006       6.58123681E-05
   2.20919991       5.58335487E-05
   2.22119999       4.68032158E-05
   2.23320007       3.87997061E-05
   2.24519992       3.18767961E-05
   2.25720000       2.60622091E-05
   2.26920009       2.13568546E-05
   2.28119993       1.77349229E-05
   2.29320002       1.51448403E-05
   2.30520010       1.35111377E-05
   2.31719995       1.27371568E-05
   2.32920003       1.27085677E-05
   2.34120011       1.32975374E-05
   2.35319996       1.43674233E-05
   2.36520004       1.57777831E-05
   2.37719989       1.73895223E-05
   2.38919997       1.90699211E-05
   2.40120006       2.06973600E-05
   2.41319990       2.21654827E-05
   2.42519999       2.33866431E-05
   2.43720007       2.42944698E-05
   2.44919991       2.48454035E-05
   2.46120000       2.50191915E-05
   2.47320008       2.48183187E-05
   2.48519993       2.42663955E-05
   2.49720001       2.34056479E-05
   2.50920010       2.22936469E-05
   2.52119994       2.09994523E-05
   2.53320003       1.95993980E-05
   2.54520011       1.81727319E-05
   2.55719995       1.67973558E-05
   2.56920004       1.55458365E-05
   2.58119988       1.44819214E-05
   2.59319997       1.36576882E-05
   2.60520005       1.31114321E-05
   2.61719990       1.28663951E-05
   2.62919998       1.29303207E-05
   2.64120007       1.32958285E-05
   2.65319991       1.39415270E-05
   2.66520000       1.48337549E-05
   2.67720008       1.59288338E-05
   2.68919992       1.71756383E-05
   2.70120001       1.85183653E-05
   2.71320009       1.98993130E-05
   2.72519994       2.12615414E-05
   2.73720002       2.25512867E-05
   2.74920011       2.37200147E-05
   2.76119995       2.47260596E-05
   2.77320004       2.55358063E-05
   2.78520012       2.61243895E-05
   2.79719996       2.64759619E-05
   2.80920005       2.65835279E-05
   2.82119989       2.64484697E-05
   2.83319998       2.60797806E-05
   2.84520006       2.54931529E-05
   2.85719991       2.47099506E-05
   2.86919999       2.37561690E-05
   2.88120008       2.26614357E-05
   2.89319992       2.14580796E-05
   2.90520000       2.01803196E-05
   2.91720009       1.88635422E-05
   2.92919993       1.75436853E-05
   2.94120002       1.62566957E-05
   2.95320010       1.50380120E-05
   2.96519995       1.39220783E-05
   2.97720003       1.29418286E-05
   2.98920012       1.21281255E-05
   3.00119996       1.15091425E-05
   3.01320004       1.11096670E-05
   3.02519989       1.09503571E-05
   3.03719997       1.10469400E-05
   3.04920006       1.14094091E-05
   3.06119990       1.20412542E-05
   3.07319999       1.29387736E-05
   3.08520007       1.40905222E-05
   3.09719992       1.54769477E-05
   3.10920000       1.70702751E-05
   3.12120008       1.88346639E-05
   3.13319993       2.07266603E-05
   3.14520001       2.26959874E-05
   3.15720010       2.46866439E-05
   3.16919994       2.66383195E-05
   3.18120003       2.84880607E-05
   3.19320011       3.01722084E-05
   3.20519996       3.16284822E-05
   3.21720004       3.27982016E-05
   3.22919989       3.36285302E-05
   3.24119997       3.40746737E-05
   3.25320005       3.41019622E-05
   3.26519990       3.36876728E-05
   3.27719998       3.28225833E-05
   3.28920007       3.15120997E-05
   3.30119991       2.97769420E-05
   3.31320000       2.76533137E-05
   3.32520008       2.51925030E-05
   3.33719993       2.24599189E-05
   3.34920001       1.95335670E-05
   3.36120009       1.65019592E-05
   3.37319994       1.34615329E-05
   3.38520002       1.05136514E-05
   3.39720011       7.76125489E-06
   3.40919995       5.30530133E-06
   3.42120004       3.24111033E-06
   3.43319988       1.65475637E-06
   3.44519997       6.19656362E-07
   3.45720005       1.93494259E-07
   3.46919990       4.15617848E-07
   3.48119998       1.30504725E-06
   3.49320006       2.85913188E-06
   3.50519991       5.05302023E-06
   3.51719999       7.83990436E-06
   3.52920008       1.11520858E-05
   3.54119992       1.49028419E-05
   3.55320001       1.89890015E-05
   3.56520009       2.32941929E-05
   3.57719994       2.76926075E-05
   3.58920002       3.20531472E-05
   3.60120010       3.62438113E-05
   3.61319995       4.01361613E-05
   3.62520003       4.36096561E-05
   3.63720012       4.65557750E-05
   3.64919996       4.88816659E-05
   3.66120005       5.05133103E-05
   3.67319989       5.13979794E-05
   3.68519998       5.15060492E-05
   3.69720006       5.08319354E-05
   3.70919991       4.93942825E-05
   3.72119999       4.72353713E-05
   3.73320007       4.44196958E-05
   3.74519992       4.10319153E-05
   3.75720000       3.71741153E-05
   3.76920009       3.29625582E-05
   3.78119993       2.85240021E-05
   3.79320002       2.39917117E-05
   3.80520010       1.95012908E-05
   3.81719995       1.51864469E-05
   3.82920003       1.11748495E-05
   3.84120011       7.58417264E-06
   3.85319996       4.51846654E-06
   3.86520004       2.06495383E-06
   3.87719989       2.91359498E-07
   3.88919997      -7.56158158E-07
   3.90120006      -1.05437573E-06
   3.91319990      -6.03660737E-07
   3.92519999       5.72124975E-07
   3.93720007       2.42647343E-06
   3.94919991       4.89181139E-06
   3.96120000       7.88174384E-06
   3.97320008       1.12938942E-05
   3.98519993       1.50132419E-05
   3.99720001       1.89158345E-05
   4.00920010       2.28727713E-05
   4.02120018       2.67542546E-05
   4.03319979       3.04336572E-05
   4.04519987       3.37913807E-05
   4.05719995       3.67184439E-05
   4.06920004       3.91196554E-05
   4.08120012       4.09162785E-05
   4.09320021       4.20481447E-05
   4.10519981       4.24751488E-05
   4.11719990       4.21781151E-05
   4.12919998       4.11590481E-05
   4.14120007       3.94407652E-05
   4.15320015       3.70660127E-05
   4.16520023       3.40960250E-05
   4.17719984       3.06086913E-05
   4.18919992       2.66963289E-05
   4.20120001       2.24631040E-05
   4.21320009       1.80222560E-05
   4.22520018       1.34930769E-05
   4.23719978       8.99778206E-06
   4.24919987       4.65828907E-06
   4.26119995       5.92991967E-07
   4.27320004      -3.08642257E-06
   4.28520012      -6.27802592E-06
   4.29720020      -8.89250350E-06
   4.30919981      -1.08557197E-05
   4.32119989      -1.21109124E-05
   4.33319998      -1.26204495E-05
   4.34520006      -1.23670470E-05
   4.35720015      -1.13544193E-05
   4.36920023      -9.60728994E-06
   4.38119984      -7.17076637E-06
   4.39319992      -4.10907433E-06
   4.40520000      -5.03682145E-07
   4.41720009       3.54911708E-06
   4.42920017       7.94107018E-06
   4.44119978       1.25551824E-05
   4.45319986       1.72691543E-05
   4.46519995       2.19588983E-05
   4.47720003       2.65020280E-05
   4.48920012       3.07811497E-05
   4.50120020       3.46869201E-05
   4.51319981       3.81206919E-05
   4.52519989       4.09967906E-05
   4.53719997       4.32443194E-05
   4.54920006       4.48084902E-05
   4.56120014       4.56515772E-05
   4.57320023       4.57533897E-05
   4.58519983       4.51114283E-05
   4.59719992       4.37407034E-05
   4.60920000       4.16732692E-05
   4.62120008       3.89575071E-05
   4.63320017       3.56571691E-05
   4.64519978       3.18501734E-05
   4.65719986       2.76271621E-05
   4.66919994       2.30898095E-05
   4.68120003       1.83488191E-05
   4.69320011       1.35216414E-05
   4.70520020       8.72986675E-06
   4.71719980       4.09635231E-06
   4.72919989      -2.57934119E-07
   4.74119997      -4.21724326E-06
   4.75320005      -7.67447364E-06
   4.76520014      -1.05345753E-05
   4.77720022      -1.27178073E-05
   4.78919983      -1.41626697E-05
   4.80119991      -1.48283971E-05
   4.81320000      -1.46968332E-05
   4.82520008      -1.37735988E-05
   4.83720016      -1.20884461E-05
   4.84919977      -9.69474968E-06
   4.86119986      -6.66812048E-06
   4.87319994      -3.10418432E-06
   4.88520002       8.84402596E-07
   4.89720011       5.17157832E-06
   4.90920019       9.62198101E-06
   4.92119980       1.40953725E-05
   4.93319988       1.84511919E-05
   4.94519997       2.25530493E-05
   4.95720005       2.62730100E-05
   4.96920013       2.94955080E-05
   4.98120022       3.21207735E-05
   4.99319983       3.40677216E-05
   5.00519991       3.52761926E-05
   5.01719999       3.57085955E-05
   5.02920008       3.53508913E-05
   5.04120016       3.42129570E-05
   5.05319977       3.23283639E-05
   5.06519985       2.97535771E-05
   5.07719994       2.65666113E-05
   5.08920002       2.28651825E-05
   5.10120010       1.87643600E-05
   5.11320019       1.43937341E-05
   5.12519979       9.89414730E-06
   5.13719988       5.41398504E-06
   5.14919996       1.10506733E-06
   5.16120005      -2.88179581E-06
   5.17320013      -6.40152166E-06
   5.18520021      -9.31962768E-06
   5.19719982      -1.15171269E-05
   5.20919991      -1.28952706E-05
   5.22119999      -1.33799313E-05
   5.23320007      -1.29254058E-05
   5.24520016      -1.15174225E-05
   5.25719976      -9.17511716E-06
   5.26919985      -5.95182792E-06
   5.28119993      -1.93455321E-06
   5.29320002       2.75800653E-06
   5.30520010       7.97880057E-06
   5.31720018       1.35571281E-05
   5.32919979       1.93045053E-05
   5.34119987       2.50215162E-05
   5.35319996       3.05053109E-05
   5.36520004       3.55574921E-05
   5.37720013       3.99919700E-05
   5.38920021       4.36424452E-05
   5.40119982       4.63691686E-05
   5.41319990       4.80646559E-05
   5.42519999       4.86580757E-05
   5.43720007       4.81181160E-05
   5.44920015       4.64542027E-05
   5.46120024       4.37160670E-05
   5.47319984       3.99916571E-05
   5.48519993       3.54035656E-05
   5.49720001       3.01041582E-05
   5.50920010       2.42696406E-05
   5.52120018       1.80933730E-05
   5.53319979       1.17787149E-05
   5.54519987       5.53171458E-06
   5.55719995      -4.46035642E-07
   5.56920004      -5.96413929E-06
   5.58120012      -1.08494842E-05
   5.59320021      -1.49514763E-05
   5.60519981      -1.81462710E-05
   5.61719990      -2.03399413E-05
   5.62919998      -2.14704851E-05
   5.64120007      -2.15087130E-05
   5.65320015      -2.04580410E-05
   5.66520023      -1.83532666E-05
   5.67719984      -1.52584298E-05
   5.68919992      -1.12638863E-05
   5.70120001      -6.48273772E-06
   5.71320009      -1.04676792E-06
   5.72520018       4.89797549E-06
   5.73719978       1.11957816E-05
   5.74919987       1.76859230E-05
   5.76119995       2.42072165E-05
   5.77320004       3.06023576E-05
   5.78520012       3.67219363E-05
   5.79720020       4.24280333E-05
   5.80919981       4.75973138E-05
   5.82119989       5.21236143E-05
   5.83319998       5.59199143E-05
   5.84520006       5.89197261E-05
   5.85720015       6.10779171E-05
   5.86920023       6.23709348E-05
   5.88119984       6.27965273E-05
   5.89319992       6.23729284E-05
   5.90520000       6.11376890E-05
   5.91720009       5.91460666E-05
   5.92920017       5.64691545E-05
   5.94119978       5.31917576E-05
   5.95319986       4.94100823E-05
   5.96519995       4.52293170E-05
   5.97720003       4.07610933E-05
   5.98920012       3.61209241E-05
   6.00120020       3.14256213E-05
   6.01319981       2.67907235E-05
   6.02519989       2.23279603E-05
   6.03719997       1.81428095E-05
   6.04920006       1.43321431E-05
   6.06120014       1.09820394E-05
   6.07320023       8.16576267E-06
   6.08519983       5.94197991E-06
   6.09719992       4.35326001E-06
   6.10920000       3.42489784E-06
   6.12120008       3.16411820E-06
   6.13320017       3.55971133E-06
   6.14519978       4.58214072E-06
   6.15719986       6.18417243E-06
   6.16919994       8.30200679E-06
   6.18120003       1.08569557E-05
   6.19320011       1.37576098E-05
   6.20520020       1.69024697E-05
   6.21719980       2.01829407E-05
   6.22919989       2.34866329E-05
   6.24119997       2.67008181E-05
   6.25320005       2.97159586E-05
   6.26520014       3.24291359E-05
   6.27720022       3.47472924E-05
   6.28919983       3.65901396E-05
   6.30119991       3.78926416E-05
   6.31320000       3.86069551E-05
   6.32520008       3.87037835E-05
   6.33720016       3.81731188E-05
   6.34919977       3.70243142E-05
   6.36119986       3.52855350E-05
   6.37319994       3.30026123E-05
   6.38520002       3.02373555E-05
   6.39720011       2.70654618E-05
   6.40920019       2.35739881E-05
   6.42119980       1.98586058E-05
   6.43319988       1.60206582E-05
   6.44519997       1.21641378E-05
   6.45720005       8.39268159E-06
   6.46920013       4.80662538E-06
   6.48120022       1.50024994E-06
   6.49319983      -1.44077205E-06
   6.50519991      -3.94163044E-06
   6.51719999      -5.94030143E-06
   6.52920008      -7.38909557E-06
   6.54120016      -8.25578991E-06
   6.55319977      -8.52433095E-06
   6.56519985      -8.19508932E-06
   6.57719994      -7.28465602E-06
   6.58920002      -5.82519351E-06
   6.60120010      -3.86335569E-06
   6.61320019      -1.45879835E-06
   6.62519979       1.31767183E-06
   6.63719988       4.38626921E-06
   6.64919996       7.66064568E-06
   6.66120005       1.10504907E-05
   6.67320013       1.44642099E-05
   6.68520021       1.78116170E-05
   6.69719982       2.10065373E-05
   6.70919991       2.39692181E-05
   6.72119999       2.66285042E-05
   6.73320007       2.89236559E-05
   6.74520016       3.08058188E-05
   6.75719976       3.22390624E-05
   6.76919985       3.32009658E-05
   6.78119993       3.36827979E-05
   6.79320002       3.36892444E-05
   6.80520010       3.32377640E-05
   6.81720018       3.23575769E-05
   6.82919979       3.10883624E-05
   6.84119987       2.94787260E-05
   6.85319996       2.75844559E-05
   6.86520004       2.54666957E-05
   6.87720013       2.31900285E-05
   6.88920021       2.08205765E-05
   6.90119982       1.84241526E-05
   6.91319990       1.60644850E-05
   6.92519999       1.38016112E-05
   6.93720007       1.16904021E-05
   6.94920015       9.77931722E-06
   6.96120024       8.10936308E-06
   6.97319984       6.71330554E-06
   6.98519993       5.61512343E-06
   6.99720001       4.82973746E-06
   7.00920010       4.36300206E-06
   7.02120018       4.21196000E-06
   7.03319979       4.36535629E-06
   7.04519987       4.80437711E-06
   7.05719995       5.50360573E-06
   7.06920004       6.43213843E-06
   7.08120012       7.55483643E-06
   7.09320021       8.83364555E-06
   7.10519981       1.02289414E-05
   7.11719990       1.17008412E-05
   7.12919998       1.32104269E-05
   7.14120007       1.47208311E-05
   7.15320015       1.61981625E-05
   7.16520023       1.76122212E-05
   7.17719984       1.89369985E-05
   7.18919992       2.01509702E-05
   7.20120001       2.12371560E-05
   7.21320009       2.21830160E-05
   7.22520018       2.29801608E-05
   7.23719978       2.36239539E-05
   7.24919987       2.41130110E-05
   7.26119995       2.44486819E-05
   7.27320004       2.46345116E-05
   7.28520012       2.46757772E-05
   7.29720020       2.45790652E-05
   7.30919981       2.43519935E-05
   7.32119989       2.40030240E-05
   7.33319998       2.35414045E-05
   7.34520006       2.29772213E-05
   7.35720015       2.23215284E-05
   7.36920023       2.15865384E-05
   7.38119984       2.07858138E-05
   7.39319992       1.99344540E-05
   7.40520000       1.90491792E-05
   7.41720009       1.81483738E-05
   7.42920017       1.72519558E-05
   7.44119978       1.63811510E-05
   7.45319986       1.55581056E-05
   7.46519995       1.48053814E-05
   7.47720003       1.41453202E-05
   7.48920012       1.35993259E-05
   7.50120020       1.31870756E-05
   7.51319981       1.29256978E-05
   7.52519989       1.28289630E-05
   7.53719997       1.29065056E-05
   7.54920006       1.31631323E-05
   7.56120014       1.35982573E-05
   7.57320023       1.42054841E-05
   7.58519983       1.49723637E-05
   7.59719992       1.58803705E-05
   7.60920000       1.69050909E-05
   7.62120008       1.80166408E-05
   7.63320017       1.91803047E-05
   7.64519978       2.03574054E-05
   7.65719986       2.15063410E-05
   7.66919994       2.25838194E-05
   7.68120003       2.35462103E-05
   7.69320011       2.43510094E-05
   7.70520020       2.49583627E-05
   7.71719980       2.53326016E-05
   7.72919989       2.54437400E-05
   7.74119997       2.52688933E-05
   7.75320005       2.47935386E-05
   7.76520014       2.40125719E-05
   7.77720022       2.29310917E-05
   7.78919983       2.15648615E-05
   7.80119991       1.99403803E-05
   7.81320000       1.80945754E-05
   7.82520008       1.60740110E-05
   7.83720016       1.39337117E-05
   7.84919977       1.17355585E-05
   7.86119986       9.54631832E-06
   7.87319994       7.43539294E-06
   7.88520002       5.47234686E-06
   7.89720011       3.72433396E-06
   7.90920019       2.25351505E-06
   7.92119980       1.11459121E-06
   7.93319988       3.52547914E-07
   7.94519997       7.24283633E-10
   7.95720005       7.92919437E-08
   7.96920013       5.94215635E-07
   7.98120022       1.53676081E-06
   7.99319983       2.88356637E-06
   8.00520039       4.59730063E-06
   8.01720047       6.62786897E-06
   8.02919960       8.91413129E-06
   8.04119968       1.13860551E-05
   8.05319977       1.39672138E-05
   8.06519985       1.65775018E-05
   8.07719994       1.91359923E-05
   8.08920002       2.15637556E-05
   8.10120010       2.37865752E-05
   8.11320019       2.57374286E-05
   8.12520027       2.73586447E-05
   8.13720036       2.86036557E-05
   8.14920044       2.94383153E-05
   8.16119957       2.98417344E-05
   8.17319965       2.98066207E-05
   8.18519974       2.93391495E-05
   8.19719982       2.84583748E-05
   8.20919991       2.71952558E-05
   8.22119999       2.55913274E-05
   8.23320007       2.36970936E-05
   8.24520016       2.15702476E-05
   8.25720024       1.92737298E-05
   8.26920033       1.68737624E-05
   8.28120041       1.44378882E-05
   8.29319954       1.20330733E-05
   8.30519962       9.72393173E-06
   8.31719971       7.57110229E-06
   8.32919979       5.62979358E-06
   8.34119987       3.94852941E-06
   8.35319996       2.56809358E-06
   8.36520004       1.52068719E-06
   8.37720013       8.29305122E-07
   8.38920021       5.07336551E-07
   8.40120029       5.58395129E-07
   8.41320038       9.76398155E-07
   8.42520046       1.74588570E-06
   8.43719959       2.84259772E-06
   8.44919968       4.23429492E-06
   8.46119976       5.88182183E-06
   8.47319984       7.74038108E-06
   8.48519993       9.76099091E-06
   8.49720001       1.18920752E-05
   8.50920010       1.40811226E-05
   8.52120018       1.62763645E-05
   8.53320026       1.84283908E-05
   8.54520035       2.04916123E-05
   8.55720043       2.24255509E-05
   8.56919956       2.41958351E-05
   8.58119965       2.57749107E-05
   8.59319973       2.71423978E-05
   8.60519981       2.82851015E-05
   8.61719990       2.91966899E-05
   8.62919998       2.98770719E-05
   8.64120007       3.03315337E-05
   8.65320015       3.05696885E-05
   8.66520023       3.06043767E-05
   8.67720032       3.04505211E-05
   8.68920040       3.01241125E-05
   8.70119953       2.96413618E-05
   8.71319962       2.90180451E-05
   8.72519970       2.82691508E-05
   8.73719978       2.74087706E-05
   8.74919987       2.64502723E-05
   8.76119995       2.54066672E-05
   8.77320004       2.42911556E-05
   8.78520012       2.31177419E-05
   8.79720020       2.19018439E-05
   8.80920029       2.06608293E-05
   8.82120037       1.94143668E-05
   8.83320045       1.81845662E-05
   8.84519958       1.69958348E-05
   8.85719967       1.58744569E-05
   8.86919975       1.48478921E-05
   8.88119984       1.39438343E-05
   8.89319992       1.31890920E-05
   8.90520000       1.26083678E-05
   8.91720009       1.22230194E-05
   8.92920017       1.20499135E-05
   8.94120026       1.21004268E-05
   8.95320034       1.23796899E-05
   8.96520042       1.28861193E-05
   8.97719955       1.36112658E-05
   8.98919964       1.45399963E-05
   9.00119972       1.56509777E-05
   9.01319981       1.69174400E-05
   9.02519989       1.83081520E-05
   9.03719997       1.97885602E-05
   9.04920006       2.13219737E-05
   9.06120014       2.28707868E-05
   9.07320023       2.43976083E-05
   9.08520031       2.58662676E-05
   9.09720039       2.72426842E-05
   9.10919952       2.84955149E-05
   9.12119961       2.95966711E-05
   9.13319969       3.05216345E-05
   9.14519978       3.12496486E-05
   9.15719986       3.17638478E-05
   9.16919994       3.20512845E-05
   9.18120003       3.21029729E-05
   9.19320011       3.19139181E-05
   9.20520020       3.14831814E-05
   9.21720028       3.08139606E-05
   9.22920036       2.99136664E-05
   9.24120045       2.87940093E-05
   9.25319958       2.74710364E-05
   9.26519966       2.59651151E-05
   9.27719975       2.43007889E-05
   9.28919983       2.25065469E-05
   9.30119991       2.06144159E-05
   9.31320000       1.86594025E-05
   9.32520008       1.66787959E-05
   9.33720016       1.47113133E-05
   9.34920025       1.27961412E-05
   9.36120033       1.09719085E-05
   9.37320042       9.27563633E-06
   9.38519955       7.74171258E-06
   9.39719963       6.40094959E-06
   9.40919971       5.27976908E-06
   9.42119980       4.39954374E-06
   9.43319988       3.77611264E-06
   9.44519997       3.41949976E-06
