 -0.622799993       0.00000000    
 -0.610800028       0.00000000    
 -0.598800004       0.00000000    
 -0.586799979      -1.56970208E-15
 -0.574800014      -9.69252432E-15
 -0.562799990      -3.24067013E-14
 -0.550800025      -7.62569261E-14
 -0.538800001      -1.37807382E-13
 -0.526799977      -1.94443515E-13
 -0.514800012      -1.99751931E-13
 -0.502799988      -8.84373548E-14
 -0.490799993       2.07480016E-13
 -0.478799999       7.34660054E-13
 -0.466800004       1.49531353E-12
 -0.454800010       2.43647875E-12
 -0.442799985       3.46204380E-12
 -0.430799991       4.47236735E-12
 -0.418799996       5.42797881E-12
 -0.406800002       6.42520759E-12
 -0.394800007       7.76562582E-12
 -0.382800013       1.00002541E-11
 -0.370799989       1.39343762E-11
 -0.358799994       2.05887720E-11
 -0.346799999       3.11258588E-11
 -0.334800005       4.67613413E-11
 -0.322800010       6.86900953E-11
 -0.310799986       9.80562229E-11
 -0.298799992       1.35990441E-10
 -0.286799997       1.83723065E-10
 -0.274800003       2.42761394E-10
 -0.262800008       3.15100446E-10
 -0.250800014       4.03421269E-10
 -0.238800004       5.11227782E-10
 -0.226799995       6.42882247E-10
 -0.214800000       8.03523137E-10
 -0.202800006       9.98878313E-10
 -0.190799996       1.23501664E-09
 -0.178800002       1.51809987E-09
 -0.166800007       1.85419613E-09
 -0.154799998       2.24920238E-09
 -0.142800003       2.70888179E-09
 -0.130799994       3.23898552E-09
 -0.118799999       3.84539733E-09
 -0.106799997       4.53421478E-09
  -9.48000029E-02   5.31169642E-09
  -8.28000009E-02   6.18402485E-09
  -7.07999989E-02   7.15687953E-09
  -5.88000007E-02   8.23484925E-09
  -4.67999987E-02   9.42073264E-09
  -3.48000005E-02   1.07147908E-08
  -2.28000004E-02   1.21139543E-08
  -1.08000003E-02   1.36109923E-08
   1.20000006E-03   1.51935566E-08
   1.31999999E-02   1.68430017E-08
   2.52000000E-02   1.85328606E-08
   3.72000001E-02   2.02269383E-08
   4.91999984E-02   2.18770371E-08
   6.12000003E-02   2.34205526E-08
   7.32000023E-02   2.47783678E-08
   8.51999968E-02   2.58537760E-08
   9.71999988E-02   2.65332805E-08
  0.109200001       2.66903424E-08
  0.121200003       2.61929554E-08
  0.133200005       2.49157601E-08
  0.145199999       2.27567494E-08
  0.157199994       1.96579464E-08
  0.169200003       1.56285793E-08
  0.181199998       1.07684146E-08
  0.193200007       5.28836042E-09
  0.205200002      -4.74939532E-10
  0.217199996      -6.05366424E-09
  0.229200006      -1.08552607E-08
  0.241200000      -1.41827110E-08
  0.253199995      -1.52696664E-08
  0.265199989      -1.33303901E-08
  0.277200013      -7.62348229E-09
  0.289200008       2.47279819E-09
  0.301200002       1.73769354E-08
  0.313199997       3.72169247E-08
  0.325199991       6.17456521E-08
  0.337199986       9.02666173E-08
  0.349200010       1.21579319E-07
  0.361200005       1.53954630E-07
  0.373199999       1.85150157E-07
  0.385199994       2.12474916E-07
  0.397199988       2.32909201E-07
  0.409200013       2.43281619E-07
  0.421200007       2.40499446E-07
  0.433200002       2.21822091E-07
  0.445199996       1.85161298E-07
  0.457199991       1.29385199E-07
  0.469199985       5.46000400E-08
  0.481200010      -3.76200688E-08
  0.493200004      -1.44084709E-07
  0.505200028      -2.59946688E-07
  0.517199993      -3.78791469E-07
  0.529200017      -4.92870072E-07
  0.541199982      -5.93479513E-07
  0.553200006      -6.71482383E-07
  0.565199971      -7.17944886E-07
  0.577199996      -7.24858296E-07
  0.589200020      -6.85899010E-07
  0.601199985      -5.97169844E-07
  0.613200009      -4.57862001E-07
  0.625199974      -2.70774450E-07
  0.637199998      -4.26298925E-08
  0.649200022       2.15860553E-07
  0.661199987       4.90221225E-07
  0.673200011       7.62741081E-07
  0.685199976       1.01330340E-06
  0.697200000       1.22048948E-06
  0.709200025       1.36290464E-06
  0.721199989       1.42065699E-06
  0.733200014       1.37689699E-06
  0.745199978       1.21932067E-06
  0.757200003       9.41526594E-07
  0.769200027       5.44124134E-07
  0.781199992       3.54968783E-08
  0.793200016      -5.67855011E-07
  0.805199981      -1.24144901E-06
  0.817200005      -1.95345388E-06
  0.829200029      -2.66581446E-06
  0.841199994      -3.33582943E-06
  0.853200018      -3.91810863E-06
  0.865199983      -4.36681239E-06
  0.877200007      -4.63805236E-06
  0.889199972      -4.69231918E-06
  0.901199996      -4.49679874E-06
  0.913200021      -4.02743854E-06
  0.925199986      -3.27063776E-06
  0.937200010      -2.22444351E-06
  0.949199975      -8.99179099E-07
  0.961199999       6.82552184E-07
  0.973200023       2.48651099E-06
  0.985199988       4.46809872E-06
  0.997200012       6.57420378E-06
   1.00919998       8.74555099E-06
   1.02119994       1.09194252E-05
   1.03320003       1.30326489E-05
   1.04519999       1.50246624E-05
   1.05719995       1.68405422E-05
   1.06920004       1.84338314E-05
   1.08120000       1.97690024E-05
   1.09319997       2.08234633E-05
   1.10520005       2.15889686E-05
   1.11720002       2.20723559E-05
   1.12919998       2.22956078E-05
   1.14119995       2.22951494E-05
   1.15320003       2.21204700E-05
   1.16520000       2.18320747E-05
   1.17719996       2.14988631E-05
   1.18920004       2.11950646E-05
   1.20120001       2.09968166E-05
   1.21319997       2.09785649E-05
   1.22520006       2.12094055E-05
   1.23720002       2.17495344E-05
   1.24919999       2.26469565E-05
   1.26119995       2.39345536E-05
   1.27320004       2.56276944E-05
   1.28520000       2.77224353E-05
   1.29719996       3.01944347E-05
   1.30920005       3.29986142E-05
   1.32120001       3.60696213E-05
   1.33319998       3.93230694E-05
   1.34519994       4.26575352E-05
   1.35720003       4.59572548E-05
   1.36919999       4.90954044E-05
   1.38119996       5.19378918E-05
   1.39320004       5.43474707E-05
   1.40520000       5.61880770E-05
   1.41719997       5.73291909E-05
   1.42920005       5.76500897E-05
   1.44120002       5.70438278E-05
   1.45319998       5.54207982E-05
   1.46519995       5.27117518E-05
   1.47720003       4.88701844E-05
   1.48920000       4.38739844E-05
   1.50119996       3.77263605E-05
   1.51320004       3.04559580E-05
   1.52520001       2.21162554E-05
   1.53719997       1.27842459E-05
   1.54920006       2.55852706E-06
   1.56120002      -8.44315491E-06
   1.57319999      -2.00867835E-05
   1.58519995      -3.22252272E-05
   1.59720004      -4.47016391E-05
   1.60920000      -5.73528705E-05
   1.62119997      -7.00129604E-05
   1.63320005      -8.25164316E-05
   1.64520001      -9.47015360E-05
   1.65719998      -1.06413121E-04
   1.66919994      -1.17505348E-04
   1.68120003      -1.27844061E-04
   1.69319999      -1.37308758E-04
   1.70519996      -1.45794358E-04
   1.71720004      -1.53212459E-04
   1.72920001      -1.59492309E-04
   1.74119997      -1.64581419E-04
   1.75320005      -1.68445826E-04
   1.76520002      -1.71069885E-04
   1.77719998      -1.72455926E-04
   1.78919995      -1.72623346E-04
   1.80120003      -1.71607637E-04
   1.81320000      -1.69459003E-04
   1.82519996      -1.66240876E-04
   1.83720005      -1.62028155E-04
   1.84920001      -1.56905429E-04
   1.86119998      -1.50965221E-04
   1.87320006      -1.44306017E-04
   1.88520002      -1.37030598E-04
   1.89719999      -1.29244261E-04
   1.90919995      -1.21053272E-04
   1.92120004      -1.12563474E-04
   1.93320000      -1.03878985E-04
   1.94519997      -9.51011316E-05
   1.95720005      -8.63274618E-05
   1.96920002      -7.76509551E-05
   1.98119998      -6.91593086E-05
   1.99319994      -6.09343952E-05
   2.00519991      -5.30516700E-05
   2.01719999      -4.55797672E-05
   2.02920008      -3.85800377E-05
   2.04119992      -3.21061998E-05
   2.05320001      -2.62039866E-05
   2.06520009      -2.09108402E-05
   2.07719994      -1.62556626E-05
   2.08920002      -1.22586243E-05
   2.10120010      -8.93101878E-06
   2.11319995      -6.27519603E-06
   2.12520003      -4.28454359E-06
   2.13720012      -2.94354686E-06
   2.14919996      -2.22793074E-06
   2.16120005      -2.10485564E-06
   2.17319989      -2.53322673E-06
   2.18519998      -3.46408456E-06
   2.19720006      -4.84112297E-06
   2.20919991      -6.60132400E-06
   2.22119999      -8.67573908E-06
   2.23320007      -1.09904304E-05
   2.24519992      -1.34675747E-05
   2.25720000      -1.60267500E-05
   2.26920009      -1.85863937E-05
   2.28119993      -2.10654289E-05
   2.29320002      -2.33850569E-05
   2.30520010      -2.54706592E-05
   2.31719995      -2.72537727E-05
   2.32920003      -2.86741179E-05
   2.34120011      -2.96815597E-05
   2.35319996      -3.02379503E-05
   2.36520004      -3.03187608E-05
   2.37719989      -2.99144394E-05
   2.38919997      -2.90313765E-05
   2.40120006      -2.76924111E-05
   2.41319990      -2.59368462E-05
   2.42519999      -2.38198536E-05
   2.43720007      -2.14113206E-05
   2.44919991      -1.87940714E-05
   2.46120000      -1.60615455E-05
   2.47320008      -1.33148897E-05
   2.48519993      -1.06596553E-05
   2.49720001      -8.20211972E-06
   2.50920010      -6.04538764E-06
   2.52119994      -4.28540079E-06
   2.53320003      -3.00703891E-06
   2.54520011      -2.28044041E-06
   2.55719995      -2.15771547E-06
   2.56920004      -2.67022165E-06
   2.58119988      -3.82651706E-06
   2.59319997      -5.61113211E-06
   2.60520005      -7.98423753E-06
   2.61719990      -1.08822751E-05
   2.62919998      -1.42195704E-05
   2.64120007      -1.78908831E-05
   2.65319991      -2.17748602E-05
   2.66520000      -2.57382399E-05
   2.67720008      -2.96406924E-05
   2.68919992      -3.33400822E-05
   2.70120001      -3.66979912E-05
   2.71320009      -3.95851966E-05
   2.72519994      -4.18870004E-05
   2.73720002      -4.35080256E-05
   2.74920011      -4.43764111E-05
   2.76119995      -4.44471225E-05
   2.77320004      -4.37042363E-05
   2.78520012      -4.21621116E-05
   2.79719996      -3.98653356E-05
   2.80920005      -3.68874425E-05
   2.82119989      -3.33284042E-05
   2.83319998      -2.93110661E-05
   2.84520006      -2.49765253E-05
   2.85719991      -2.04787848E-05
   2.86919999      -1.59787633E-05
   2.88120008      -1.16380088E-05
   2.89319992      -7.61232241E-06
   2.90520000      -4.04557022E-06
   2.91720009      -1.06395032E-06
   2.92919993       1.22905158E-06
   2.94120002       2.75680600E-06
   2.95320010       3.47260016E-06
   2.96519995       3.36150106E-06
   2.97720003       2.44093485E-06
   2.98920012       7.59963768E-07
   3.00119996      -1.60271065E-06
   3.01320004      -4.54192377E-06
   3.02519989      -7.93028721E-06
   3.03719997      -1.16233041E-05
   3.04920006      -1.54651607E-05
   3.06119990      -1.92949392E-05
   3.07319999      -2.29530215E-05
   3.08520007      -2.62874182E-05
   3.09719992      -2.91597353E-05
   3.10920000      -3.14506033E-05
   3.12120008      -3.30642724E-05
   3.13319993      -3.39322905E-05
   3.14520001      -3.40160186E-05
   3.15720010      -3.33079879E-05
   3.16919994      -3.18320126E-05
   3.18120003      -2.96420785E-05
   3.19320011      -2.68200420E-05
   3.20519996      -2.34722975E-05
   3.21720004      -1.97254849E-05
   3.22919989      -1.57214727E-05
   3.24119997      -1.16117799E-05
   3.25320005      -7.55169367E-06
   3.26519990      -3.69429472E-06
   3.27719998      -1.84644421E-07
   3.28920007       2.84563657E-06
   3.30119991       5.28318787E-06
   3.31320000       7.03694013E-06
   3.32520008       8.04120737E-06
   3.33719993       8.25771986E-06
   3.34920001       7.67655456E-06
   3.36120009       6.31591865E-06
   3.37319994       4.22083440E-06
   3.38520002       1.46078798E-06
   3.39720011      -1.87353919E-06
   3.40919995      -5.67429288E-06
   3.42120004      -9.82105576E-06
   3.43319988      -1.41858081E-05
   3.44519997      -1.86380385E-05
   3.45720005      -2.30497571E-05
   3.46919990      -2.73001915E-05
   3.48119998      -3.12799566E-05
   3.49320006      -3.48945505E-05
   3.50519991      -3.80669917E-05
   3.51719999      -4.07395528E-05
   3.52920008      -4.28745661E-05
   3.54119992      -4.44542202E-05
   3.55320001      -4.54795081E-05
   3.56520009      -4.59684379E-05
   3.57719994      -4.59535258E-05
   3.58920002      -4.54789115E-05
   3.60120010      -4.45971746E-05
   3.61319995      -4.33660898E-05
   3.62520003      -4.18455420E-05
   3.63720012      -4.00947065E-05
   3.64919996      -3.81697428E-05
   3.66120005      -3.61219973E-05
   3.67319989      -3.39968792E-05
   3.68519998      -3.18333296E-05
   3.69720006      -2.96639464E-05
   3.70919991      -2.75155853E-05
   3.72119999      -2.54104307E-05
   3.73320007      -2.33673090E-05
   3.74519992      -2.14031515E-05
   3.75720000      -1.95343964E-05
   3.76920009      -1.77782440E-05
   3.78119993      -1.61535645E-05
   3.79320002      -1.46814064E-05
   3.80520010      -1.33850353E-05
   3.81719995      -1.22894362E-05
   3.82920003      -1.14203749E-05
   3.84120011      -1.08029935E-05
   3.85319996      -1.04601149E-05
   3.86520004      -1.04103301E-05
   3.87719989      -1.06660209E-05
   3.88919997      -1.12315010E-05
   3.90120006      -1.21013882E-05
   3.91319990      -1.32593714E-05
   3.92519999      -1.46774773E-05
   3.93720007      -1.63159584E-05
   3.94919991      -1.81237956E-05
   3.96120000      -2.00398972E-05
   3.97320008      -2.19949325E-05
   3.98519993      -2.39137498E-05
   3.99720001      -2.57182710E-05
   4.00920010      -2.73307469E-05
   4.02120018      -2.86772029E-05
   4.03319979      -2.96909002E-05
   4.04519987      -3.03156685E-05
   4.05719995      -3.05088997E-05
   4.06920004      -3.02440640E-05
   4.08120012      -2.95126029E-05
   4.09320021      -2.83250938E-05
   4.10519981      -2.67115975E-05
   4.11719990      -2.47211537E-05
   4.12919998      -2.24204377E-05
   4.14120007      -1.98915877E-05
   4.15320015      -1.72293167E-05
   4.16520023      -1.45374097E-05
   4.17719984      -1.19247516E-05
   4.18919992      -9.50105459E-06
   4.20120001      -7.37248820E-06
   4.21320009      -5.63737603E-06
   4.22520018      -4.38217648E-06
   4.23719978      -3.67789767E-06
   4.24919987      -3.57711588E-06
   4.26119995      -4.11172459E-06
   4.27320004      -5.29150748E-06
   4.28520012      -7.10359473E-06
   4.29720020      -9.51281527E-06
   4.30919981      -1.24629241E-05
   4.32119989      -1.58786515E-05
   4.33319998      -1.96684505E-05
   4.34520006      -2.37278291E-05
   4.35720015      -2.79431188E-05
   4.36920023      -3.21954831E-05
   4.38119984      -3.63650324E-05
   4.39319992      -4.03348749E-05
   4.40520000      -4.39949035E-05
   4.41720009      -4.72452775E-05
   4.42920017      -4.99993657E-05
   4.44119978      -5.21862021E-05
   4.45319986      -5.37523229E-05
   4.46519995      -5.46629344E-05
   4.47720003      -5.49025244E-05
   4.48920012      -5.44748218E-05
   4.50120020      -5.34022511E-05
   4.51319981      -5.17248591E-05
   4.52519989      -4.94988853E-05
   4.53719997      -4.67949321E-05
   4.54920006      -4.36959126E-05
   4.56120014      -4.02947298E-05
   4.57320023      -3.66918321E-05
   4.58519983      -3.29926443E-05
   4.59719992      -2.93048997E-05
   4.60920000      -2.57359152E-05
   4.62120008      -2.23898642E-05
   4.63320017      -1.93650740E-05
   4.64519978      -1.67513736E-05
   4.65719986      -1.46275988E-05
   4.66919994      -1.30592834E-05
   4.68120003      -1.20966261E-05
   4.69320011      -1.17727996E-05
   4.70520020      -1.21027088E-05
   4.71719980      -1.30822282E-05
   4.72919989      -1.46879966E-05
   4.74119997      -1.68778279E-05
   4.75320005      -1.95917346E-05
   4.76520014      -2.27535584E-05
   4.77720022      -2.62732028E-05
   4.78919983      -3.00493703E-05
   4.80119991      -3.39727158E-05
   4.81320000      -3.79293233E-05
   4.82520008      -4.18043091E-05
   4.83720016      -4.54855071E-05
   4.84919977      -4.88669393E-05
   4.86119986      -5.18521192E-05
   4.87319994      -5.43568567E-05
   4.88520002      -5.63116773E-05
   4.89720011      -5.76636594E-05
   4.90920019      -5.83776418E-05
   4.92119980      -5.84369118E-05
   4.93319988      -5.78432118E-05
   4.94519997      -5.66163326E-05
   4.95720005      -5.47931159E-05
   4.96920013      -5.24260940E-05
   4.98120022      -4.95817912E-05
   4.99319983      -4.63387369E-05
   5.00519991      -4.27853265E-05
   5.01719999      -3.90174719E-05
   5.02920008      -3.51362069E-05
   5.04120016      -3.12452175E-05
   5.05319977      -2.74483500E-05
   5.06519985      -2.38471021E-05
   5.07719994      -2.05381511E-05
   5.08920002      -1.76109352E-05
   5.10120010      -1.51453469E-05
   5.11320019      -1.32095502E-05
   5.12519979      -1.18580238E-05
   5.13719988      -1.11298568E-05
   5.14919996      -1.10473975E-05
   5.16120005      -1.16152805E-05
   5.17320013      -1.28199517E-05
   5.18520021      -1.46296788E-05
   5.19719982      -1.69951272E-05
   5.20919991      -1.98505149E-05
   5.22119999      -2.31153299E-05
   5.23320007      -2.66965744E-05
   5.24520016      -3.04914993E-05
   5.25719976      -3.43907086E-05
   5.26919985      -3.82815451E-05
   5.28119993      -4.20516008E-05
   5.29320002      -4.55922054E-05
   5.30520010      -4.88017758E-05
   5.31720018      -5.15888059E-05
   5.32919979      -5.38744898E-05
   5.34119987      -5.55947190E-05
   5.35319996      -5.67015559E-05
   5.36520004      -5.71639976E-05
   5.37720013      -5.69681761E-05
   5.38920021      -5.61168381E-05
   5.40119982      -5.46283918E-05
   5.41319990      -5.25354080E-05
   5.42519999      -4.98827831E-05
   5.43720007      -4.67256468E-05
   5.44920015      -4.31271801E-05
   5.46120024      -3.91563735E-05
   5.47319984      -3.48859467E-05
   5.48519993      -3.03904253E-05
   5.49720001      -2.57445226E-05
   5.50920010      -2.10218113E-05
   5.52120018      -1.62937613E-05
   5.53319979      -1.16290512E-05
   5.54519987      -7.09318556E-06
   5.55719995      -2.74830018E-06
   5.56920004       1.34689174E-06
   5.58120012       5.13709711E-06
   5.59320021       8.57047326E-06
   5.60519981       1.15987541E-05
   5.61719990       1.41775145E-05
   5.62919998       1.62666165E-05
   5.64120007       1.78308401E-05
   5.65320015       1.88406793E-05
   5.66520023       1.92732823E-05
   5.67719984       1.91134459E-05
   5.68919992       1.83546508E-05
   5.70120001       1.69999948E-05
   5.71320009       1.50629949E-05
   5.72520018       1.25681527E-05
   5.73719978       9.55123596E-06
   5.74919987       6.05919604E-06
   5.76119995       2.14971305E-06
   5.77320004      -2.10967232E-06
   5.78520012      -6.64281242E-06
   5.79720020      -1.13665847E-05
   5.80919981      -1.61928419E-05
   5.82119989      -2.10306298E-05
   5.83319998      -2.57885658E-05
   5.84520006      -3.03773195E-05
   5.85720015      -3.47120840E-05
   5.86920023      -3.87149121E-05
   5.88119984      -4.23168894E-05
   5.89319992      -4.54599794E-05
   5.90520000      -4.80985473E-05
   5.91720009      -5.02004223E-05
   5.92920017      -5.17476001E-05
   5.94119978      -5.27364173E-05
   5.95319986      -5.31773112E-05
   5.96519995      -5.30941397E-05
   5.97720003      -5.25230644E-05
   5.98920012      -5.15111315E-05
   6.00120020      -5.01144932E-05
   6.01319981      -4.83963959E-05
   6.02519989      -4.64249824E-05
   6.03719997      -4.42710116E-05
   6.04920006      -4.20055476E-05
   6.06120014      -3.96977266E-05
   6.07320023      -3.74126830E-05
   6.08519983      -3.52097013E-05
   6.09719992      -3.31406736E-05
   6.10920000      -3.12488737E-05
   6.12120008      -2.95681239E-05
   6.13320017      -2.81223220E-05
   6.14519978      -2.69253869E-05
   6.15719986      -2.59815351E-05
   6.16919994      -2.52859300E-05
   6.18120003      -2.48256420E-05
   6.19320011      -2.45809024E-05
   6.20520020      -2.45265546E-05
   6.21719980      -2.46337149E-05
   6.22919989      -2.48714950E-05
   6.24119997      -2.52087721E-05
   6.25320005      -2.56158910E-05
   6.26520014      -2.60661982E-05
   6.27720022      -2.65374129E-05
   6.28919983      -2.70126657E-05
   6.30119991      -2.74812373E-05
   6.31320000      -2.79389242E-05
   6.32520008      -2.83880272E-05
   6.33720016      -2.88369756E-05
   6.34919977      -2.92996156E-05
   6.36119986      -2.97941806E-05
   6.37319994      -3.03420074E-05
   6.38520002      -3.09660973E-05
   6.39720011      -3.16895603E-05
   6.40920019      -3.25340225E-05
   6.42119980      -3.35181321E-05
   6.43319988      -3.46561974E-05
   6.44519997      -3.59570331E-05
   6.45720005      -3.74231095E-05
   6.46920013      -3.90499736E-05
   6.48120022      -4.08260385E-05
   6.49319983      -4.27326595E-05
   6.50519991      -4.47445382E-05
   6.51719999      -4.68303588E-05
   6.52920008      -4.89536615E-05
   6.54120016      -5.10738464E-05
   6.55319977      -5.31473197E-05
   6.56519985      -5.51286685E-05
   6.57719994      -5.69718177E-05
   6.58920002      -5.86312271E-05
   6.60120010      -6.00630083E-05
   6.61320019      -6.12259682E-05
   6.62519979      -6.20826468E-05
   6.63719988      -6.26002075E-05
   6.64919996      -6.27513873E-05
   6.66120005      -6.25152752E-05
   6.67320013      -6.18780905E-05
   6.68520021      -6.08338269E-05
   6.69719982      -5.93848381E-05
   6.70919991      -5.75422273E-05
   6.72119999      -5.53261016E-05
   6.73320007      -5.27655575E-05
   6.74520016      -4.98984919E-05
   6.75719976      -4.67710597E-05
   6.76919985      -4.34368994E-05
   6.78119993      -3.99560377E-05
   6.79320002      -3.63935142E-05
   6.80520010      -3.28177666E-05
   6.81720018      -2.92987861E-05
   6.82919979      -2.59061362E-05
   6.84119987      -2.27069013E-05
   6.85319996      -1.97636673E-05
   6.86520004      -1.71325955E-05
   6.87720013      -1.48617210E-05
   6.88920021      -1.29895616E-05
   6.90119982      -1.15440862E-05
   6.91319990      -1.05421232E-05
   6.92519999      -9.98919768E-06
   6.93720007      -9.87983458E-06
   6.94920015      -1.01982787E-05
   6.96120024      -1.09195607E-05
   6.97319984      -1.20108743E-05
   6.98519993      -1.34331349E-05
   6.99720001      -1.51426584E-05
   7.00920010      -1.70928488E-05
   7.02120018      -1.92357838E-05
   7.03319979      -2.15236560E-05
   7.04519987      -2.39099645E-05
   7.05719995      -2.63504589E-05
   7.06920004      -2.88037863E-05
   7.08120012      -3.12318480E-05
   7.09320021      -3.35999393E-05
   7.10519981      -3.58766702E-05
   7.11719990      -3.80337842E-05
   7.12919998      -4.00459176E-05
   7.14120007      -4.18903692E-05
   7.15320015      -4.35469447E-05
   7.16520023      -4.49979561E-05
   7.17719984      -4.62283133E-05
   7.18919992      -4.72257962E-05
   7.20120001      -4.79814407E-05
   7.21320009      -4.84900120E-05
   7.22520018      -4.87504985E-05
   7.23719978      -4.87665711E-05
   7.24919987      -4.85469354E-05
   7.26119995      -4.81054813E-05
   7.27320004      -4.74612752E-05
   7.28520012      -4.66382007E-05
   7.29720020      -4.56643647E-05
   7.30919981      -4.45712431E-05
   7.32119989      -4.33925779E-05
   7.33319998      -4.21630866E-05
   7.34520006      -4.09171007E-05
   7.35720015      -3.96871437E-05
   7.36920023      -3.85026506E-05
   7.38119984      -3.73887706E-05
   7.39319992      -3.63654653E-05
   7.40520000      -3.54468830E-05
   7.41720009      -3.46410743E-05
   7.42920017      -3.39500803E-05
   7.44119978      -3.33703138E-05
   7.45319986      -3.28933129E-05
   7.46519995      -3.25066758E-05
   7.47720003      -3.21952139E-05
   7.48920012      -3.19421670E-05
   7.50120020      -3.17304039E-05
   7.51319981      -3.15435609E-05
   7.52519989      -3.13670098E-05
   7.53719997      -3.11886106E-05
   7.54920006      -3.09992356E-05
   7.56120014      -3.07930204E-05
   7.57320023      -3.05673748E-05
   7.58519983      -3.03227680E-05
   7.59719992      -3.00623560E-05
   7.60920000      -2.97914285E-05
   7.62120008      -2.95168356E-05
   7.63320017      -2.92463665E-05
   7.64519978      -2.89881773E-05
   7.65719986      -2.87503026E-05
   7.66919994      -2.85402730E-05
   7.68120003      -2.83648424E-05
   7.69320011      -2.82298624E-05
   7.70520020      -2.81402354E-05
   7.71719980      -2.80999393E-05
   7.72919989      -2.81120829E-05
   7.74119997      -2.81789416E-05
   7.75320005      -2.83019835E-05
   7.76520014      -2.84818052E-05
   7.77720022      -2.87180246E-05
   7.78919983      -2.90091029E-05
   7.80119991      -2.93521662E-05
   7.81320000      -2.97428032E-05
   7.82520008      -3.01749151E-05
   7.83720016      -3.06406255E-05
   7.84919977      -3.11303484E-05
   7.86119986      -3.16329570E-05
   7.87319994      -3.21361513E-05
   7.88520002      -3.26269510E-05
   7.89720011      -3.30923940E-05
   7.90920019      -3.35203185E-05
   7.92119980      -3.39002218E-05
   7.93319988      -3.42241510E-05
   7.94519997      -3.44874788E-05
   7.95720005      -3.46895758E-05
   7.96920013      -3.48342328E-05
   7.98120022      -3.49298280E-05
   7.99319983      -3.49891234E-05
   8.00520039      -3.50288065E-05
   8.01720047      -3.50686278E-05
   8.02919960      -3.51303024E-05
   8.04119968      -3.52362040E-05
   8.05319977      -3.54078693E-05
   8.06519985      -3.56645323E-05
   8.07719994      -3.60216363E-05
   8.08920002      -3.64895968E-05
   8.10120010      -3.70727539E-05
   8.11320019      -3.77686920E-05
   8.12520027      -3.85679341E-05
   8.13720036      -3.94540584E-05
   8.14920044      -4.04042730E-05
   8.16119957      -4.13903472E-05
   8.17319965      -4.23799065E-05
   8.18519974      -4.33380119E-05
   8.19719982      -4.42288510E-05
   8.20919991      -4.50175394E-05
   8.22119999      -4.56718626E-05
   8.23320007      -4.61638228E-05
   8.24520016      -4.64709810E-05
   8.25720024      -4.65774901E-05
   8.26920033      -4.64747027E-05
   8.28120041      -4.61614291E-05
   8.29319954      -4.56437883E-05
   8.30519962      -4.49346662E-05
   8.31719971      -4.40528893E-05
   8.32919979      -4.30220716E-05
   8.34119987      -4.18693635E-05
   8.35319996      -4.06240251E-05
   8.36520004      -3.93160481E-05
   8.37720013      -3.79748490E-05
   8.38920021      -3.66280547E-05
   8.40120029      -3.53005489E-05
   8.41320038      -3.40136867E-05
   8.42520046      -3.27847883E-05
   8.43719959      -3.16268561E-05
   8.44919968      -3.05485446E-05
   8.46119976      -2.95542959E-05
   8.47319984      -2.86446975E-05
   8.48519993      -2.78169391E-05
   8.49720001      -2.70653836E-05
   8.50920010      -2.63821985E-05
   8.52120018      -2.57579886E-05
   8.53320026      -2.51824604E-05
   8.54520035      -2.46450254E-05
   8.55720043      -2.41353428E-05
   8.56919956      -2.36438555E-05
   8.58119965      -2.31622162E-05
   8.59319973      -2.26836855E-05
   8.60519981      -2.22034596E-05
   8.61719990      -2.17189572E-05
   8.62919998      -2.12300292E-05
   8.64120007      -2.07391004E-05
   8.65320015      -2.02512620E-05
   8.66520023      -1.97742193E-05
   8.67720032      -1.93181822E-05
   8.68920040      -1.88956401E-05
   8.70119953      -1.85210138E-05
   8.71319962      -1.82102340E-05
   8.72519970      -1.79802009E-05
   8.73719978      -1.78481969E-05
   8.74919987      -1.78312239E-05
   8.76119995      -1.79453327E-05
   8.77320004      -1.82049171E-05
   8.78520012      -1.86220568E-05
   8.79720020      -1.92058997E-05
   8.80920029      -1.99621172E-05
   8.82120037      -2.08924757E-05
   8.83320045      -2.19945396E-05
   8.84519958      -2.32615257E-05
   8.85719967      -2.46823074E-05
   8.86919975      -2.62415851E-05
   8.88119984      -2.79201904E-05
   8.89319992      -2.96955332E-05
   8.90520000      -3.15421312E-05
   8.91720009      -3.34322285E-05
   8.92920017      -3.53364885E-05
   8.94120026      -3.72246577E-05
   8.95320034      -3.90662899E-05
   8.96520042      -4.08314154E-05
   8.97719955      -4.24912396E-05
   8.98919964      -4.40187723E-05
   9.00119972      -4.53894208E-05
   9.01319981      -4.65815938E-05
   9.02519989      -4.75772176E-05
   9.03719997      -4.83622171E-05
   9.04920006      -4.89269623E-05
   9.06120014      -4.92666331E-05
   9.07320023      -4.93815278E-05
   9.08520031      -4.92772306E-05
   9.09720039      -4.89646773E-05
   9.10919952      -4.84600750E-05
   9.12119961      -4.77846115E-05
   9.13319969      -4.69639672E-05
   9.14519978      -4.60276497E-05
   9.15719986      -4.50080734E-05
   9.16919994      -4.39394789E-05
   9.18120003      -4.28566782E-05
   9.19320011      -4.17937008E-05
   9.20520020      -4.07823609E-05
   9.21720028      -3.98508892E-05
   9.22920036      -3.90226305E-05
   9.24120045      -3.83149491E-05
   9.25319958      -3.77383731E-05
   9.26519966      -3.72960458E-05
   9.27719975      -3.69835943E-05
   9.28919983      -3.67893517E-05
   9.30119991      -3.66949753E-05
   9.31320000      -3.66764907E-05
   9.32520008      -3.67056164E-05
   9.33720016      -3.67513603E-05
   9.34920025      -3.67818211E-05
   9.36120033      -3.67660141E-05
   9.37320042      -3.66756649E-05
   9.38519955      -3.64869011E-05
   9.39719963      -3.61816419E-05
   9.40919971      -3.57486788E-05
   9.42119980      -3.51843701E-05
   9.43319988      -3.44928958E-05
   9.44519997      -3.36860357E-05
