 -0.622799993       0.00000000    
 -0.610800028       0.00000000    
 -0.598800004       0.00000000    
 -0.586799979       0.00000000    
 -0.574800014       3.80003133E-24
 -0.562799990       2.86999020E-23
 -0.550800025       1.10389005E-22
 -0.538800001       2.56667823E-22
 -0.526799977       2.25189269E-22
 -0.514800012      -1.11003407E-21
 -0.502799988      -7.06224835E-21
 -0.490799993      -2.50496753E-20
 -0.478799999      -6.81940557E-20
 -0.466800004      -1.54406147E-19
 -0.454800010      -3.00061732E-19
 -0.442799985      -5.06816353E-19
 -0.430799991      -7.44962634E-19
 -0.418799996      -9.44278575E-19
 -0.406800002      -1.00949598E-18
 -0.394800007      -8.75458389E-19
 -0.382800013      -6.00520303E-19
 -0.370799989      -4.65952959E-19
 -0.358799994      -1.01575866E-18
 -0.346799999      -2.95830641E-18
 -0.334800005      -6.88393602E-18
 -0.322800010      -1.28420750E-17
 -0.310799986      -1.99466167E-17
 -0.298799992      -2.62804495E-17
 -0.286799997      -2.93680120E-17
 -0.274800003      -2.73147545E-17
 -0.262800008      -2.03789377E-17
 -0.250800014      -1.23497346E-17
 -0.238800004      -1.08551756E-17
 -0.226799995      -2.58297734E-17
 -0.214800000      -6.59551734E-17
 -0.202800006      -1.33856048E-16
 -0.190799996      -2.21843858E-16
 -0.178800002      -3.10540913E-16
 -0.166800007      -3.72316350E-16
 -0.154799998      -3.79962463E-16
 -0.142800003      -3.18778573E-16
 -0.130799994      -1.98045170E-16
 -0.118799999      -5.68242310E-17
 -0.106799997       4.00856754E-17
  -9.48000029E-02   1.72996785E-17
  -8.28000009E-02  -1.87702064E-16
  -7.07999989E-02  -5.99267922E-16
  -5.88000007E-02  -1.18445022E-15
  -4.67999987E-02  -1.84680139E-15
  -3.48000005E-02  -2.43615675E-15
  -2.28000004E-02  -2.77317338E-15
  -1.08000003E-02  -2.68461629E-15
   1.20000006E-03  -2.04523135E-15
   1.31999999E-02  -8.23625245E-16
   2.52000000E-02   8.70072243E-16
   3.72000001E-02   2.74125357E-15
   4.91999984E-02   4.28920967E-15
   6.12000003E-02   4.83592963E-15
   7.32000023E-02   3.64045359E-15
   8.51999968E-02   1.22130703E-16
   9.71999988E-02  -5.82139741E-15
  0.109200001      -1.34761087E-14
  0.121200003      -2.10929229E-14
  0.133200005      -2.59645177E-14
  0.145199999      -2.49452931E-14
  0.157199994      -1.54452257E-14
  0.169200003       3.26789779E-15
  0.181199998       2.88472317E-14
  0.193200007       5.52762249E-14
  0.205200002       7.34533081E-14
  0.217199996       7.32540046E-14
  0.229200006       4.68960909E-14
  0.241200000      -7.16891417E-15
  0.253199995      -8.11401388E-14
  0.265199989      -1.57030503E-13
  0.277200013      -2.09288438E-13
  0.289200008      -2.11156247E-13
  0.301200002      -1.43724618E-13
  0.313199997      -5.28678790E-15
  0.325199991       1.82287264E-13
  0.337199986       3.73369304E-13
  0.349200010       5.06530148E-13
  0.361200005       5.20253979E-13
  0.373199999       3.73206538E-13
  0.385199994       6.34334572E-14
  0.397199988      -3.60195733E-13
  0.409200013      -7.99992939E-13
  0.421200007      -1.12745631E-12
  0.433200002      -1.21515070E-12
  0.445199996      -9.75419290E-13
  0.457199991      -3.95321471E-13
  0.469199985       4.43600018E-13
  0.481200010       1.36942302E-12
  0.493200004       2.15068566E-12
  0.505200028       2.54927047E-12
  0.517199993       2.38352155E-12
  0.529200017       1.58536205E-12
  0.541199982       2.35072514E-13
  0.553200006      -1.43800380E-12
  0.565199971      -3.09228945E-12
  0.577199996      -4.34208832E-12
  0.589200020      -4.84235482E-12
  0.601199985      -4.37082792E-12
  0.613200009      -2.88856872E-12
  0.625199974      -5.65046978E-13
  0.637199998       2.23788934E-12
  0.649200022       5.02000524E-12
  0.661199987       7.22437518E-12
  0.673200011       8.33269218E-12
  0.685199976       7.95968760E-12
  0.697200000       5.93411301E-12
  0.709200025       2.35643601E-12
  0.721199989      -2.37461851E-12
  0.733200014      -7.57368213E-12
  0.745199978      -1.23250273E-11
  0.757200003      -1.55880690E-11
  0.769200027      -1.63514861E-11
  0.781199992      -1.38260948E-11
  0.793200016      -7.65428866E-12
  0.805199981       1.89864726E-12
  0.817200005       1.38143229E-11
  0.829200029       2.62949645E-11
  0.841199994       3.68726924E-11
  0.853200018       4.26639384E-11
  0.865199983       4.07493483E-11
  0.877200007       2.86297375E-11
  0.889199972       4.68578518E-12
  0.901199996      -3.14402497E-11
  0.913200021      -7.86148438E-11
  0.925199986      -1.34185371E-10
  0.937200010      -1.94168112E-10
  0.949199975      -2.53625482E-10
  0.961199999      -3.07170483E-10
  0.973200023      -3.49510115E-10
  0.985199988      -3.75928066E-10
  0.997200012      -3.82607973E-10
   1.00919998      -3.66708552E-10
   1.02119994      -3.26111277E-10
   1.03320003      -2.58768534E-10
   1.04519999      -1.61572367E-10
   1.05719995      -2.86448712E-11
   1.06920004       1.51090584E-10
   1.08120000       3.97253203E-10
   1.09319997       7.42529538E-10
   1.10520005       1.23873889E-09
   1.11720002       1.96490402E-09
   1.12919998       3.03792125E-09
   1.14119995       4.62659733E-09
   1.15320003       6.96998725E-09
   1.16520000       1.04012328E-08
   1.17719996       1.53783173E-08
   1.18920004       2.25234640E-08
   1.20120001       3.26731282E-08
   1.21319997       4.69408619E-08
   1.22520006       6.67953088E-08
   1.23720002       9.41554674E-08
   1.24919999       1.31505288E-07
   1.26119995       1.82028430E-07
   1.27320004       2.49763275E-07
   1.28520000       3.39775909E-07
   1.29719996       4.58347273E-07
   1.30920005       6.13167401E-07
   1.32120001       8.13525901E-07
   1.33319998       1.07048697E-06
   1.34519994       1.39703025E-06
   1.35720003       1.80813981E-06
   1.36919999       2.32081948E-06
   1.38119996       2.95401401E-06
   1.39320004       3.72841282E-06
   1.40520000       4.66612028E-06
   1.41719997       5.79018024E-06
   1.42920005       7.12394012E-06
   1.44120002       8.69026735E-06
   1.45319998       1.05106210E-05
   1.46519995       1.26040004E-05
   1.47720003       1.49858142E-05
   1.48920000       1.76666963E-05
   1.50119996       2.06513432E-05
   1.51320004       2.39374240E-05
   1.52520001       2.75146303E-05
   1.53719997       3.13639284E-05
   1.54920006       3.54571021E-05
   1.56120002       3.97565927E-05
   1.57319999       4.42157470E-05
   1.58519995       4.87794387E-05
   1.59720004       5.33850725E-05
   1.60920000       5.79640255E-05
   1.62119997       6.24434178E-05
   1.63320005       6.67481290E-05
   1.64520001       7.08031002E-05
   1.65719998       7.45356883E-05
   1.66919994       7.78780668E-05
   1.68120003       8.07695033E-05
   1.69319999       8.31584694E-05
   1.70519996       8.50043361E-05
   1.71720004       8.62788002E-05
   1.72920001       8.69667419E-05
   1.74119997       8.70665899E-05
   1.75320005       8.65902039E-05
   1.76520002       8.55621402E-05
   1.77719998       8.40185239E-05
   1.78919995       8.20054556E-05
   1.80120003       7.95770757E-05
   1.81320000       7.67934980E-05
   1.82519996       7.37184528E-05
   1.83720005       7.04171252E-05
   1.84920001       6.69539368E-05
   1.86119998       6.33906311E-05
   1.87320006       5.97846629E-05
   1.88520002       5.61878878E-05
   1.89719999       5.26457261E-05
   1.90919995       4.91967003E-05
   1.92120004       4.58723989E-05
   1.93320000       4.26978368E-05
   1.94519997       3.96920877E-05
   1.95720005       3.68692054E-05
   1.96920002       3.42392632E-05
   1.98119998       3.18094608E-05
   1.99319994       2.95852260E-05
   2.00519991       2.75711554E-05
   2.01719999       2.57717602E-05
   2.02920008       2.41919734E-05
   2.04119992       2.28373447E-05
   2.05320001       2.17139204E-05
   2.06520009       2.08278307E-05
   2.07719994       2.01845833E-05
   2.08920002       1.97881600E-05
   2.10120010       1.96399706E-05
   2.11319995       1.97377485E-05
   2.12520003       2.00744944E-05
   2.13720012       2.06375607E-05
   2.14919996       2.14079901E-05
   2.16120005       2.23601455E-05
   2.17319989       2.34617619E-05
   2.18519998       2.46744239E-05
   2.19720006       2.59544522E-05
   2.20919991       2.72542657E-05
   2.22119999       2.85240931E-05
   2.23320007       2.97140086E-05
   2.24519992       3.07761511E-05
   2.25720000       3.16670303E-05
   2.26920009       3.23498280E-05
   2.28119993       3.27964262E-05
   2.29320002       3.29892282E-05
   2.30520010       3.29224604E-05
   2.31719995       3.26030240E-05
   2.32920003       3.20506952E-05
   2.34120011       3.12977900E-05
   2.35319996       3.03881461E-05
   2.36520004       2.93756002E-05
   2.37719989       2.83219761E-05
   2.38919997       2.72947127E-05
   2.40120006       2.63642651E-05
   2.41319990       2.56014264E-05
   2.42519999       2.50747689E-05
   2.43720007       2.48482866E-05
   2.44919991       2.49794302E-05
   2.46120000       2.55175964E-05
   2.47320008       2.65031995E-05
   2.48519993       2.79673168E-05
   2.49720001       2.99319418E-05
   2.50920010       3.24108005E-05
   2.52119994       3.54106560E-05
   2.53320003       3.89330125E-05
   2.54520011       4.29761167E-05
   2.55719995       4.75370143E-05
   2.56920004       5.26136901E-05
   2.58119988       5.82069879E-05
   2.59319997       6.43222884E-05
   2.60520005       7.09707383E-05
   2.61719990       7.81700583E-05
   2.62919998       8.59447173E-05
   2.64120007       9.43256091E-05
   2.65319991       1.03349077E-04
   2.66520000       1.13055437E-04
   2.67720008       1.23486956E-04
   2.68919992       1.34685324E-04
   2.70120001       1.46688952E-04
   2.71320009       1.59529867E-04
   2.72519994       1.73230481E-04
   2.73720002       1.87800528E-04
   2.74920011       2.03233925E-04
   2.76119995       2.19505979E-04
   2.77320004       2.36570966E-04
   2.78520012       2.54360173E-04
   2.79719996       2.72780540E-04
   2.80920005       2.91713892E-04
   2.82119989       3.11016891E-04
   2.83319998       3.30521871E-04
   2.84520006       3.50038259E-04
   2.85719991       3.69354995E-04
   2.86919999       3.88243439E-04
   2.88120008       4.06461215E-04
   2.89319992       4.23756544E-04
   2.90520000       4.39873198E-04
   2.91720009       4.54555789E-04
   2.92919993       4.67555597E-04
   2.94120002       4.78636357E-04
   2.95320010       4.87580022E-04
   2.96519995       4.94192645E-04
   2.97720003       4.98309731E-04
   2.98920012       4.99801419E-04
   3.00119996       4.98576497E-04
   3.01320004       4.94586537E-04
   3.02519989       4.87828162E-04
   3.03719997       4.78345144E-04
   3.04920006       4.66228696E-04
   3.06119990       4.51617059E-04
   3.07319999       4.34693648E-04
   3.08520007       4.15683666E-04
   3.09719992       3.94850125E-04
   3.10920000       3.72487993E-04
   3.12120008       3.48917791E-04
   3.13319993       3.24478257E-04
   3.14520001       2.99518171E-04
   3.15720010       2.74388032E-04
   3.16919994       2.49431381E-04
   3.18120003       2.24976553E-04
   3.19320011       2.01328614E-04
   3.20519996       1.78762348E-04
   3.21720004       1.57516144E-04
   3.22919989       1.37787094E-04
   3.24119997       1.19727782E-04
   3.25320005       1.03444385E-04
   3.26519990       8.89966250E-05
   3.27719998       7.63991702E-05
   3.28920007       6.56246557E-05
   3.30119991       5.66079798E-05
   3.31320000       4.92517138E-05
   3.32520008       4.34323956E-05
   3.33719993       3.90073037E-05
   3.34920001       3.58214420E-05
   3.36120009       3.37143865E-05
   3.37319994       3.25267320E-05
   3.38520002       3.21058069E-05
   3.39720011       3.23104614E-05
   3.40919995       3.30147850E-05
   3.42120004       3.41106461E-05
   3.43319988       3.55090051E-05
   3.44519997       3.71400965E-05
   3.45720005       3.89525085E-05
   3.46919990       4.09113709E-05
   3.48119998       4.29957909E-05
   3.49320006       4.51957567E-05
   3.50519991       4.75087872E-05
   3.51719999       4.99364214E-05
   3.52920008       5.24809038E-05
   3.54119992       5.51421290E-05
   3.55320001       5.79150619E-05
   3.56520009       6.07877082E-05
   3.57719994       6.37397316E-05
   3.58920002       6.67417698E-05
   3.60120010       6.97553769E-05
   3.61319995       7.27336010E-05
   3.62520003       7.56221634E-05
   3.63720012       7.83611176E-05
   3.64919996       8.08867917E-05
   3.66120005       8.31341822E-05
   3.67319989       8.50393335E-05
   3.68519998       8.65419061E-05
   3.69720006       8.75877085E-05
   3.70919991       8.81309970E-05
   3.72119999       8.81366941E-05
   3.73320007       8.75822661E-05
   3.74519992       8.64593021E-05
   3.75720000       8.47746342E-05
   3.76920009       8.25510870E-05
   3.78119993       7.98277033E-05
   3.79320002       7.66595185E-05
   3.80520010       7.31168111E-05
   3.81719995       6.92838003E-05
   3.82920003       6.52569433E-05
   3.84120011       6.11427240E-05
   3.85319996       5.70550365E-05
   3.86520004       5.31123042E-05
   3.87719989       4.94342858E-05
   3.88919997       4.61387717E-05
   3.90120006       4.33382193E-05
   3.91319990       4.11364890E-05
   3.92519999       3.96257346E-05
   3.93720007       3.88836052E-05
   3.94919991       3.89708330E-05
   3.96120000       3.99292876E-05
   3.97320008       4.17805968E-05
   3.98519993       4.45253208E-05
   3.99720001       4.81427669E-05
   4.00920010       5.25913783E-05
   4.02120018       5.78097242E-05
   4.03319979       6.37180274E-05
   4.04519987       7.02201287E-05
   4.05719995       7.72058993E-05
   4.06920004       8.45539471E-05
   4.08120012       9.21345563E-05
   4.09320021       9.98127507E-05
   4.10519981       1.07451488E-04
   4.11719990       1.14914757E-04
   4.12919998       1.22070604E-04
   4.14120007       1.28794054E-04
   4.15320015       1.34969800E-04
   4.16520023       1.40494638E-04
   4.17719984       1.45279599E-04
   4.18919992       1.49251893E-04
   4.20120001       1.52356384E-04
   4.21320009       1.54556765E-04
   4.22520018       1.55836373E-04
   4.23719978       1.56198483E-04
   4.24919987       1.55666406E-04
   4.26119995       1.54282927E-04
   4.27320004       1.52109453E-04
   4.28520012       1.49224623E-04
   4.29720020       1.45722588E-04
   4.30919981       1.41710843E-04
   4.32119989       1.37307623E-04
   4.33319998       1.32639121E-04
   4.34520006       1.27836392E-04
   4.35720015       1.23032121E-04
   4.36920023       1.18357297E-04
   4.38119984       1.13937887E-04
   4.39319992       1.09891684E-04
   4.40520000       1.06325395E-04
   4.41720009       1.03332008E-04
   4.42920017       1.00988567E-04
   4.44119978       9.93545036E-05
   4.45319986       9.84703947E-05
   4.46519995       9.83573700E-05
   4.47720003       9.90170083E-05
   4.48920012       1.00431855E-04
   4.50120020       1.02566395E-04
   4.51319981       1.05368548E-04
   4.52519989       1.08771470E-04
   4.53719997       1.12695838E-04
   4.54920006       1.17052179E-04
   4.56120014       1.21743542E-04
   4.57320023       1.26668179E-04
   4.58519983       1.31722190E-04
   4.59719992       1.36802148E-04
   4.60920000       1.41807643E-04
   4.62120008       1.46643535E-04
   4.63320017       1.51222092E-04
   4.64519978       1.55464775E-04
   4.65719986       1.59303745E-04
   4.66919994       1.62683151E-04
   4.68120003       1.65559875E-04
   4.69320011       1.67904160E-04
   4.70520020       1.69699633E-04
   4.71719980       1.70943182E-04
   4.72919989       1.71644264E-04
   4.74119997       1.71824111E-04
   4.75320005       1.71514417E-04
   4.76520014       1.70755811E-04
   4.77720022       1.69596242E-04
   4.78919983       1.68088955E-04
   4.80119991       1.66290556E-04
   4.81320000       1.64259080E-04
   4.82520008       1.62052020E-04
   4.83720016       1.59724572E-04
   4.84919977       1.57328075E-04
   4.86119986       1.54908805E-04
   4.87319994       1.52506967E-04
   4.88520002       1.50156251E-04
   4.89720011       1.47883620E-04
   4.90920019       1.45709491E-04
   4.92119980       1.43648256E-04
   4.93319988       1.41709155E-04
   4.94519997       1.39897267E-04
   4.95720005       1.38214673E-04
   4.96920013       1.36661809E-04
   4.98120022       1.35238559E-04
   4.99319983       1.33945417E-04
   5.00519991       1.32784509E-04
   5.01719999       1.31760171E-04
   5.02920008       1.30879474E-04
   5.04120016       1.30152228E-04
   5.05319977       1.29590771E-04
   5.06519985       1.29209555E-04
   5.07719994       1.29024149E-04
   5.08920002       1.29050401E-04
   5.10120010       1.29303022E-04
   5.11320019       1.29794425E-04
   5.12519979       1.30533255E-04
   5.13719988       1.31523149E-04
   5.14919996       1.32761445E-04
   5.16120005       1.34238246E-04
   5.17320013       1.35935567E-04
   5.18520021       1.37826821E-04
   5.19719982       1.39876764E-04
   5.20919991       1.42041477E-04
   5.22119999       1.44269114E-04
   5.23320007       1.46500635E-04
   5.24520016       1.48671141E-04
   5.25719976       1.50711276E-04
   5.26919985       1.52549139E-04
   5.28119993       1.54112146E-04
   5.29320002       1.55329210E-04
   5.30520010       1.56132868E-04
   5.31720018       1.56461421E-04
   5.32919979       1.56261071E-04
   5.34119987       1.55487738E-04
   5.35319996       1.54108842E-04
   5.36520004       1.52104709E-04
   5.37720013       1.49469575E-04
   5.38920021       1.46212391E-04
   5.40119982       1.42357036E-04
   5.41319990       1.37942188E-04
   5.42519999       1.33020789E-04
   5.43720007       1.27659077E-04
   5.44920015       1.21935125E-04
   5.46120024       1.15937219E-04
   5.47319984       1.09761684E-04
   5.48519993       1.03510713E-04
   5.49720001       9.72898197E-05
   5.50920010       9.12052856E-05
   5.52120018       8.53615347E-05
   5.53319979       7.98586334E-05
   5.54519987       7.47898448E-05
   5.55719995       7.02394464E-05
   5.56920004       6.62808670E-05
   5.58120012       6.29751376E-05
   5.59320021       6.03697481E-05
   5.60519981       5.84979462E-05
   5.61719990       5.73785146E-05
   5.62919998       5.70159027E-05
   5.64120007       5.74007790E-05
   5.65320015       5.85109992E-05
   5.66520023       6.03127446E-05
   5.67719984       6.27619957E-05
   5.68919992       6.58060017E-05
   5.70120001       6.93849652E-05
   5.71320009       7.34335626E-05
   5.72520018       7.78824106E-05
   5.73719978       8.26594260E-05
   5.74919987       8.76909544E-05
   5.76119995       9.29027738E-05
   5.77320004       9.82208148E-05
   5.78520012       1.03571823E-04
   5.79720020       1.08883818E-04
   5.80919981       1.14086622E-04
   5.82119989       1.19112236E-04
   5.83319998       1.23895326E-04
   5.84520006       1.28373809E-04
   5.85720015       1.32489615E-04
   5.86920023       1.36189366E-04
   5.88119984       1.39425363E-04
   5.89319992       1.42156583E-04
   5.90520000       1.44349746E-04
   5.91720009       1.45980172E-04
   5.92920017       1.47032770E-04
   5.94119978       1.47502666E-04
   5.95319986       1.47395709E-04
   5.96519995       1.46728489E-04
   5.97720003       1.45528320E-04
   5.98920012       1.43832556E-04
   6.00120020       1.41687735E-04
   6.01319981       1.39148440E-04
   6.02519989       1.36275848E-04
   6.03719997       1.33136127E-04
   6.04920006       1.29798704E-04
   6.06120014       1.26334591E-04
   6.07320023       1.22814730E-04
   6.08519983       1.19308483E-04
   6.09719992       1.15882336E-04
   6.10920000       1.12598791E-04
   6.12120008       1.09515502E-04
   6.13320017       1.06684674E-04
   6.14519978       1.04152590E-04
   6.15719986       1.01959340E-04
   6.16919994       1.00138648E-04
   6.18120003       9.87177264E-05
   6.19320011       9.77171803E-05
   6.20520020       9.71508489E-05
   6.21719980       9.70256369E-05
   6.22919989       9.73412971E-05
   6.24119997       9.80901750E-05
   6.25320005       9.92570131E-05
   6.26520014       1.00818776E-04
   6.27720022       1.02744634E-04
   6.28919983       1.04996121E-04
   6.30119991       1.07527572E-04
   6.31320000       1.10286826E-04
   6.32520008       1.13216251E-04
   6.33720016       1.16254058E-04
   6.34919977       1.19335957E-04
   6.36119986       1.22397047E-04
   6.37319994       1.25373743E-04
   6.38520002       1.28205851E-04
   6.39720011       1.30838613E-04
   6.40920019       1.33224341E-04
   6.42119980       1.35323979E-04
   6.43319988       1.37108058E-04
   6.44519997       1.38557298E-04
   6.45720005       1.39662647E-04
   6.46920013       1.40424701E-04
   6.48120022       1.40852746E-04
   6.49319983       1.40963297E-04
   6.50519991       1.40778415E-04
   6.51719999       1.40323726E-04
   6.52920008       1.39626427E-04
   6.54120016       1.38713469E-04
   6.55319977       1.37610026E-04
   6.56519985       1.36338160E-04
   6.57719994       1.34916234E-04
   6.58920002       1.33358670E-04
   6.60120010       1.31676352E-04
   6.61320019       1.29877473E-04
   6.62519979       1.27968859E-04
   6.63719988       1.25957537E-04
   6.64919996       1.23852456E-04
   6.66120005       1.21666264E-04
   6.67320013       1.19416851E-04
   6.68520021       1.17128518E-04
   6.69719982       1.14832896E-04
   6.70919991       1.12569025E-04
   6.72119999       1.10383109E-04
   6.73320007       1.08327491E-04
   6.74520016       1.06459112E-04
   6.75719976       1.04837425E-04
   6.76919985       1.03521998E-04
   6.78119993       1.02569757E-04
   6.79320002       1.02032333E-04
   6.80520010       1.01953316E-04
   6.81720018       1.02365913E-04
   6.82919979       1.03290986E-04
   6.84119987       1.04735569E-04
   6.85319996       1.06692089E-04
   6.86520004       1.09138142E-04
   6.87720013       1.12036934E-04
   6.88920021       1.15338349E-04
   6.90119982       1.18980439E-04
   6.91319990       1.22891448E-04
   6.92519999       1.26991930E-04
   6.93720007       1.31197245E-04
   6.94920015       1.35419847E-04
   6.96120024       1.39571610E-04
   6.97319984       1.43565892E-04
   6.98519993       1.47319326E-04
   6.99720001       1.50753302E-04
   7.00920010       1.53795045E-04
   7.02120018       1.56378417E-04
   7.03319979       1.58444527E-04
   7.04519987       1.59942007E-04
   7.05719995       1.60827301E-04
   7.06920004       1.61064876E-04
   7.08120012       1.60627664E-04
   7.09320021       1.59497329E-04
   7.10519981       1.57665098E-04
   7.11719990       1.55132409E-04
   7.12919998       1.51911998E-04
   7.14120007       1.48028950E-04
   7.15320015       1.43521713E-04
   7.16520023       1.38443153E-04
   7.17719984       1.32861212E-04
   7.18919992       1.26859304E-04
   7.20120001       1.20536097E-04
   7.21320009       1.14004804E-04
   7.22520018       1.07391650E-04
   7.23719978       1.00833655E-04
   7.24919987       9.44756248E-05
   7.26119995       8.84664842E-05
   7.27320004       8.29550481E-05
   7.28520012       7.80853297E-05
   7.29720020       7.39917232E-05
   7.30919981       7.07941217E-05
   7.32119989       6.85933264E-05
   7.33319998       6.74669936E-05
   7.34520006       6.74662442E-05
   7.35720015       6.86132043E-05
   7.36920023       7.08995794E-05
   7.38119984       7.42863922E-05
   7.39319992       7.87048339E-05
   7.40520000       8.40582579E-05
   7.41720009       9.02252432E-05
   7.42920017       9.70634210E-05
   7.44119978       1.04414154E-04
   7.45319986       1.12107526E-04
   7.46519995       1.19967634E-04
   7.47720003       1.27817853E-04
   7.48920012       1.35485825E-04
   7.50120020       1.42808116E-04
   7.51319981       1.49634201E-04
   7.52519989       1.55829854E-04
   7.53719997       1.61279720E-04
   7.54920006       1.65889243E-04
   7.56120014       1.69585735E-04
   7.57320023       1.72318949E-04
   7.58519983       1.74060886E-04
   7.59719992       1.74805304E-04
   7.60920000       1.74566638E-04
   7.62120008       1.73378750E-04
   7.63320017       1.71293548E-04
   7.64519978       1.68379236E-04
   7.65719986       1.64718644E-04
   7.66919994       1.60407377E-04
   7.68120003       1.55551999E-04
   7.69320011       1.50267952E-04
   7.70520020       1.44677557E-04
   7.71719980       1.38907752E-04
   7.72919989       1.33087786E-04
   7.74119997       1.27346633E-04
   7.75320005       1.21810401E-04
   7.76520014       1.16599585E-04
   7.77720022       1.11826237E-04
   7.78919983       1.07591244E-04
   7.80119991       1.03981685E-04
   7.81320000       1.01068443E-04
   7.82520008       9.89042019E-05
   7.83720016       9.75218209E-05
   7.84919977       9.69333414E-05
   7.86119986       9.71295231E-05
   7.87319994       9.80801487E-05
   7.88520002       9.97349489E-05
   7.89720011       1.02025246E-04
   7.90920019       1.04866187E-04
   7.92119980       1.08159613E-04
   7.93319988       1.11797272E-04
   7.94519997       1.15664407E-04
   7.95720005       1.19643562E-04
   7.96920013       1.23618243E-04
   7.98120022       1.27476567E-04
   7.99319983       1.31114561E-04
   8.00520039       1.34438975E-04
   8.01720047       1.37369658E-04
   8.02919960       1.39841315E-04
   8.04119968       1.41804499E-04
   8.05319977       1.43226207E-04
   8.06519985       1.44089718E-04
   8.07719994       1.44393969E-04
   8.08920002       1.44152407E-04
   8.10120010       1.43391560E-04
   8.11320019       1.42149278E-04
   8.12520027       1.40472868E-04
   8.13720036       1.38417032E-04
   8.14920044       1.36042043E-04
   8.16119957       1.33411784E-04
   8.17319965       1.30592205E-04
   8.18519974       1.27649662E-04
   8.19719982       1.24649770E-04
   8.20919991       1.21656143E-04
   8.22119999       1.18729571E-04
   8.23320007       1.15927127E-04
   8.24520016       1.13301481E-04
   8.25720024       1.10900219E-04
   8.26920033       1.08765242E-04
   8.28120041       1.06932130E-04
   8.29319954       1.05429644E-04
   8.30519962       1.04279163E-04
   8.31719971       1.03494291E-04
   8.32919979       1.03080478E-04
   8.34119987       1.03034865E-04
   8.35319996       1.03346210E-04
   8.36520004       1.03995124E-04
   8.37720013       1.04954466E-04
   8.38920021       1.06190026E-04
   8.40120029       1.07661515E-04
   8.41320038       1.09323781E-04
   8.42520046       1.11128291E-04
   8.43719959       1.13024762E-04
   8.44919968       1.14962932E-04
   8.46119976       1.16894400E-04
   8.47319984       1.18774304E-04
   8.48519993       1.20562952E-04
   8.49720001       1.22227080E-04
   8.50920010       1.23740916E-04
   8.52120018       1.25086779E-04
   8.53320026       1.26255298E-04
   8.54520035       1.27245221E-04
   8.55720043       1.28062820E-04
   8.56919956       1.28720858E-04
   8.58119965       1.29237407E-04
   8.59319973       1.29634282E-04
   8.60519981       1.29935419E-04
   8.61719990       1.30165179E-04
   8.62919998       1.30346802E-04
   8.64120007       1.30500921E-04
   8.65320015       1.30644403E-04
   8.66520023       1.30789471E-04
   8.67720032       1.30943285E-04
   8.68920040       1.31107765E-04
   8.70119953       1.31279798E-04
   8.71319962       1.31451859E-04
   8.72519970       1.31612731E-04
   8.73719978       1.31748558E-04
   8.74919987       1.31843844E-04
   8.76119995       1.31882654E-04
   8.77320004       1.31849622E-04
   8.78520012       1.31730849E-04
   8.79720020       1.31514855E-04
   8.80920029       1.31192966E-04
   8.82120037       1.30759887E-04
   8.83320045       1.30213695E-04
   8.84519958       1.29555905E-04
   8.85719967       1.28791216E-04
   8.86919975       1.27927109E-04
   8.88119984       1.26973464E-04
   8.89319992       1.25942010E-04
   8.90520000       1.24845872E-04
   8.91720009       1.23699079E-04
   8.92920017       1.22516140E-04
   8.94120026       1.21311728E-04
   8.95320034       1.20100391E-04
   8.96520042       1.18896380E-04
   8.97719955       1.17713396E-04
   8.98919964       1.16564515E-04
   9.00119972       1.15462026E-04
   9.01319981       1.14417286E-04
   9.02519989       1.13440619E-04
   9.03719997       1.12541107E-04
   9.04920006       1.11726476E-04
   9.06120014       1.11002919E-04
   9.07320023       1.10374982E-04
   9.08520031       1.09845438E-04
   9.09720039       1.09415232E-04
   9.10919952       1.09083492E-04
   9.12119961       1.08847533E-04
   9.13319969       1.08703098E-04
   9.14519978       1.08644490E-04
   9.15719986       1.08664950E-04
   9.16919994       1.08757020E-04
   9.18120003       1.08912944E-04
   9.19320011       1.09125154E-04
   9.20520020       1.09386710E-04
   9.21720028       1.09691704E-04
   9.22920036       1.10035580E-04
   9.24120045       1.10415407E-04
   9.25319958       1.10829969E-04
   9.26519966       1.11279820E-04
   9.27719975       1.11767076E-04
   9.28919983       1.12295245E-04
   9.30119991       1.12868838E-04
   9.31320000       1.13492948E-04
   9.32520008       1.14172704E-04
   9.33720016       1.14912800E-04
   9.34920025       1.15716939E-04
   9.36120033       1.16587362E-04
   9.37320042       1.17524469E-04
   9.38519955       1.18526528E-04
   9.39719963       1.19589589E-04
   9.40919971       1.20707511E-04
   9.42119980       1.21872137E-04
   9.43319988       1.23073754E-04
   9.44519997       1.24301456E-04
