 -0.622799993       0.00000000    
 -0.610800028       0.00000000    
 -0.598800004       0.00000000    
 -0.586799979       0.00000000    
 -0.574800014       0.00000000    
 -0.562799990       0.00000000    
 -0.550800025       0.00000000    
 -0.538800001       0.00000000    
 -0.526799977       0.00000000    
 -0.514800012       0.00000000    
 -0.502799988       0.00000000    
 -0.490799993       0.00000000    
 -0.478799999       0.00000000    
 -0.466800004      -1.71793180E-38
 -0.454800010      -0.00000000    
 -0.442799985       6.17208747E-37
 -0.430799991       5.20682188E-36
 -0.418799996       2.66295474E-35
 -0.406800002       9.93079668E-35
 -0.394800007       2.85774455E-34
 -0.382800013       6.29228305E-34
 -0.370799989       9.48242273E-34
 -0.358799994       3.63709294E-34
 -0.346799999      -3.33126173E-33
 -0.334800005      -1.36715297E-32
 -0.322800010      -3.30036496E-32
 -0.310799986      -5.49453331E-32
 -0.298799992      -5.14716885E-32
 -0.286799997       3.76999258E-32
 -0.274800003       2.91149097E-31
 -0.262800008       7.31318200E-31
 -0.250800014       1.16240301E-30
 -0.238800004       9.56196476E-31
 -0.226799995      -1.04175262E-30
 -0.214800000      -6.13986805E-30
 -0.202800006      -1.45486012E-29
 -0.190799996      -2.31217580E-29
 -0.178800002      -2.28456338E-29
 -0.166800007       1.72364617E-30
 -0.154799998       6.75067816E-29
 -0.142800003       1.79003837E-28
 -0.130799994       3.05534775E-28
 -0.118799999       3.57713080E-28
 -0.106799997       1.82324742E-28
  -9.48000029E-02  -3.96748815E-28
  -8.28000009E-02  -1.46789845E-27
  -7.07999989E-02  -2.85469156E-27
  -5.88000007E-02  -3.92918790E-27
  -4.67999987E-02  -3.54059687E-27
  -3.48000005E-02  -2.32214092E-28
  -2.28000004E-02   7.10483414E-27
  -1.08000003E-02   1.81395437E-26
   1.20000006E-03   2.98512978E-26
   1.31999999E-02   3.57566798E-26
   2.52000000E-02   2.65119449E-26
   3.72000001E-02  -7.26470097E-27
   4.91999984E-02  -6.96975496E-26
   6.12000003E-02  -1.52821869E-25
   7.32000023E-02  -2.30714155E-25
   8.51999968E-02  -2.58424522E-25
   9.71999988E-02  -1.79819142E-25
  0.109200001       5.31994975E-26
  0.121200003       4.51542552E-25
  0.133200005       9.56952866E-25
  0.145199999       1.41999676E-24
  0.157199994       1.60404630E-24
  0.169200003       1.22927968E-24
  0.181199998       6.18534373E-26
  0.193200007      -1.96190338E-24
  0.205200002      -4.60502326E-24
  0.217199996      -7.23835811E-24
  0.229200006      -8.84115307E-24
  0.241200000      -8.14120074E-24
  0.253199995      -3.92006125E-24
  0.265199989       4.52876250E-24
  0.277200013       1.68507726E-23
  0.289200008       3.11103675E-23
  0.301200002       4.34783023E-23
  0.313199997       4.83537751E-23
  0.325199991       3.91643249E-23
  0.337199986       1.00340322E-23
  0.349200010      -4.16579048E-23
  0.361200005      -1.12130103E-22
  0.373199999      -1.88239630E-22
  0.385199994      -2.46022316E-22
  0.397199988      -2.52426579E-22
  0.409200013      -1.71852717E-22
  0.421200007       2.17806610E-23
  0.433200002       3.28608757E-22
  0.445199996       7.05917621E-22
  0.457199991       1.05751386E-21
  0.469199985       1.23787357E-21
  0.481200010       1.07869007E-21
  0.493200004       4.40627864E-22
  0.505200028      -7.15884733E-22
  0.517199993      -2.25861626E-21
  0.529200017      -3.83869844E-21
  0.541199982      -4.90596176E-21
  0.553200006      -4.81049228E-21
  0.565199971      -2.99506610E-21
  0.577199996       7.51071716E-22
  0.589200020       6.04564782E-21
  0.601199985       1.17725524E-20
  0.613200009       1.61496610E-20
  0.625199974       1.70735685E-20
  0.637199998       1.27325989E-20
  0.649200022       2.37308990E-21
  0.661199987      -1.30017339E-20
  0.673200011      -3.02843456E-20
  0.685199976      -4.45299080E-20
  0.697200000      -4.99715382E-20
  0.709200025      -4.16903520E-20
  0.721199989      -1.75731920E-20
  0.733200014       2.00396233E-20
  0.745199978       6.36999447E-20
  0.757200003       1.01733806E-19
  0.769200027       1.20818349E-19
  0.781199992       1.09851408E-19
  0.793200016       6.41352549E-20
  0.805199981      -1.14855426E-20
  0.817200005      -1.01879739E-19
  0.829200029      -1.84115218E-19
  0.841199994      -2.33064341E-19
  0.853200018      -2.28878368E-19
  0.865199983      -1.64132783E-19
  0.877200007      -4.80954571E-20
  0.889199972       9.38999922E-20
  0.901199996       2.26590231E-19
  0.913200021       3.15103132E-19
  0.925199986       3.36310441E-19
  0.937200010       2.87089162E-19
  0.949199975       1.85842810E-19
  0.961199999       6.56855400E-20
  0.973200023      -3.91500707E-20
  0.985199988      -1.08920739E-19
  0.997200012      -1.49314204E-19
   1.00919998      -1.91538375E-19
   1.02119994      -2.78692891E-19
   1.03320003      -4.41014807E-19
   1.04519999      -6.68437829E-19
   1.05719995      -8.92742328E-19
   1.06920004      -9.91205668E-19
   1.08120000      -8.18070717E-19
   1.09319997      -2.60185733E-19
   1.10520005       6.98252572E-19
   1.11720002       1.92553274E-18
   1.12919998       3.13204081E-18
   1.14119995       3.91674280E-18
   1.15320003       3.87055841E-18
   1.16520000       2.71497138E-18
   1.17719996       4.35235710E-19
   1.18920004      -2.64085289E-18
   1.20120001      -5.85968666E-18
   1.21319997      -8.37017362E-18
   1.22520006      -9.34348809E-18
   1.23720002      -8.22764130E-18
   1.24919999      -4.95745512E-18
   1.26119995      -4.22774208E-20
   1.27320004       5.51579087E-18
   1.28520000       1.04675810E-17
   1.29719996       1.36617729E-17
   1.30920005       1.43800916E-17
   1.32120001       1.25440732E-17
   1.33319998       8.70866668E-18
   1.34519994       3.82982928E-18
   1.35720003      -1.11881461E-18
   1.36919999      -5.53380480E-18
   1.38119996      -9.40415352E-18
   1.39320004      -1.32410788E-17
   1.40520000      -1.76928043E-17
   1.41719997      -2.29580306E-17
   1.42920005      -2.82296560E-17
   1.44120002      -3.14485367E-17
   1.45319998      -2.95903482E-17
   1.46519995      -1.95459768E-17
   1.47720003       5.72003148E-19
   1.48920000       3.00830700E-17
   1.50119996       6.48629575E-17
   1.51320004       9.74088286E-17
   1.52520001       1.18093558E-16
   1.53719997       1.17494164E-16
   1.54920006       8.92803961E-17
   1.56120002       3.28485333E-17
   1.57319999      -4.51926025E-17
   1.58519995      -1.31365003E-16
   1.59720004      -2.07700817E-16
   1.60920000      -2.55745134E-16
   1.62119997      -2.61197935E-16
   1.63320005      -2.17883900E-16
   1.64520001      -1.29806462E-16
   1.65719998      -1.05254490E-17
   1.66919994       1.20108120E-16
   1.68120003       2.40960439E-16
   1.69319999       3.34813066E-16
   1.70519996       3.92014021E-16
   1.71720004       4.11248657E-16
   1.72920001       3.97031765E-16
   1.74119997       3.54725434E-16
   1.75320005       2.84978253E-16
   1.76520002       1.80053013E-16
   1.77719998       2.42757525E-17
   1.78919995      -2.00261737E-16
   1.80120003      -5.03364840E-16
   1.81320000      -8.74310320E-16
   1.82519996      -1.27137803E-15
   1.83720005      -1.61788206E-15
   1.84920001      -1.80838294E-15
   1.86119998      -1.72653966E-15
   1.87320006      -1.27288395E-15
   1.88520002      -3.97440273E-16
   1.89719999       8.70501530E-16
   1.90919995       2.40413552E-15
   1.92120004       3.97987875E-15
   1.93320000       5.30114638E-15
   1.94519997       6.04413107E-15
   1.95720005       5.91894172E-15
   1.96920002       4.73474096E-15
   1.98119998       2.45500980E-15
   1.99319994      -7.70211876E-16
   2.00519991      -4.60424537E-15
   2.01719999      -8.55832688E-15
   2.02920008      -1.20555599E-14
   2.04119992      -1.45123036E-14
   2.05320001      -1.54212445E-14
   2.06520009      -1.44208325E-14
   2.07719994      -1.13405023E-14
   2.08920002      -6.21885661E-15
   2.10120010       6.99626609E-16
   2.11319995       8.97790804E-15
   2.12520003       1.79972766E-14
   2.13720012       2.69586819E-14
   2.14919996       3.48779064E-14
   2.16120005       4.05906591E-14
   2.17319989       4.27938426E-14
   2.18519998       4.01516656E-14
   2.19720006       3.14863763E-14
   2.20919991       1.60526025E-14
   2.22119999      -6.13557506E-15
   2.23320007      -3.39869463E-14
   2.24519992      -6.51107044E-14
   2.25720000      -9.57814828E-14
   2.26920009      -1.21167074E-13
   2.28119993      -1.35852172E-13
   2.29320002      -1.34631116E-13
   2.30520010      -1.13474842E-13
   2.31719995      -7.05191046E-14
   2.32920003      -6.88665696E-15
   2.34120011       7.28415809E-14
   2.35319996       1.60650695E-13
   2.36520004       2.45680212E-13
   2.37719989       3.15351830E-13
   2.38919997       3.56916889E-13
   2.40120006       3.59228679E-13
   2.41319990       3.14502466E-13
   2.42519999       2.19824078E-13
   2.43720007       7.82017748E-14
   2.44919991      -1.00985226E-13
   2.46120000      -3.02219431E-13
   2.47320008      -5.04771897E-13
   2.48519993      -6.84282871E-13
   2.49720001      -8.14916331E-13
   2.50920010      -8.71973284E-13
   2.52119994      -8.34811224E-13
   2.53320003      -6.89867326E-13
   2.54520011      -4.33520705E-13
   2.55719995      -7.44606809E-14
   2.56920004       3.64822755E-13
   2.58119988       8.47827288E-13
   2.59319997       1.32545786E-12
   2.60520005       1.73931019E-12
   2.61719990       2.02684614E-12
   2.62919998       2.12822576E-12
   2.64120007       1.99426868E-12
   2.65319991       1.59473270E-12
   2.66520000       9.25886212E-13
   2.67720008       1.62315399E-14
   2.68919992      -1.07072250E-12
   2.70120001      -2.23756799E-12
   2.71320009      -3.35856343E-12
   2.72519994      -4.28978077E-12
   2.73720002      -4.88338493E-12
   2.74920011      -5.00502591E-12
   2.76119995      -4.55274100E-12
   2.77320004      -3.47531140E-12
   2.78520012      -1.78773110E-12
   2.79719996       4.18634989E-13
   2.80920005       2.97339128E-12
   2.82119989       5.63361467E-12
   2.83319998       8.10035806E-12
   2.84520006       1.00449007E-11
   2.85719991       1.11432417E-11
   2.86919999       1.11160317E-11
   2.88120008       9.76999558E-12
   2.89319992       7.03597337E-12
   2.90520000       2.99836783E-12
   2.91720009      -2.08908325E-12
   2.92919993      -7.80538308E-12
   2.94120002      -1.35848555E-11
   2.95320010      -1.87607603E-11
   2.96519995      -2.26279759E-11
   2.97720003      -2.45201272E-11
   2.98920012      -2.38941349E-11
   3.00119996      -2.04131989E-11
   3.01320004      -1.40181651E-11
   3.02519989      -4.97721525E-12
   3.03719997       6.09507280E-12
   3.04920006       1.82558049E-11
   3.06119990       3.02922028E-11
   3.07319999       4.08193791E-11
   3.08520007       4.84119134E-11
   3.09719992       5.17592982E-11
   3.10920000       4.98312884E-11
   3.12120008       4.20363501E-11
   3.13319993       2.83549104E-11
   3.14520001       9.42919093E-12
   3.15720010      -1.34064331E-11
   3.16919994      -3.81666677E-11
   3.18120003      -6.23344432E-11
   3.19320011      -8.30570890E-11
   3.20519996      -9.74102188E-11
   3.21720004      -1.02711645E-10
   3.22919989      -9.68592775E-11
   3.24119997      -7.86604670E-11
   3.25320005      -4.81159661E-11
   3.26519990      -6.62030803E-12
   3.27719998       4.29564856E-11
   3.28920007       9.63343016E-11
   3.30119991       1.48052778E-10
   3.31320000       1.91868660E-10
   3.32520008       2.21306515E-10
   3.33719993       2.30331393E-10
   3.34920001       2.14094131E-10
   3.36120009       1.69685474E-10
   3.37319994       9.68243541E-11
   3.38520002      -1.59978660E-12
   3.39720011      -1.19209573E-10
   3.40919995      -2.46117710E-10
   3.42120004      -3.69255737E-10
   3.43319988      -4.73086181E-10
   3.44519997      -5.40702760E-10
   3.45720005      -5.55290702E-10
   3.46919990      -5.01883257E-10
   3.48119998      -3.69314274E-10
   3.49320006      -1.52233268E-10
   3.50519991       1.46979970E-10
   3.51719999       5.16586440E-10
   3.52920008       9.34335720E-10
   3.54119992       1.36697575E-09
   3.55320001       1.77058368E-09
   3.56520009       2.09182427E-09
   3.57719994       2.27017005E-09
   3.58920002       2.24101560E-09
   3.60120010       1.93949101E-09
   3.61319995       1.30463973E-09
   3.62520003       2.83457230E-10
   3.63720012      -1.16586552E-09
   3.64919996      -3.07231529E-09
   3.66120005      -5.45297496E-09
   3.67319989      -8.31753866E-09
   3.68519998      -1.16774643E-08
   3.69720006      -1.55607704E-08
   3.70919991      -2.00333421E-08
   3.72119999      -2.52273562E-08
   3.73320007      -3.13770521E-08
   3.74519992      -3.88615966E-08
   3.75720000      -4.82542752E-08
   3.76920009      -6.03763723E-08
   3.78119993      -7.63536363E-08
   3.79320002      -9.76722063E-08
   3.80520010      -1.26230262E-07
   3.81719995      -1.64381007E-07
   3.82920003      -2.14961858E-07
   3.84120011      -2.81304807E-07
   3.85319996      -3.67222412E-07
   3.86520004      -4.76964544E-07
   3.87719989      -6.15141346E-07
   3.88919997      -7.86608894E-07
   3.90120006      -9.96316544E-07
   3.91319990      -1.24911458E-06
   3.92519999      -1.54952534E-06
   3.93720007      -1.90148228E-06
   3.94919991      -2.30804358E-06
   3.96120000      -2.77109075E-06
   3.97320008      -3.29102409E-06
   3.98519993      -3.86646843E-06
   3.99720001      -4.49400522E-06
   4.00920010      -5.16795035E-06
   4.02120018      -5.88018975E-06
   4.03319979      -6.62009188E-06
   4.04519987      -7.37450910E-06
   4.05719995      -8.12788494E-06
   4.06920004      -8.86246744E-06
   4.08120012      -9.55863652E-06
   4.09320021      -1.01953401E-05
   4.10519981      -1.07506403E-05
   4.11719990      -1.12023454E-05
   4.12919998      -1.15287121E-05
   4.14120007      -1.17092004E-05
   4.15320015      -1.17252466E-05
   4.16520023      -1.15610237E-05
   4.17719984      -1.12041589E-05
   4.18919992      -1.06463722E-05
   4.20120001      -9.88400552E-06
   4.21320009      -8.91841501E-06
   4.22520018      -7.75619174E-06
   4.23719978      -6.40921417E-06
   4.24919987      -4.89449531E-06
   4.26119995      -3.23384756E-06
   4.27320004      -1.45334764E-06
   4.28520012       4.17358564E-07
   4.29720020       2.34590948E-06
   4.30919981       4.29819147E-06
   4.32119989       6.23938740E-06
   4.33319998       8.13505721E-06
   4.34520006       9.95221762E-06
   4.35720015       1.16603633E-05
   4.36920023       1.32324012E-05
   4.38119984       1.46454431E-05
   4.39319992       1.58814364E-05
   4.40520000       1.69276045E-05
   4.41720009       1.77766688E-05
   4.42920017       1.84268756E-05
   4.44119978       1.88817885E-05
   4.45319986       1.91499112E-05
   4.46519995       1.92441039E-05
   4.47720003       1.91808849E-05
   4.48920012       1.89796101E-05
   4.50120020       1.86615780E-05
   4.51319981       1.82491349E-05
   4.52519989       1.77647707E-05
   4.53719997       1.72302898E-05
   4.54920006       1.66660575E-05
   4.56120014       1.60903946E-05
   4.57320023       1.55190846E-05
   4.58519983       1.49650605E-05
   4.59719992       1.44382338E-05
   4.60920000       1.39455051E-05
   4.62120008       1.34908905E-05
   4.63320017       1.30757990E-05
   4.64519978       1.26993964E-05
   4.65719986       1.23590544E-05
   4.66919994       1.20508394E-05
   4.68120003       1.17700056E-05
   4.69320011       1.15114944E-05
   4.70520020       1.12703628E-05
   4.71719980       1.10421697E-05
   4.72919989       1.08232753E-05
   4.74119997       1.06110419E-05
   4.75320005       1.04039436E-05
   4.76520014       1.02015820E-05
   4.77720022       1.00046072E-05
   4.78919983       9.81456742E-06
   4.80119991       9.63369257E-06
   4.81320000       9.46464206E-06
   4.82520008       9.31022078E-06
   4.83720016       9.17310081E-06
   4.84919977       9.05555135E-06
   4.86119986       8.95920766E-06
   4.87319994       8.88488466E-06
   4.88520002       8.83244866E-06
   4.89720011       8.80075095E-06
   4.90920019       8.78763149E-06
   4.92119980       8.78998162E-06
   4.93319988       8.80386779E-06
   4.94519997       8.82470431E-06
   4.95720005       8.84745896E-06
   4.96920013       8.86689304E-06
   4.98120022       8.87779879E-06
   4.99319983       8.87524402E-06
   5.00519991       8.85478767E-06
   5.01719999       8.81268534E-06
   5.02920008       8.74603938E-06
   5.04120016       8.65291258E-06
   5.05319977       8.53239544E-06
   5.06519985       8.38461892E-06
   5.07719994       8.21072626E-06
   5.08920002       8.01279748E-06
   5.10120010       7.79373840E-06
   5.11320019       7.55714200E-06
   5.12519979       7.30713100E-06
   5.13719988       7.04818876E-06
   5.14919996       6.78499464E-06
   5.16120005       6.52226436E-06
   5.17320013       6.26460906E-06
   5.18520021       6.01642068E-06
   5.19719982       5.78178287E-06
   5.20919991       5.56441137E-06
   5.22119999       5.36762400E-06
   5.23320007       5.19434025E-06
   5.24520016       5.04710033E-06
   5.25719976       4.92810886E-06
   5.26919985       4.83928306E-06
   5.28119993       4.78231095E-06
   5.29320002       4.75870320E-06
   5.30520010       4.76983905E-06
   5.31720018       4.81699226E-06
   5.32919979       4.90133971E-06
   5.34119987       5.02394369E-06
   5.35319996       5.18571096E-06
   5.36520004       5.38732229E-06
   5.37720013       5.62914147E-06
   5.38920021       5.91110938E-06
   5.40119982       6.23262213E-06
   5.41319990       6.59240231E-06
   5.42519999       6.98838630E-06
   5.43720007       7.41761141E-06
   5.44920015       7.87613772E-06
   5.46120024       8.35899664E-06
   5.47319984       8.86018370E-06
   5.48519993       9.37269306E-06
   5.49720001       9.88860575E-06
   5.50920010       1.03992334E-05
   5.52120018       1.08953009E-05
   5.53319979       1.13671913E-05
   5.54519987       1.18052112E-05
   5.55719995       1.21998983E-05
   5.56920004       1.25423403E-05
   5.58120012       1.28244892E-05
   5.59320021       1.30394656E-05
   5.60519981       1.31818360E-05
   5.61719990       1.32478408E-05
   5.62919998       1.32355663E-05
   5.64120007       1.31450515E-05
   5.65320015       1.29783220E-05
   5.66520023       1.27393369E-05
   5.67719984       1.24338694E-05
   5.68919992       1.20693094E-05
   5.70120001       1.16544024E-05
   5.71320009       1.11989420E-05
   5.72520018       1.07134165E-05
   5.73719978       1.02086497E-05
   5.74919987       9.69542634E-06
   5.76119995       9.18414025E-06
   5.77320004       8.68447569E-06
   5.78520012       8.20512560E-06
   5.79720020       7.75357967E-06
   5.80919981       7.33595880E-06
   5.82119989       6.95692552E-06
   5.83319998       6.61966033E-06
   5.84520006       6.32588990E-06
   5.85720015       6.07597894E-06
   5.86920023       5.86905026E-06
   5.88119984       5.70314614E-06
   5.89319992       5.57539988E-06
   5.90520000       5.48221487E-06
   5.91720009       5.41943473E-06
   5.92920017       5.38250333E-06
   5.94119978       5.36659991E-06
   5.95319986       5.36675452E-06
   5.96519995       5.37793358E-06
   5.97720003       5.39511166E-06
   5.98920012       5.41331838E-06
   6.00120020       5.42767657E-06
   6.01319981       5.43343185E-06
   6.02519989       5.42598355E-06
   6.03719997       5.40092151E-06
   6.04920006       5.35407025E-06
   6.06120014       5.28154442E-06
   6.07320023       5.17981880E-06
   6.08519983       5.04580066E-06
   6.09719992       4.87691977E-06
   6.10920000       4.67120753E-06
   6.12120008       4.42737974E-06
   6.13320017       4.14490296E-06
   6.14519978       3.82404687E-06
   6.15719986       3.46591810E-06
   6.16919994       3.07246364E-06
   6.18120003       2.64645723E-06
   6.19320011       2.19145591E-06
   6.20520020       1.71173804E-06
   6.21719980       1.21222467E-06
   6.22919989       6.98385293E-07
   6.24119997       1.76138442E-07
   6.25320005      -3.48250921E-07
   6.26520014      -8.68272934E-07
   6.27720022      -1.37727159E-06
   6.28919983      -1.86853833E-06
   6.30119991      -2.33540186E-06
   6.31320000      -2.77131767E-06
   6.32520008      -3.16996034E-06
   6.33720016      -3.52532220E-06
   6.34919977      -3.83182305E-06
   6.36119986      -4.08443293E-06
   6.37319994      -4.27881150E-06
   6.38520002      -4.41145357E-06
   6.39720011      -4.47984758E-06
   6.40920019      -4.48263199E-06
   6.42119980      -4.41973998E-06
   6.43319988      -4.29252350E-06
   6.44519997      -4.10384200E-06
   6.45720005      -3.85810745E-06
   6.46920013      -3.56126816E-06
   6.48120022      -3.22073242E-06
   6.49319983      -2.84522116E-06
   6.50519991      -2.44455509E-06
   6.51719999      -2.02937554E-06
   6.52920008      -1.61081425E-06
   6.54120016      -1.20012112E-06
   6.55319977      -8.08269647E-07
   6.56519985      -4.45559039E-07
   6.57719994      -1.21232844E-07
   6.58920002       1.56866832E-07
   6.60120010       3.82588297E-07
   6.61320019       5.51691528E-07
   6.62519979       6.61989191E-07
   6.63719988       7.13401448E-07
   6.64919996       7.07925153E-07
   6.66120005       6.49521951E-07
   6.67320013       5.43934902E-07
   6.68520021       3.98445309E-07
   6.69719982       2.21588152E-07
   6.70919991       2.28430341E-08
   6.72119999      -1.87678651E-07
   6.73320007      -3.99533207E-07
   6.74520016      -6.02210662E-07
   6.75719976      -7.85352256E-07
   6.76919985      -9.38905373E-07
   6.78119993      -1.05320828E-06
   6.79320002      -1.11899794E-06
   6.80520010      -1.12734222E-06
   6.81720018      -1.06949983E-06
   6.82919979      -9.36718095E-07
   6.84119987      -7.19982324E-07
   6.85319996      -4.09738021E-07
   6.86520004       4.39611192E-09
   6.87720013       5.33895900E-07
   6.88920021       1.19155629E-06
   6.90119982       1.99164606E-06
   6.91319990       2.94996835E-06
   6.92519999       4.08380220E-06
   6.93720007       5.41171539E-06
   6.94920015       6.95323024E-06
   6.96120024       8.72834698E-06
   6.97319984       1.07569267E-05
   6.98519993       1.30579556E-05
   6.99720001       1.56487095E-05
   7.00920010       1.85438603E-05
   7.02120018       2.17545512E-05
   7.03319979       2.52875161E-05
   7.04519987       2.91442357E-05
   7.05719995       3.33202443E-05
   7.06920004       3.78045552E-05
   7.08120012       4.25793114E-05
   7.09320021       4.76196510E-05
   7.10519981       5.28937526E-05
   7.11719990       5.83631991E-05
   7.12919998       6.39834980E-05
   7.14120007       6.97048599E-05
   7.15320015       7.54731154E-05
   7.16520023       8.12307917E-05
   7.17719984       8.69183059E-05
   7.18919992       9.24751585E-05
   7.20120001       9.78411772E-05
   7.21320009       1.02957703E-04
   7.22520018       1.07768690E-04
   7.23719978       1.12221744E-04
   7.24919987       1.16268966E-04
   7.26119995       1.19867691E-04
   7.27320004       1.22981102E-04
   7.28520012       1.25578634E-04
   7.29720020       1.27636245E-04
   7.30919981       1.29136679E-04
   7.32119989       1.30069398E-04
   7.33319998       1.30430650E-04
   7.34520006       1.30223198E-04
   7.35720015       1.29456239E-04
   7.36920023       1.28145068E-04
   7.38119984       1.26310741E-04
   7.39319992       1.23979771E-04
   7.40520000       1.21183613E-04
   7.41720009       1.17958254E-04
   7.42920017       1.14343704E-04
   7.44119978       1.10383357E-04
   7.45319986       1.06123451E-04
   7.46519995       1.01612386E-04
   7.47720003       9.69000030E-05
   7.48920012       9.20368984E-05
   7.50120020       8.70736621E-05
   7.51319981       8.20601344E-05
   7.52519989       7.70446641E-05
   7.53719997       7.20734097E-05
   7.54920006       6.71896560E-05
   7.56120014       6.24332752E-05
   7.57320023       5.78401123E-05
   7.58519983       5.34416686E-05
   7.59719992       4.92647305E-05
   7.60920000       4.53312168E-05
   7.62120008       4.16580915E-05
   7.63320017       3.82574326E-05
   7.64519978       3.51365888E-05
   7.65719986       3.22984743E-05
   7.66919994       2.97419356E-05
   7.68120003       2.74622053E-05
   7.69320011       2.54514180E-05
   7.70520020       2.36991527E-05
   7.71719980       2.21929986E-05
   7.72919989       2.09191112E-05
   7.74119997       1.98627204E-05
   7.75320005       1.90086030E-05
   7.76520014       1.83414704E-05
   7.77720022       1.78462851E-05
   7.78919983       1.75084551E-05
   7.80119991       1.73139724E-05
   7.81320000       1.72494183E-05
   7.82520008       1.73019271E-05
   7.83720016       1.74590568E-05
   7.84919977       1.77086240E-05
   7.86119986       1.80385105E-05
   7.87319994       1.84364799E-05
   7.88520002       1.88900158E-05
   7.89720011       1.93861724E-05
   7.90920019       1.99115257E-05
   7.92119980       2.04521657E-05
   7.93319988       2.09937625E-05
   7.94519997       2.15217060E-05
   7.95720005       2.20212951E-05
   7.96920013       2.24779833E-05
   7.98120022       2.28776244E-05
   7.99319983       2.32067378E-05
   8.00520039       2.34527452E-05
   8.01720047       2.36041578E-05
   8.02919960       2.36507240E-05
   8.04119968       2.35835178E-05
   8.05319977       2.33949559E-05
   8.06519985       2.30787919E-05
   8.07719994       2.26300490E-05
   8.08920002       2.20449692E-05
   8.10120010       2.13209623E-05
   8.11320019       2.04565749E-05
   8.12520027       1.94515305E-05
   8.13720036       1.83068096E-05
   8.14920044       1.70248004E-05
   8.16119957       1.56094957E-05
   8.17319965       1.40667298E-05
   8.18519974       1.24044309E-05
   8.19719982       1.06328444E-05
   8.20919991       8.76471586E-06
   8.22119999       6.81538268E-06
   8.23320007       4.80274866E-06
   8.24520016       2.74713216E-06
   8.25720024       6.70953227E-07
   8.26920033      -1.40172119E-06
   8.28120041      -3.44577893E-06
   8.29319954      -5.43577562E-06
   8.30519962      -7.34673449E-06
   8.31719971      -9.15497913E-06
   8.32919979      -1.08389677E-05
   8.34119987      -1.23800610E-05
   8.35319996      -1.37631896E-05
   8.36520004      -1.49773768E-05
   8.37720013      -1.60160926E-05
   8.38920021      -1.68774022E-05
   8.40120029      -1.75639179E-05
   8.41320038      -1.80825682E-05
   8.42520046      -1.84441724E-05
   8.43719959      -1.86628840E-05
   8.44919968      -1.87555270E-05
   8.46119976      -1.87408350E-05
   8.47319984      -1.86386933E-05
   8.48519993      -1.84693690E-05
   8.49720001      -1.82527820E-05
   8.50920010      -1.80078732E-05
   8.52120018      -1.77520396E-05
   8.53320026      -1.75007008E-05
   8.54520035      -1.72669843E-05
   8.55720043      -1.70615222E-05
   8.56919956      -1.68923689E-05
   8.58119965      -1.67650342E-05
   8.59319973      -1.66825866E-05
   8.60519981      -1.66458540E-05
   8.61719990      -1.66536720E-05
   8.62919998      -1.67031922E-05
   8.64120007      -1.67901944E-05
   8.65320015      -1.69094437E-05
   8.66520023      -1.70550356E-05
   8.67720032      -1.72207310E-05
   8.68920040      -1.74002962E-05
   8.70119953      -1.75877867E-05
   8.71319962      -1.77778056E-05
   8.72519970      -1.79657400E-05
   8.73719978      -1.81479172E-05
   8.74919987      -1.83217126E-05
   8.76119995      -1.84856126E-05
   8.77320004      -1.86391881E-05
   8.78520012      -1.87830410E-05
   8.79720020      -1.89186503E-05
   8.80920029      -1.90482060E-05
   8.82120037      -1.91743748E-05
   8.83320045      -1.93000396E-05
   8.84519958      -1.94280037E-05
   8.85719967      -1.95607081E-05
   8.86919975      -1.96999245E-05
   8.88119984      -1.98464750E-05
   8.89319992      -1.99999849E-05
   8.90520000      -2.01586772E-05
   8.91720009      -2.03192085E-05
   8.92920017      -2.04765729E-05
   8.94120026      -2.06240984E-05
   8.95320034      -2.07534977E-05
   8.96520042      -2.08550100E-05
   8.97719955      -2.09176433E-05
   8.98919964      -2.09294849E-05
   9.00119972      -2.08781166E-05
   9.01319981      -2.07510766E-05
   9.02519989      -2.05364049E-05
   9.03719997      -2.02232186E-05
   9.04920006      -1.98023226E-05
   9.06120014      -1.92667958E-05
   9.07320023      -1.86125581E-05
   9.08520031      -1.78388655E-05
   9.09720039      -1.69487230E-05
   9.10919952      -1.59491501E-05
   9.12119961      -1.48513082E-05
   9.13319969      -1.36704512E-05
   9.14519978      -1.24256894E-05
   9.15719986      -1.11395620E-05
   9.16919994      -9.83741120E-06
   9.18120003      -8.54659811E-06
   9.19320011      -7.29555131E-06
   9.20520020      -6.11272026E-06
   9.21720028      -5.02544299E-06
   9.22920036      -4.05880246E-06
   9.24120045      -3.23450990E-06
   9.25319958      -2.56988505E-06
   9.26519966      -2.07697394E-06
   9.27719975      -1.76186700E-06
   9.28919983      -1.62424521E-06
   9.30119991      -1.65719575E-06
   9.31320000      -1.84730550E-06
   9.32520008      -2.17503953E-06
   9.33720016      -2.61539026E-06
   9.34920025      -3.13876990E-06
   9.36120033      -3.71210376E-06
   9.37320042      -4.30008276E-06
   9.38519955      -4.86650788E-06
   9.39719963      -5.37567166E-06
   9.40919971      -5.79371272E-06
   9.42119980      -6.08988694E-06
   9.43319988      -6.23769711E-06
   9.44519997      -6.21584240E-06
