 -0.622799993       0.00000000    
 -0.610800028       0.00000000    
 -0.598800004       0.00000000    
 -0.586799979       0.00000000    
 -0.574800014       0.00000000    
 -0.562799990       0.00000000    
 -0.550800025       0.00000000    
 -0.538800001       0.00000000    
 -0.526799977       0.00000000    
 -0.514800012       0.00000000    
 -0.502799988       0.00000000    
 -0.490799993       0.00000000    
 -0.478799999      -0.00000000    
 -0.466800004      -7.30753383E-38
 -0.454800010      -2.86921578E-37
 -0.442799985      -1.45191722E-36
 -0.430799991      -3.92536874E-36
 -0.418799996      -4.83005133E-36
 -0.406800002       8.12854415E-36
 -0.394800007       5.64355182E-35
 -0.382800013       1.21953567E-34
 -0.370799989      -4.06557406E-35
 -0.358799994      -1.30793399E-33
 -0.346799999      -5.61346160E-33
 -0.334800005      -1.54167304E-32
 -0.322800010      -2.99793730E-32
 -0.310799986      -3.55763982E-32
 -0.298799992       1.03966995E-32
 -0.286799997       1.91152955E-31
 -0.274800003       6.08669517E-31
 -0.262800008       1.27992941E-30
 -0.250800014       1.91181837E-30
 -0.238800004       1.59626302E-30
 -0.226799995      -1.34611040E-30
 -0.214800000      -8.89102249E-30
 -0.202800006      -2.15827142E-29
 -0.190799996      -3.52596064E-29
 -0.178800002      -3.71221462E-29
 -0.166800007      -4.13607336E-30
 -0.154799998       9.09774278E-29
 -0.142800003       2.60473431E-28
 -0.130799994       4.67587094E-28
 -0.118799999       5.87527559E-28
 -0.106799997       3.90197331E-28
  -9.48000029E-02  -4.13034840E-28
  -8.28000009E-02  -2.01631769E-27
  -7.07999989E-02  -4.25114754E-27
  -5.88000007E-02  -6.27083907E-27
  -4.67999987E-02  -6.36400208E-27
  -3.48000005E-02  -2.16807808E-27
  -2.28000004E-02   8.44448328E-27
  -1.08000003E-02   2.57148487E-26
   1.20000006E-03   4.58968026E-26
   1.31999999E-02   5.95979237E-26
   2.52000000E-02   5.19837027E-26
   3.72000001E-02   6.38859736E-27
   4.91999984E-02  -8.78027579E-26
   6.12000003E-02  -2.23855527E-25
   7.32000023E-02  -3.66382700E-25
   8.51999968E-02  -4.46091277E-25
   9.71999988E-02  -3.67973759E-25
  0.109200001      -3.88308461E-26
  0.121200003       5.85481816E-25
  0.133200005       1.44198498E-24
  0.145199999       2.31158235E-24
  0.157199994       2.80762538E-24
  0.169200003       2.43145371E-24
  0.181199998       7.13041166E-25
  0.193200007      -2.57031058E-24
  0.205200002      -7.14011416E-24
  0.217199996      -1.20082284E-23
  0.229200006      -1.54206388E-23
  0.241200000      -1.50609513E-23
  0.253199995      -8.58458159E-24
  0.265199989       5.52289093E-24
  0.277200013       2.68827704E-23
  0.289200008       5.22066696E-23
  0.301200002       7.47001295E-23
  0.313199997       8.43356805E-23
  0.325199991       6.94255341E-23
  0.337199986       1.97547999E-23
  0.349200010      -6.88314903E-23
  0.361200005      -1.89081073E-22
  0.373199999      -3.17671838E-22
  0.385199994      -4.13424406E-22
  0.397199988      -4.21003706E-22
  0.409200013      -2.82387440E-22
  0.421200007       4.31527489E-23
  0.433200002       5.52754357E-22
  0.445199996       1.17362894E-21
  0.457199991       1.74716479E-21
  0.469199985       2.03648030E-21
  0.481200010       1.76908185E-21
  0.493200004       7.19096874E-22
  0.505200028      -1.17997789E-21
  0.517199993      -3.71894830E-21
  0.529200017      -6.33705693E-21
  0.541199982      -8.13920116E-21
  0.553200006      -8.05045776E-21
  0.565199971      -5.12106911E-21
  0.577199996       1.05788050E-21
  0.589200020       9.93194873E-21
  0.601199985       1.97124879E-20
  0.613200009       2.74342108E-20
  0.625199974       2.94749235E-20
  0.637199998       2.25556433E-20
  0.649200022       5.06400011E-21
  0.661199987      -2.16479790E-20
  0.673200011      -5.24813173E-20
  0.685199976      -7.88246320E-20
  0.697200000      -9.01343494E-20
  0.709200025      -7.68220083E-20
  0.721199989      -3.39140788E-20
  0.733200014       3.55351977E-20
  0.745199978       1.18583333E-19
  0.757200003       1.93302558E-19
  0.769200027       2.33083806E-19
  0.781199992       2.13975107E-19
  0.793200016       1.23480811E-19
  0.805199981      -3.17761077E-20
  0.817200005      -2.22535082E-19
  0.829200029      -3.99971062E-19
  0.841199994      -5.06201137E-19
  0.853200018      -4.90683539E-19
  0.865199983      -3.28465666E-19
  0.877200007      -3.44965852E-20
  0.889199972       3.31900896E-19
  0.901199996       6.76333630E-19
  0.913200021       8.92451057E-19
  0.925199986       8.94016703E-19
  0.937200010       6.46774382E-19
  0.949199975       1.88936014E-19
  0.961199999      -3.69271106E-19
  0.973200023      -8.71058822E-19
  0.985199988      -1.15935267E-18
  0.997200012      -1.13115811E-18
   1.00919998      -7.81610457E-19
   1.02119994      -2.19291216E-19
   1.03320003       3.58625757E-19
   1.04519999       7.29934416E-19
   1.05719995       7.32954815E-19
   1.06920004       3.45128108E-19
   1.08120000      -2.78162539E-19
   1.09319997      -8.29376829E-19
   1.10520005      -9.44529831E-19
   1.11720002      -3.47942125E-19
   1.12919998       9.99227666E-19
   1.14119995       2.80473474E-18
   1.15320003       4.45694840E-18
   1.16520000       5.16654694E-18
   1.17719996       4.21893545E-18
   1.18920004       1.27176972E-18
   1.20120001      -3.40094337E-18
   1.21319997      -8.82084395E-18
   1.22520006      -1.34438944E-17
   1.23720002      -1.55315667E-17
   1.24919999      -1.36797897E-17
   1.26119995      -7.35993463E-18
   1.27320004       2.70815789E-18
   1.28520000       1.45097637E-17
   1.29719996       2.50939896E-17
   1.30920005       3.12951708E-17
   1.32120001       3.06466215E-17
   1.33319998       2.22250973E-17
   1.34519994       7.14604557E-18
   1.35720003      -1.14978568E-17
   1.36919999      -2.93102814E-17
   1.38119996      -4.17406322E-17
   1.39320004      -4.54004531E-17
   1.40520000      -3.91455714E-17
   1.41719997      -2.45513939E-17
   1.42920005      -5.56468055E-18
   1.44120002       1.26379897E-17
   1.45319998       2.52878709E-17
   1.46519995       2.96601292E-17
   1.47720003       2.61507460E-17
   1.48920000       1.83542114E-17
   1.50119996       1.19801304E-17
   1.51320004       1.28144885E-17
   1.52520001       2.42810117E-17
   1.53719997       4.53769314E-17
   1.54920006       6.97598204E-17
   1.56120002       8.65221722E-17
   1.57319999       8.27513536E-17
   1.58519995       4.74397577E-17
   1.59720004      -2.41707436E-17
   1.60920000      -1.27013583E-16
   1.62119997      -2.44589287E-16
   1.63320005      -3.50189599E-16
   1.64520001      -4.11214273E-16
   1.65719998      -3.96086900E-16
   1.66919994      -2.82544092E-16
   1.68120003      -6.55387574E-17
   1.69319999       2.37191116E-16
   1.70519996       5.83610836E-16
   1.71720004       9.11011781E-16
   1.72920001       1.14489071E-15
   1.74119997       1.21210658E-15
   1.75320005       1.05629095E-15
   1.76520002       6.52733224E-16
   1.77719998       1.96747820E-17
   1.78919995      -7.76773417E-16
   1.80120003      -1.62600267E-15
   1.81320000      -2.38514356E-15
   1.82519996      -2.89913141E-15
   1.83720005      -3.02599344E-15
   1.84920001      -2.66351882E-15
   1.86119998      -1.77282545E-15
   1.87320006      -3.94506892E-16
   1.88520002       1.34603700E-15
   1.89719999       3.24587981E-15
   1.90919995       5.04430524E-15
   1.92120004       6.45288630E-15
   1.93320000       7.19221266E-15
   1.94519997       7.03064197E-15
   1.95720005       5.82029881E-15
   1.96920002       3.52616809E-15
   1.98119998       2.45206933E-16
   1.99319994      -3.78628598E-15
   2.00519991      -8.19772717E-15
   2.01719999      -1.25017769E-14
   2.02920008      -1.61242920E-14
   2.04119992      -1.84470461E-14
   2.05320001      -1.88638439E-14
   2.06520009      -1.68505143E-14
   2.07719994      -1.20478383E-14
   2.08920002      -4.35356512E-15
   2.10120010       5.98500140E-15
   2.11319995       1.82919577E-14
   2.12520003       3.14168484E-14
   2.13720012       4.37448980E-14
   2.14919996       5.32858263E-14
   2.16120005       5.78572292E-14
   2.17319989       5.53652888E-14
   2.18519998       4.41663443E-14
   2.19720006       2.34700903E-14
   2.20919991      -6.27697069E-15
   2.22119999      -4.31048358E-14
   2.23320007      -8.34111358E-14
   2.24519992      -1.22099162E-13
   2.25720000      -1.53002665E-13
   2.26920009      -1.69593276E-13
   2.28119993      -1.65913941E-13
   2.29320002      -1.37629667E-13
   2.30520010      -8.30467016E-14
   2.31719995      -3.93118748E-15
   2.32920003       9.40353345E-14
   2.34120011       2.01291444E-13
   2.35319996       3.04993091E-13
   2.36520004       3.90170996E-13
   2.37719989       4.41370329E-13
   2.38919997       4.44625836E-13
   2.40120006       3.89570537E-13
   2.41319990       2.71441750E-13
   2.42519999       9.27330315E-14
   2.43720007      -1.35753862E-13
   2.44919991      -3.94677265E-13
   2.46120000      -6.56919994E-13
   2.47320008      -8.89454634E-13
   2.48519993      -1.05631617E-12
   2.49720001      -1.12256125E-12
   2.50920010      -1.05893853E-12
   2.52119994      -8.46834809E-13
   2.53320003      -4.82906467E-13
   2.54520011       1.72921048E-14
   2.55719995       6.17403047E-13
   2.56920004       1.26071961E-12
   2.58119988       1.87344476E-12
   2.59319997       2.37088452E-12
   2.60520005       2.66632810E-12
   2.61719990       2.68193454E-12
   2.62919998       2.36055750E-12
   2.64120007       1.67712318E-12
   2.65319991       6.48002106E-13
   2.66520000      -6.63188796E-13
   2.67720008      -2.14472732E-12
   2.68919992      -3.64187239E-12
   2.70120001      -4.96834171E-12
   2.71320009      -5.92393799E-12
   2.72519994      -6.31728871E-12
   2.73720002      -5.99183203E-12
   2.74920011      -4.85241188E-12
   2.76119995      -2.88919648E-12
   2.77320004      -1.95293122E-13
   2.78520012       3.02552709E-12
   2.79719996       6.46403070E-12
   2.80920005       9.72555370E-12
   2.82119989       1.23651263E-11
   2.83319998       1.39358759E-11
   2.84520006       1.40466692E-11
   2.85719991       1.24228614E-11
   2.86919999       8.96247833E-12
   2.88120008       3.77943336E-12
   2.89319992      -2.77418756E-12
   2.90520000      -1.01131395E-11
   2.91720009      -1.74548865E-11
   2.92919993      -2.38863651E-11
   2.94120002      -2.84575419E-11
   2.95320010      -3.02938091E-11
   2.96519995      -2.87158353E-11
   2.97720003      -2.33532568E-11
   2.98920012      -1.42377264E-11
   3.00119996      -1.86145565E-12
   3.01320004       1.28102789E-11
   3.02519989       2.83805236E-11
   3.03719997       4.31188592E-11
   3.04920006       5.51135491E-11
   3.06119990       6.24684263E-11
   3.07319999       6.35290223E-11
   3.08520007       5.71167801E-11
   3.09719992       4.27456126E-11
   3.10920000       2.07926037E-11
   3.12120008      -7.40488920E-12
   3.13319993      -3.95501479E-11
   3.14520001      -7.25027330E-11
   3.15720010      -1.02514774E-10
   3.16919994      -1.25579727E-10
   3.18120003      -1.37869730E-10
   3.19320011      -1.36222075E-10
   3.20519996      -1.18622390E-10
   3.21720004      -8.46232875E-11
   3.22919989      -3.56361642E-11
   3.24119997       2.49601069E-11
   3.25320005       9.19344878E-11
   3.26519990       1.58561289E-10
   3.27719998       2.17209306E-10
   3.28920007       2.60121813E-10
   3.30119991       2.80315937E-10
   3.31320000       2.72507100E-10
   3.32520008       2.33947584E-10
   3.33719993       1.65066419E-10
   3.34920001       6.98078331E-11
   3.36120009      -4.44115925E-11
   3.37319994      -1.67169334E-10
   3.38520002      -2.85926088E-10
   3.39720011      -3.87285704E-10
   3.40919995      -4.58525384E-10
   3.42120004      -4.89250307E-10
   3.43319988      -4.72994088E-10
   3.44519997      -4.08567652E-10
   3.45720005      -3.00959119E-10
   3.46919990      -1.61611488E-10
   3.48119998      -7.94712646E-12
   3.49320006       1.37925060E-10
   3.50519991       2.51301674E-10
   3.51719999       3.07666115E-10
   3.52920008       2.85953955E-10
   3.54119992       1.72013556E-10
   3.55320001      -3.80921232E-11
   3.56520009      -3.35325739E-10
   3.57719994      -6.95829838E-10
   3.58920002      -1.08030762E-09
   3.60120010      -1.43482970E-09
   3.61319995      -1.69310599E-09
   3.62520003      -1.78006665E-09
   3.63720012      -1.61637681E-09
   3.64919996      -1.12328580E-09
   3.66120005      -2.27019972E-10
   3.67319989       1.13822385E-09
   3.68519998       3.02971537E-09
   3.69720006       5.49907453E-09
   3.70919991       8.59952376E-09
   3.72119999       1.23982060E-08
   3.73320007       1.69939636E-08
   3.74519992       2.25405330E-08
   3.75720000       2.92746698E-08
   3.76920009       3.75481655E-08
   3.78119993       4.78621942E-08
   3.79320002       6.09019182E-08
   3.80520010       7.75688136E-08
   3.81719995       9.90078917E-08
   3.82920003       1.26626730E-07
   3.84120011       1.62103390E-07
   3.85319996       2.07380083E-07
   3.86520004       2.64640619E-07
   3.87719989       3.36269153E-07
   3.88919997       4.24789675E-07
   3.90120006       5.32786032E-07
   3.91319990       6.62803131E-07
   3.92519999       8.17232092E-07
   3.93720007       9.98181577E-07
   3.94919991       1.20734035E-06
   3.96120000       1.44583612E-06
   3.97320008       1.71409602E-06
   3.98519993       2.01171633E-06
   3.99720001       2.33734659E-06
   4.00920010       2.68859708E-06
   4.02120018       3.06197353E-06
   4.03319979       3.45284639E-06
   4.04519987       3.85545854E-06
   4.05719995       4.26297674E-06
   4.06920004       4.66758593E-06
   4.08120012       5.06063088E-06
   4.09320021       5.43279930E-06
   4.10519981       5.77434912E-06
   4.11719990       6.07536549E-06
   4.12919998       6.32605406E-06
   4.14120007       6.51704750E-06
   4.15320015       6.63972696E-06
   4.16520023       6.68654093E-06
   4.17719984       6.65130801E-06
   4.18919992       6.52950121E-06
   4.20120001       6.31848752E-06
   4.21320009       6.01772263E-06
   4.22520018       5.62888681E-06
   4.23719978       5.15594820E-06
   4.24919987       4.60515776E-06
   4.26119995       3.98495877E-06
   4.27320004       3.30582543E-06
   4.28520012       2.58001887E-06
   4.29720020       1.82127235E-06
   4.30919981       1.04441699E-06
   4.32119989       2.64957123E-07
   4.33319998      -5.01390446E-07
   4.34520006      -1.23917391E-06
   4.35720015      -1.93368373E-06
   4.36920023      -2.57141096E-06
   4.38119984      -3.14046474E-06
   4.39319992      -3.63093636E-06
   4.40520000      -4.03518925E-06
   4.41720009      -4.34806543E-06
   4.42920017      -4.56699900E-06
   4.44119978      -4.69202860E-06
   4.45319986      -4.72571492E-06
   4.46519995      -4.67296059E-06
   4.47720003      -4.54074598E-06
   4.48920012      -4.33778996E-06
   4.50120020      -4.07415519E-06
   4.51319981      -3.76081380E-06
   4.52519989      -3.40919610E-06
   4.53719997      -3.03074216E-06
   4.54920006      -2.63647576E-06
   4.56120014      -2.23661982E-06
   4.57320023      -1.84027351E-06
   4.58519983      -1.45515548E-06
   4.59719992      -1.08743109E-06
   4.60920000      -7.41621250E-07
   4.62120008      -4.20595711E-07
   4.63320017      -1.25646281E-07
   4.64519978       1.43370428E-07
   4.65719986       3.87831648E-07
   4.66919994       6.10102916E-07
   4.68120003       8.13265387E-07
   4.69320011       1.00083116E-06
   4.70520020       1.17646505E-06
   4.71719980       1.34372715E-06
   4.72919989       1.50584822E-06
   4.74119997       1.66554878E-06
   4.75320005       1.82491112E-06
   4.76520014       1.98530324E-06
   4.77720022       2.14735883E-06
   4.78919983       2.31100785E-06
   4.80119991       2.47555386E-06
   4.81320000       2.63978563E-06
   4.82520008       2.80211907E-06
   4.83720016       2.96074927E-06
   4.84919977       3.11380836E-06
   4.86119986       3.25951896E-06
   4.87319994       3.39632288E-06
   4.88520002       3.52299139E-06
   4.89720011       3.63869844E-06
   4.90920019       3.74306296E-06
   4.92119980       3.83615543E-06
   4.93319988       3.91846970E-06
   4.94519997       3.99086912E-06
   4.95720005       4.05450783E-06
   4.96920013       4.11073916E-06
   4.98120022       4.16101693E-06
   4.99319983       4.20679544E-06
   5.00519991       4.24944847E-06
   5.01719999       4.29019292E-06
   5.02920008       4.33004288E-06
   5.04120016       4.36978326E-06
   5.05319977       4.40997155E-06
   5.06519985       4.45096202E-06
   5.07719994       4.49295248E-06
   5.08920002       4.53603980E-06
   5.10120010       4.58029308E-06
   5.11320019       4.62581829E-06
   5.12519979       4.67282007E-06
   5.13719988       4.72165311E-06
   5.14919996       4.77284630E-06
   5.16120005       4.82711175E-06
   5.17320013       4.88532396E-06
   5.18520021       4.94848018E-06
   5.19719982       5.01763134E-06
   5.20919991       5.09380607E-06
   5.22119999       5.17791568E-06
   5.23320007       5.27066322E-06
   5.24520016       5.37245296E-06
   5.25719976       5.48331536E-06
   5.26919985       5.60285389E-06
   5.28119993       5.73021543E-06
   5.29320002       5.86408987E-06
   5.30520010       6.00274507E-06
   5.31720018       6.14408737E-06
   5.32919979       6.28575117E-06
   5.34119987       6.42521081E-06
   5.35319996       6.55990425E-06
   5.36520004       6.68736539E-06
   5.37720013       6.80535322E-06
   5.38920021       6.91197329E-06
   5.40119982       7.00578221E-06
   5.41319990       7.08586867E-06
   5.42519999       7.15191482E-06
   5.43720007       7.20422486E-06
   5.44920015       7.24372967E-06
   5.46120024       7.27196630E-06
   5.47319984       7.29103567E-06
   5.48519993       7.30353895E-06
   5.49720001       7.31250384E-06
   5.50920010       7.32129547E-06
   5.52120018       7.33351862E-06
   5.53319979       7.35292178E-06
   5.54519987       7.38328981E-06
   5.55719995       7.42833754E-06
   5.56920004       7.49160063E-06
   5.58120012       7.57632552E-06
   5.59320021       7.68535119E-06
   5.60519981       7.82099778E-06
   5.61719990       7.98494966E-06
   5.62919998       8.17814362E-06
   5.64120007       8.40066878E-06
   5.65320015       8.65167385E-06
   5.66520023       8.92929984E-06
   5.67719984       9.23064090E-06
   5.68919992       9.55174892E-06
   5.70120001       9.88767079E-06
   5.71320009       1.02325421E-05
   5.72520018       1.05797353E-05
   5.73719978       1.09220582E-05
   5.74919987       1.12520020E-05
   5.76119995       1.15620360E-05
   5.77320004       1.18449243E-05
   5.78520012       1.20940731E-05
   5.79720020       1.23038526E-05
   5.80919981       1.24699263E-05
   5.82119989       1.25895203E-05
   5.83319998       1.26616369E-05
   5.84520006       1.26871955E-05
   5.85720015       1.26690848E-05
   5.86920023       1.26121131E-05
   5.88119984       1.25228671E-05
   5.89319992       1.24094659E-05
   5.90520000       1.22812353E-05
   5.91720009       1.21483035E-05
   5.92920017       1.20211489E-05
   5.94119978       1.19101123E-05
   5.95319986       1.18249118E-05
   5.96519995       1.17741720E-05
   5.97720003       1.17650070E-05
   5.98920012       1.18026737E-05
   6.00120020       1.18903090E-05
   6.01319981       1.20287814E-05
   6.02519989       1.22166466E-05
   6.03719997       1.24502294E-05
   6.04920006       1.27238090E-05
   6.06120014       1.30299140E-05
   6.07320023       1.33596977E-05
   6.08519983       1.37033912E-05
   6.09719992       1.40507864E-05
   6.10920000       1.43917559E-05
   6.12120008       1.47167566E-05
   6.13320017       1.50173082E-05
   6.14519978       1.52864195E-05
   6.15719986       1.55189373E-05
   6.16919994       1.57118229E-05
   6.18120003       1.58643088E-05
   6.19320011       1.59779702E-05
   6.20520020       1.60566760E-05
   6.21719980       1.61064472E-05
   6.22919989       1.61352164E-05
   6.24119997       1.61524931E-05
   6.25320005       1.61689659E-05
   6.26520014       1.61960616E-05
   6.27720022       1.62454380E-05
   6.28919983       1.63284931E-05
   6.30119991       1.64558514E-05
   6.31320000       1.66368845E-05
   6.32520008       1.68792649E-05
   6.33720016       1.71885822E-05
   6.34919977       1.75680325E-05
   6.36119986       1.80181814E-05
   6.37319994       1.85368390E-05
   6.38520002       1.91190138E-05
   6.39720011       1.97569861E-05
   6.40920019       2.04404751E-05
   6.42119980       2.11569113E-05
   6.43319988       2.18917849E-05
   6.44519997       2.26291013E-05
   6.45720005       2.33518822E-05
   6.46920013       2.40427380E-05
   6.48120022       2.46844629E-05
   6.49319983       2.52606587E-05
   6.50519991       2.57563479E-05
   6.51719999       2.61585501E-05
   6.52920008       2.64568316E-05
   6.54120016       2.66437728E-05
   6.55319977       2.67153446E-05
   6.56519985       2.66711977E-05
   6.57719994       2.65148356E-05
   6.58920002       2.62536651E-05
   6.60120010       2.58989276E-05
   6.61320019       2.54655115E-05
   6.62519979       2.49716359E-05
   6.63719988       2.44384391E-05
   6.64919996       2.38894572E-05
   6.66120005       2.33500268E-05
   6.67320013       2.28466015E-05
   6.68520021       2.24060423E-05
   6.69719982       2.20548500E-05
   6.70919991       2.18184068E-05
   6.72119999       2.17202123E-05
   6.73320007       2.17811594E-05
   6.74520016       2.20188485E-05
   6.75719976       2.24469823E-05
   6.76919985       2.30748228E-05
   6.78119993       2.39067904E-05
   6.79320002       2.49421373E-05
   6.80520010       2.61747737E-05
   6.81720018       2.75932216E-05
   6.82919979       2.91807210E-05
   6.84119987       3.09154675E-05
   6.85319996       3.27709786E-05
   6.86520004       3.47166315E-05
   6.87720013       3.67182583E-05
   6.88920021       3.87388936E-05
   6.90119982       4.07395491E-05
   6.91319990       4.26800834E-05
   6.92519999       4.45200712E-05
   6.93720007       4.62196622E-05
   6.94920015       4.77404174E-05
   6.96120024       4.90461061E-05
   6.97319984       5.01033719E-05
   6.98519993       5.08823614E-05
   6.99720001       5.13571831E-05
   7.00920010       5.15062784E-05
   7.02120018       5.13126724E-05
   7.03319979       5.07640943E-05
   7.04519987       4.98530171E-05
   7.05719995       4.85765740E-05
   7.06920004       4.69364131E-05
   7.08120012       4.49385079E-05
   7.09320021       4.25929029E-05
   7.10519981       3.99134515E-05
   7.11719990       3.69175286E-05
   7.12919998       3.36257617E-05
   7.14120007       3.00617285E-05
   7.15320015       2.62517133E-05
   7.16520023       2.22244034E-05
   7.17719984       1.80106272E-05
   7.18919992       1.36430572E-05
   7.20120001       9.15591409E-06
   7.21320009       4.58464092E-06
   7.22520018      -3.44667654E-08
   7.23719978      -4.66463052E-06
   7.24919987      -9.26901612E-06
   7.26119995      -1.38111609E-05
   7.27320004      -1.82554286E-05
   7.28520012      -2.25674667E-05
   7.29720020      -2.67146424E-05
   7.30919981      -3.06664806E-05
   7.32119989      -3.43950596E-05
   7.33319998      -3.78753539E-05
   7.34520006      -4.10855355E-05
   7.35720015      -4.40071999E-05
   7.36920023      -4.66255588E-05
   7.38119984      -4.89295307E-05
   7.39319992      -5.09117635E-05
   7.40520000      -5.25686264E-05
   7.41720009      -5.39001157E-05
   7.42920017      -5.49097167E-05
   7.44119978      -5.56042105E-05
   7.45319986      -5.59934742E-05
   7.46519995      -5.60902372E-05
   7.47720003      -5.59098298E-05
   7.48920012      -5.54699182E-05
   7.50120020      -5.47902346E-05
   7.51319981      -5.38923159E-05
   7.52519989      -5.27992343E-05
   7.53719997      -5.15353349E-05
   7.54920006      -5.01259638E-05
   7.56120014      -4.85972196E-05
   7.57320023      -4.69756815E-05
   7.58519983      -4.52881504E-05
   7.59719992      -4.35613983E-05
   7.60920000      -4.18219242E-05
   7.62120008      -4.00956924E-05
   7.63320017      -3.84079212E-05
   7.64519978      -3.67828288E-05
   7.65719986      -3.52434290E-05
   7.66919994      -3.38113241E-05
   7.68120003      -3.25064975E-05
   7.69320011      -3.13471610E-05
   7.70520020      -3.03495835E-05
   7.71719980      -2.95279715E-05
   7.72919989      -2.88943374E-05
   7.74119997      -2.84584312E-05
   7.75320005      -2.82276851E-05
   7.76520014      -2.82071687E-05
   7.77720022      -2.83995851E-05
   7.78919983      -2.88052852E-05
   7.80119991      -2.94222900E-05
   7.81320000      -3.02463504E-05
   7.82520008      -3.12709999E-05
   7.83720016      -3.24876346E-05
   7.84919977      -3.38856007E-05
   7.86119986      -3.54522963E-05
   7.87319994      -3.71732749E-05
   7.88520002      -3.90323694E-05
   7.89720011      -4.10118519E-05
   7.90920019      -4.30925538E-05
   7.92119980      -4.52540589E-05
   7.93319988      -4.74748958E-05
   7.94519997      -4.97327492E-05
   7.95720005      -5.20047251E-05
   7.96920013      -5.42675843E-05
   7.98120022      -5.64980619E-05
   7.99319983      -5.86731767E-05
   8.00520039      -6.07705406E-05
   8.01720047      -6.27687186E-05
   8.02919960      -6.46475601E-05
   8.04119968      -6.63885294E-05
   8.05319977      -6.79750447E-05
   8.06519985      -6.93927504E-05
   8.07719994      -7.06297942E-05
   8.08920002      -7.16770883E-05
   8.10120010      -7.25284626E-05
   8.11320019      -7.31808104E-05
   8.12520027      -7.36342190E-05
   8.13720036      -7.38919916E-05
   8.14920044      -7.39606039E-05
   8.16119957      -7.38496819E-05
   8.17319965      -7.35718568E-05
   8.18519974      -7.31425389E-05
   8.19719982      -7.25796635E-05
   8.20919991      -7.19033633E-05
   8.22119999      -7.11355387E-05
   8.23320007      -7.02994148E-05
   8.24520016      -6.94189657E-05
   8.25720024      -6.85183768E-05
   8.26920033      -6.76214040E-05
   8.28120041      -6.67507120E-05
   8.29319954      -6.59272846E-05
   8.30519962      -6.51697192E-05
   8.31719971      -6.44937245E-05
   8.32919979      -6.39115242E-05
   8.34119987      -6.34314638E-05
   8.35319996      -6.30576687E-05
   8.36520004      -6.27898771E-05
   8.37720013      -6.26233450E-05
   8.38920021      -6.25489702E-05
   8.40120029      -6.25535322E-05
   8.41320038      -6.26200781E-05
   8.42520046      -6.27284317E-05
   8.43719959      -6.28558337E-05
   8.44919968      -6.29776041E-05
   8.46119976      -6.30678987E-05
   8.47319984      -6.31005023E-05
   8.48519993      -6.30495488E-05
   8.49720001      -6.28902781E-05
   8.50920010      -6.25996763E-05
   8.52120018      -6.21570944E-05
   8.53320026      -6.15447498E-05
   8.54520035      -6.07481379E-05
   8.55720043      -5.97563521E-05
   8.56919956      -5.85623129E-05
   8.58119965      -5.71628771E-05
   8.59319973      -5.55588995E-05
   8.60519981      -5.37551532E-05
   8.61719990      -5.17602675E-05
   8.62919998      -4.95865133E-05
   8.64120007      -4.72495740E-05
   8.65320015      -4.47682396E-05
   8.66520023      -4.21640798E-05
   8.67720032      -3.94609851E-05
   8.68920040      -3.66847344E-05
   8.70119953      -3.38624486E-05
   8.71319962      -3.10220239E-05
   8.72519970      -2.81914745E-05
   8.73719978      -2.53983162E-05
   8.74919987      -2.26688517E-05
   8.76119995      -2.00275208E-05
   8.77320004      -1.74962352E-05
   8.78520012      -1.50937813E-05
   8.79720020      -1.28353076E-05
   8.80920029      -1.07318947E-05
   8.82120037      -8.79027175E-06
   8.83320045      -7.01266754E-06
   8.84519958      -5.39683697E-06
   8.85719967      -3.93624305E-06
   8.86919975      -2.62042181E-06
   8.88119984      -1.43549926E-06
   8.89319992      -3.64843260E-07
   8.90520000       6.10157372E-07
   8.91720009       1.50924029E-06
   8.92920017       2.35237530E-06
   8.94120026       3.15886723E-06
   8.95320034       3.94650488E-06
   8.96520042       4.73079217E-06
   8.97719955       5.52430174E-06
   8.98919964       6.33617901E-06
   9.00119972       7.17182593E-06
   9.01319981       8.03277453E-06
   9.02519989       8.91675791E-06
   9.03719997       9.81796984E-06
   9.04920006       1.07275109E-05
   9.06120014       1.16339806E-05
   9.07320023       1.25242013E-05
   9.08520031       1.33840222E-05
   9.09720039       1.41991713E-05
   9.10919952       1.49561029E-05
   9.12119961       1.56428032E-05
   9.13319969       1.62495035E-05
   9.14519978       1.67692706E-05
   9.15719986       1.71984448E-05
   9.16919994       1.75368914E-05
   9.18120003       1.77880611E-05
   9.19320011       1.79588842E-05
   9.20520020       1.80594598E-05
   9.21720028       1.81025953E-05
   9.22920036       1.81032174E-05
   9.24120045       1.80776769E-05
   9.25319958       1.80430125E-05
   9.26519966       1.80161860E-05
   9.27719975       1.80133320E-05
   9.28919983       1.80490861E-05
   9.30119991       1.81359919E-05
   9.31320000       1.82840340E-05
   9.32520008       1.85003046E-05
   9.33720016       1.87888072E-05
   9.34920025       1.91504369E-05
   9.36120033       1.95830617E-05
   9.37320042       2.00817467E-05
   9.38519955       2.06390887E-05
   9.39719963       2.12456089E-05
   9.40919971       2.18902096E-05
   9.42119980       2.25606473E-05
   9.43319988       2.32440252E-05
   9.44519997       2.39272485E-05
