 -0.622799993       0.00000000    
 -0.610800028       0.00000000    
 -0.598800004       0.00000000    
 -0.586799979       0.00000000    
 -0.574800014       0.00000000    
 -0.562799990       0.00000000    
 -0.550800025       0.00000000    
 -0.538800001      -4.65218534E-31
 -0.526799977      -4.78657877E-30
 -0.514800012      -2.43983967E-29
 -0.502799988      -8.20501406E-29
 -0.490799993      -2.12213767E-28
 -0.478799999      -5.11221107E-28
 -0.466800004      -1.42971872E-27
 -0.454800010      -4.64541660E-27
 -0.442799985      -1.46922986E-26
 -0.430799991      -4.06148026E-26
 -0.418799996      -9.52274921E-26
 -0.406800002      -1.88231284E-25
 -0.394800007      -3.10943306E-25
 -0.382800013      -4.16986648E-25
 -0.370799989      -4.13534642E-25
 -0.358799994      -1.83497404E-25
 -0.346799999       3.52469092E-25
 -0.334800005       1.16097744E-24
 -0.322800010       2.07948192E-24
 -0.310799986       2.93776179E-24
 -0.298799992       3.81003488E-24
 -0.286799997       5.19541189E-24
 -0.274800003       7.72077101E-24
 -0.262800008       1.09843036E-23
 -0.250800014       1.16838370E-23
 -0.238800004       2.26426568E-24
 -0.226799995      -2.74782594E-23
 -0.214800000      -8.31659386E-23
 -0.202800006      -1.52415424E-22
 -0.190799996      -1.89775195E-22
 -0.178800002      -1.11461590E-22
 -0.166800007       1.84016675E-22
 -0.154799998       7.56828912E-22
 -0.142800003       1.53271630E-21
 -0.130799994       2.20975121E-21
 -0.118799999       2.23107494E-21
 -0.106799997       9.04128907E-22
  -9.48000029E-02  -2.28044001E-21
  -8.28000009E-02  -7.16069496E-21
  -7.07999989E-02  -1.24056590E-20
  -5.88000007E-02  -1.52957214E-20
  -4.67999987E-02  -1.21207082E-20
  -3.48000005E-02   5.68884833E-22
  -2.28000004E-02   2.39214381E-20
  -1.08000003E-02   5.44717239E-20
   1.20000006E-03   8.25383627E-20
   1.31999999E-02   9.25697242E-20
   2.52000000E-02   6.65000350E-20
   3.72000001E-02  -9.56855633E-21
   4.91999984E-02  -1.36311261E-19
   6.12000003E-02  -2.92234303E-19
   7.32000023E-02  -4.28647656E-19
   8.51999968E-02  -4.72930641E-19
   9.71999988E-02  -3.43725055E-19
  0.109200001       2.07776332E-20
  0.121200003       6.24591052E-19
  0.133200005       1.37467926E-18
  0.145199999       2.05583913E-18
  0.157199994       2.33935094E-18
  0.169200003       1.84461690E-18
  0.181199998       2.63990608E-19
  0.193200007      -2.45920837E-18
  0.205200002      -5.94022924E-18
  0.217199996      -9.22509539E-18
  0.229200006      -1.08247841E-17
  0.241200000      -9.00491066E-18
  0.253199995      -2.37068826E-18
  0.265199989       9.32231310E-18
  0.277200013       2.43491516E-17
  0.289200008       3.85472452E-17
  0.301200002       4.56195534E-17
  0.313199997       3.85356150E-17
  0.325199991       1.20569474E-17
  0.337199986      -3.40697629E-17
  0.349200010      -9.22543486E-17
  0.361200005      -1.45940270E-16
  0.373199999      -1.71606228E-16
  0.385199994      -1.44662825E-16
  0.397199988      -4.87537110E-17
  0.409200013       1.13689067E-16
  0.421200007       3.13327757E-16
  0.433200002       4.92640397E-16
  0.445199996       5.75097149E-16
  0.457199991       4.85807753E-16
  0.469199985       1.80541883E-16
  0.481200010      -3.24545094E-16
  0.493200004      -9.33544869E-16
  0.505200028      -1.47325510E-15
  0.517199993      -1.72507238E-15
  0.529200017      -1.48573369E-15
  0.541199982      -6.45388972E-16
  0.553200006       7.38984260E-16
  0.565199971       2.40277137E-15
  0.577199996       3.89118550E-15
  0.589200020       4.64840458E-15
  0.601199985       4.17086858E-15
  0.613200009       2.19248973E-15
  0.625199974      -1.15117601E-15
  0.637199998      -5.24133569E-15
  0.649200022      -9.02830904E-15
  0.661199987      -1.12389388E-14
  0.673200011      -1.07147618E-14
  0.685199976      -6.80755890E-15
  0.697200000       2.78619868E-16
  0.709200025       9.32050491E-15
  0.721199989       1.81796733E-14
  0.733200014       2.42115440E-14
  0.745199978       2.49266804E-14
  0.757200003       1.87627047E-14
  0.769200027       5.76037927E-15
  0.781199992      -1.20775057E-14
  0.793200016      -3.09177936E-14
  0.805199981      -4.57828999E-14
  0.817200005      -5.17058591E-14
  0.829200029      -4.51175386E-14
  0.841199994      -2.51176677E-14
  0.853200018       5.74905021E-15
  0.865199983       4.15192918E-14
  0.877200007       7.37770034E-14
  0.889199972       9.34587355E-14
  0.901199996       9.31499886E-14
  0.913200021       6.93321201E-14
  0.925199986       2.39656961E-14
  0.937200010      -3.51218451E-14
  0.949199975      -9.53358757E-14
  0.961199999      -1.41837253E-13
  0.973200023      -1.61032361E-13
  0.985199988      -1.44247488E-13
  0.997200012      -9.06425542E-14
   1.00919998      -8.48711851E-15
   1.02119994       8.57618623E-14
   1.03320003       1.70629922E-13
   1.04519999       2.24496664E-13
   1.05719995       2.31095199E-13
   1.06920004       1.84259441E-13
   1.08120000       9.05706106E-14
   1.09319997      -3.10424057E-14
   1.10520005      -1.52981889E-13
   1.11720002      -2.45308494E-13
   1.12919998      -2.83296851E-13
   1.14119995      -2.54313091E-13
   1.15320003      -1.62095313E-13
   1.16520000      -2.70425585E-14
   1.17719996       1.17922694E-13
   1.18920004       2.35173263E-13
   1.20120001       2.92056093E-13
   1.21319997       2.69948208E-13
   1.22520006       1.70186537E-13
   1.23720002       1.50489870E-14
   1.24919999      -1.56799459E-13
   1.26119995      -2.99497840E-13
   1.27320004      -3.71603410E-13
   1.28520000      -3.47146736E-13
   1.29719996      -2.23173341E-13
   1.30920005      -2.16648226E-14
   1.32120001       2.14812082E-13
   1.33319998       4.32722245E-13
   1.34519994       5.80040519E-13
   1.35720003       6.18450549E-13
   1.36919999       5.32255555E-13
   1.38119996       3.31933537E-13
   1.39320004       5.17348378E-14
   1.40520000      -2.57741501E-13
   1.41719997      -5.39891536E-13
   1.42920005      -7.42800569E-13
   1.44120002      -8.28022763E-13
   1.45319998      -7.76101297E-13
   1.46519995      -5.88649897E-13
   1.47720003      -2.87793281E-13
   1.48920000       8.57804564E-14
   1.50119996       4.75138050E-13
   1.51320004       8.09597452E-13
   1.52520001       1.00828644E-12
   1.53719997       9.86548191E-13
   1.54920006       6.67224576E-13
   1.56120002      -1.79541677E-15
   1.57319999      -1.02403795E-12
   1.58519995      -2.32757303E-12
   1.59720004      -3.74012973E-12
   1.60920000      -4.97376489E-12
   1.62119997      -5.62778383E-12
   1.63320005      -5.21798533E-12
   1.64520001      -3.23741229E-12
   1.65719998       7.51320067E-13
   1.66919994       6.99916557E-12
   1.68120003       1.54443628E-11
   1.69319999       2.55996457E-11
   1.70519996       3.64813908E-11
   1.71720004       4.66110345E-11
   1.72920001       5.41152990E-11
   1.74119997       5.69418644E-11
   1.75320005       5.31914755E-11
   1.76520002       4.15471026E-11
   1.77719998       2.17591084E-11
   1.78919995      -4.87612121E-12
   1.80120003      -3.51219193E-11
   1.81320000      -6.35782260E-11
   1.82519996      -8.27157232E-11
   1.83720005      -8.32446265E-11
   1.84920001      -5.48763743E-11
   1.86119998       1.24911626E-11
   1.87320006       1.27163835E-10
   1.88520002       2.93656877E-10
   1.89719999       5.10399167E-10
   1.90919995       7.67273189E-10
   1.92120004       1.04317943E-09
   1.93320000       1.30386713E-09
   1.94519997       1.50032486E-09
   1.95720005       1.56804492E-09
   1.96920002       1.42746903E-09
   1.98119998       9.85848070E-10
   1.99319994       1.40609635E-10
   2.00519991      -1.21589516E-09
   2.01719999      -3.19075633E-09
   2.02920008      -5.88483884E-09
   2.04119992      -9.38847400E-09
   2.05320001      -1.37804097E-08
   2.06520009      -1.91324734E-08
   2.07719994      -2.55229153E-08
   2.08920002      -3.30617098E-08
   2.10120010      -4.19313899E-08
   2.11319995      -5.24469215E-08
   2.12520003      -6.51377263E-08
   2.13720012      -8.08543419E-08
   2.14919996      -1.00901218E-07
   2.16120005      -1.27195250E-07
   2.17319989      -1.62448245E-07
   2.18519998      -2.10368825E-07
   2.19720006      -2.75876715E-07
   2.20919991      -3.65320517E-07
   2.22119999      -4.86685735E-07
   2.23320007      -6.49778826E-07
   2.24519992      -8.66370442E-07
   2.25720000      -1.15028070E-06
   2.26920009      -1.51738527E-06
   2.28119993      -1.98552971E-06
   2.29320002      -2.57432930E-06
   2.30520010      -3.30484818E-06
   2.31719995      -4.19914659E-06
   2.32920003      -5.27969269E-06
   2.34120011      -6.56864722E-06
   2.35319996      -8.08703044E-06
   2.36520004      -9.85379120E-06
   2.37719989      -1.18848093E-05
   2.38919997      -1.41918681E-05
   2.40120006      -1.67816252E-05
   2.41319990      -1.96546625E-05
   2.42519999      -2.28046247E-05
   2.43720007      -2.62175345E-05
   2.44919991      -2.98713076E-05
   2.46120000      -3.37355232E-05
   2.47320008      -3.77715005E-05
   2.48519993      -4.19326643E-05
   2.49720001      -4.61652598E-05
   2.50920010      -5.04093841E-05
   2.52119994      -5.46003175E-05
   2.53320003      -5.86701462E-05
   2.54520011      -6.25496032E-05
   2.55719995      -6.61700324E-05
   2.56920004      -6.94654664E-05
   2.58119988      -7.23747216E-05
   2.59319997      -7.48433740E-05
   2.60520005      -7.68255122E-05
   2.61719990      -7.82853749E-05
   2.62919998      -7.91985003E-05
   2.64120007      -7.95525993E-05
   2.65319991      -7.93479267E-05
   2.66520000      -7.85972807E-05
   2.67720008      -7.73254651E-05
   2.68919992      -7.55683941E-05
   2.70120001      -7.33717679E-05
   2.71320009      -7.07894651E-05
   2.72519994      -6.78816286E-05
   2.73720002      -6.47126217E-05
   2.74920011      -6.13488883E-05
   2.76119995      -5.78568506E-05
   2.77320004      -5.43008900E-05
   2.78520012      -5.07415461E-05
   2.79719996      -4.72339525E-05
   2.80920005      -4.38265888E-05
   2.82119989      -4.05603896E-05
   2.83319998      -3.74682168E-05
   2.84520006      -3.45746630E-05
   2.85719991      -3.18962520E-05
   2.86919999      -2.94418842E-05
   2.88120008      -2.72135858E-05
   2.89319992      -2.52074115E-05
   2.90520000      -2.34145136E-05
   2.91720009      -2.18222413E-05
   2.92919993      -2.04152857E-05
   2.94120002      -1.91767431E-05
   2.95320010      -1.80890747E-05
   2.96519995      -1.71349438E-05
   2.97720003      -1.62978686E-05
   2.98920012      -1.55627149E-05
   3.00119996      -1.49159932E-05
   3.01320004      -1.43460120E-05
   3.02519989      -1.38428613E-05
   3.03719997      -1.33982985E-05
   3.04920006      -1.30055378E-05
   3.06119990      -1.26589903E-05
   3.07319999      -1.23539749E-05
   3.08520007      -1.20864461E-05
   3.09719992      -1.18527432E-05
   3.10920000      -1.16493848E-05
   3.12120008      -1.14729210E-05
   3.13319993      -1.13198430E-05
   3.14520001      -1.11865511E-05
   3.15720010      -1.10693518E-05
   3.16919994      -1.09644989E-05
   3.18120003      -1.08682380E-05
   3.19320011      -1.07768583E-05
   3.20519996      -1.06867210E-05
   3.21720004      -1.05942536E-05
   3.22919989      -1.04959272E-05
   3.24119997      -1.03881839E-05
   3.25320005      -1.02673494E-05
   3.26519990      -1.01295218E-05
   3.27719998      -9.97046754E-06
   3.28920007      -9.78553362E-06
   3.30119991      -9.56959957E-06
   3.31320000      -9.31709747E-06
   3.32520008      -9.02210832E-06
   3.33719993      -8.67855306E-06
   3.34920001      -8.28048451E-06
   3.36120009      -7.82247025E-06
   3.37319994      -7.30005786E-06
   3.38520002      -6.71031012E-06
   3.39720011      -6.05236301E-06
   3.40919995      -5.32798049E-06
   3.42120004      -4.54205338E-06
   3.43319988      -3.70299949E-06
   3.44519997      -2.82301471E-06
   3.45720005      -1.91813092E-06
   3.46919990      -1.00804607E-06
   3.48119998      -1.15709675E-07
   3.49320006       7.33356899E-07
   3.50519991       1.51198594E-06
   3.51719999       2.19252138E-06
   3.52920008       2.74815352E-06
   3.54119992       3.15437364E-06
   3.55320001       3.39047369E-06
   3.56520009       3.44099408E-06
   3.57719994       3.29703380E-06
   3.58920002       2.95732957E-06
   3.60120010       2.42901160E-06
   3.61319995       1.72796649E-06
   3.62520003       8.78747699E-07
   3.63720012      -8.59962412E-08
   3.64919996      -1.12658176E-06
   3.66120005      -2.19780463E-06
   3.67319989      -3.25085739E-06
   3.68519998      -4.23555275E-06
   3.69720006      -5.10275277E-06
   3.70919991      -5.80685946E-06
   3.72119999      -6.30823297E-06
   3.73320007      -6.57538976E-06
   3.74519992      -6.58684667E-06
   3.75720000      -6.33247646E-06
   3.76920009      -5.81428958E-06
   3.78119993      -5.04657146E-06
   3.79320002      -4.05534092E-06
   3.80520010      -2.87713829E-06
   3.81719995      -1.55720113E-06
   3.82920003      -1.47106704E-07
   3.84120011       1.29799241E-06
   3.85319996       2.72238867E-06
   3.86520004       4.07292555E-06
   3.87719989       5.30202624E-06
   3.88919997       6.37045969E-06
   3.90120006       7.24968686E-06
   3.91319990       7.92365518E-06
   3.92519999       8.38992855E-06
   3.93720007       8.66008759E-06
   3.94919991       8.75937258E-06
   3.96120000       8.72556848E-06
   3.97320008       8.60720684E-06
   3.98519993       8.46115017E-06
   3.99720001       8.34969433E-06
   4.00920010       8.33733066E-06
   4.02120018       8.48734544E-06
   4.03319979       8.85840018E-06
   4.04519987       9.50127014E-06
   4.05719995       1.04559094E-05
   4.06920004       1.17489571E-05
   4.08120012       1.33917947E-05
   4.09320021       1.53792516E-05
   4.10519981       1.76889953E-05
   4.11719990       2.02816082E-05
   4.12919998       2.31013564E-05
   4.14120007       2.60775832E-05
   4.15320015       2.91266733E-05
   4.16520023       3.21544576E-05
   4.17719984       3.50590090E-05
   4.18919992       3.77336619E-05
   4.20120001       4.00701829E-05
   4.21320009       4.19619500E-05
   4.22520018       4.33070345E-05
   4.23719978       4.40111653E-05
   4.24919987       4.39903706E-05
   4.26119995       4.31733461E-05
   4.27320004       4.15034410E-05
   4.28520012       3.89402121E-05
   4.29720020       3.54605836E-05
   4.30919981       3.10595206E-05
   4.32119989       2.57502761E-05
   4.33319998       1.95641842E-05
   4.34520006       1.25500410E-05
   4.35720015       4.77305502E-06
   4.36920023      -3.68654787E-06
   4.38119984      -1.27352905E-05
   4.39319992      -2.22685157E-05
   4.40520000      -3.21727057E-05
   4.41720009      -4.23280326E-05
   4.42920017      -5.26110161E-05
   4.44119978      -6.28973285E-05
   4.45319986      -7.30645042E-05
   4.46519995      -8.29946803E-05
   4.47720003      -9.25770655E-05
   4.48920012      -1.01710255E-04
   4.50120020      -1.10304172E-04
   4.51319981      -1.18281649E-04
   4.52519989      -1.25579565E-04
   4.53719997      -1.32149551E-04
   4.54920006      -1.37958152E-04
   4.56120014      -1.42986537E-04
   4.57320023      -1.47229803E-04
   4.58519983      -1.50695792E-04
   4.59719992      -1.53403671E-04
   4.60920000      -1.55382164E-04
   4.62120008      -1.56667607E-04
   4.63320017      -1.57302144E-04
   4.64519978      -1.57331626E-04
   4.65719986      -1.56803988E-04
   4.66919994      -1.55767586E-04
   4.68120003      -1.54269801E-04
   4.69320011      -1.52356180E-04
   4.70520020      -1.50069696E-04
   4.71719980      -1.47450424E-04
   4.72919989      -1.44535428E-04
   4.74119997      -1.41359094E-04
   4.75320005      -1.37953510E-04
   4.76520014      -1.34349000E-04
   4.77720022      -1.30574801E-04
   4.78919983      -1.26659608E-04
   4.80119991      -1.22632176E-04
   4.81320000      -1.18521690E-04
   4.82520008      -1.14358023E-04
   4.83720016      -1.10171721E-04
   4.84919977      -1.05993917E-04
   4.86119986      -1.01855927E-04
   4.87319994      -9.77887466E-05
   4.88520002      -9.38225057E-05
   4.89720011      -8.99856750E-05
   4.90920019      -8.63044697E-05
   4.92119980      -8.28021293E-05
   4.93319988      -7.94983644E-05
   4.94519997      -7.64089273E-05
   4.95720005      -7.35452777E-05
   4.96920013      -7.09144151E-05
   4.98120022      -6.85189443E-05
   4.99319983      -6.63571409E-05
   5.00519991      -6.44232350E-05
   5.01719999      -6.27077825E-05
   5.02920008      -6.11980140E-05
   5.04120016      -5.98782208E-05
   5.05319977      -5.87301911E-05
   5.06519985      -5.77334795E-05
   5.07719994      -5.68657197E-05
   5.08920002      -5.61027991E-05
   5.10120010      -5.54190265E-05
   5.11320019      -5.47872478E-05
   5.12519979      -5.41789377E-05
   5.13719988      -5.35643230E-05
   5.14919996      -5.29125973E-05
   5.16120005      -5.21921975E-05
   5.17320013      -5.13712475E-05
   5.18520021      -5.04181262E-05
   5.19719982      -4.93022453E-05
   5.20919991      -4.79949667E-05
   5.22119999      -4.64706718E-05
   5.23320007      -4.47079510E-05
   5.24520016      -4.26908409E-05
   5.25719976      -4.04100610E-05
   5.26919985      -3.78641707E-05
   5.28119993      -3.50605587E-05
   5.29320002      -3.20161707E-05
   5.30520010      -2.87579714E-05
   5.31720018      -2.53229482E-05
   5.32919979      -2.17577272E-05
   5.34119987      -1.81177074E-05
   5.35319996      -1.44657452E-05
   5.36520004      -1.08703862E-05
   5.37720013      -7.40370524E-06
   5.38920021      -4.13883072E-06
   5.40119982      -1.14725674E-06
   5.41319990       1.50396090E-06
   5.42519999       3.75497916E-06
   5.43720007       5.55579618E-06
   5.44920015       6.86859948E-06
   5.46120024       7.66971334E-06
   5.47319984       7.95104734E-06
   5.48519993       7.72096155E-06
   5.49720001       7.00448709E-06
   5.50920010       5.84288637E-06
   5.52120018       4.29253714E-06
   5.53319979       2.42319902E-06
   5.54519987       3.15705591E-07
   5.55719995      -1.94080985E-06
   5.56920004      -4.25205144E-06
   5.58120012      -6.52192603E-06
   5.59320021      -8.65599850E-06
   5.60519981      -1.05648860E-05
   5.61719990      -1.21674648E-05
   5.62919998      -1.33937419E-05
   5.64120007      -1.41872943E-05
   5.65320015      -1.45071717E-05
   5.66520023      -1.43291818E-05
   5.67719984      -1.36465360E-05
   5.68919992      -1.24698227E-05
   5.70120001      -1.08263166E-05
   5.71320009      -8.75867045E-06
   5.72520018      -6.32305455E-06
   5.73719978      -3.58681041E-06
   5.74919987      -6.25762368E-07
   5.76119995       2.47874027E-06
   5.77320004       5.64287984E-06
   5.78520012       8.78342598E-06
   5.79720020       1.18206544E-05
   5.80919981       1.46810007E-05
   5.82119989       1.72993732E-05
   5.83319998       1.96210003E-05
   5.84520006       2.16027947E-05
   5.85720015       2.32141592E-05
   5.86920023       2.44372422E-05
   5.88119984       2.52666687E-05
   5.89319992       2.57087449E-05
   5.90520000       2.57802767E-05
   5.91720009       2.55070117E-05
   5.92920017       2.49218665E-05
   5.94119978       2.40630307E-05
   5.95319986       2.29720517E-05
   5.96519995       2.16920198E-05
   5.97720003       2.02659558E-05
   5.98920012       1.87354690E-05
   6.00120020       1.71397078E-05
   6.01319981       1.55147209E-05
   6.02519989       1.38931255E-05
   6.03719997       1.23041355E-05
   6.04920006       1.07738570E-05
   6.06120014       9.32581679E-06
   6.07320023       7.98161727E-06
   6.08519983       6.76163245E-06
   6.09719992       5.68565338E-06
   6.10920000       4.77339927E-06
   6.12120008       4.04480215E-06
   6.13320017       3.52002007E-06
   6.14519978       3.21914217E-06
   6.15719986       3.16157048E-06
   6.16919994       3.36510880E-06
   6.18120003       3.84479017E-06
   6.19320011       4.61152877E-06
   6.20520020       5.67067354E-06
   6.21719980       7.02057287E-06
   6.22919989       8.65125821E-06
   6.24119997       1.05433564E-05
   6.25320005       1.26673331E-05
   6.26520014       1.49831594E-05
   6.27720022       1.74404577E-05
   6.28919983       1.99791757E-05
   6.30119991       2.25307995E-05
   6.31320000       2.50200792E-05
   6.32520008       2.73672304E-05
   6.33720016       2.94905112E-05
   6.34919977       3.13090968E-05
   6.36119986       3.27461166E-05
   6.37319994       3.37316960E-05
   6.38520002       3.42059211E-05
   6.39720011       3.41215236E-05
   6.40920019       3.34462093E-05
   6.42119980       3.21644438E-05
   6.43319988       3.02787048E-05
   6.44519997       2.78100197E-05
   6.45720005       2.47978405E-05
   6.46920013       2.12992090E-05
   6.48120022       1.73872322E-05
   6.49319983       1.31489442E-05
   6.50519991       8.68262305E-06
   6.51719999       4.09470067E-06
   6.52920008      -5.03661454E-07
   6.54120016      -5.00015221E-06
   6.55319977      -9.28493137E-06
   6.56519985      -1.32541454E-05
   6.57719994      -1.68132083E-05
   6.58920002      -1.98797370E-05
   6.60120010      -2.23860370E-05
   6.61320019      -2.42810547E-05
   6.62519979      -2.55317464E-05
   6.63719988      -2.61238256E-05
   6.64919996      -2.60618854E-05
   6.66120005      -2.53689122E-05
   6.67320013      -2.40852314E-05
   6.68520021      -2.22669369E-05
   6.69719982      -1.99838814E-05
   6.70919991      -1.73173248E-05
   6.72119999      -1.43572843E-05
   6.73320007      -1.11997406E-05
   6.74520016      -7.94372318E-06
   6.75719976      -4.68841972E-06
   6.76919985      -1.53034648E-06
   6.78119993       1.43932061E-06
   6.79320002       4.13719590E-06
   6.80520010       6.48985497E-06
   6.81720018       8.43567796E-06
   6.82919979       9.92632067E-06
   6.84119987       1.09277944E-05
   6.85319996       1.14211280E-05
   6.86520004       1.14026025E-05
   6.87720013       1.08835711E-05
   6.88920021       9.88986449E-06
   6.90119982       8.46079365E-06
   6.91319990       6.64780782E-06
   6.92519999       4.51279948E-06
   6.93720007       2.12613577E-06
   6.94920015      -4.35550845E-07
   6.96120024      -3.09175539E-06
   6.97319984      -5.76059392E-06
   6.98519993      -8.36133222E-06
   6.99720001      -1.08168706E-05
   7.00920010      -1.30560902E-05
   7.02120018      -1.50159967E-05
   7.03319979      -1.66435620E-05
   7.04519987      -1.78972296E-05
   7.05719995      -1.87479818E-05
   7.06920004      -1.91799973E-05
   7.08120012      -1.91908111E-05
   7.09320021      -1.87910337E-05
   7.10519981      -1.80036150E-05
   7.11719990      -1.68627030E-05
   7.12919998      -1.54121553E-05
   7.14120007      -1.37037778E-05
   7.15320015      -1.17953532E-05
   7.16520023      -9.74857630E-06
   7.17719984      -7.62694890E-06
   7.18919992      -5.49375909E-06
   7.20120001      -3.41019881E-06
   7.21320009      -1.43370221E-06
   7.22520018       3.83449475E-07
   7.23719978       1.99522196E-06
   7.24919987       3.36261019E-06
   7.26119995       4.45411342E-06
   7.27320004       5.24593270E-06
   7.28520012       5.72192221E-06
   7.29720020       5.87335671E-06
   7.30919981       5.69855320E-06
   7.32119989       5.20241292E-06
   7.33319998       4.39592486E-06
   7.34520006       3.29566205E-06
   7.35720015       1.92331026E-06
   7.36920023       3.05229264E-07
   7.38119984      -1.52795224E-06
   7.39319992      -3.54171448E-06
   7.40520000      -5.69802660E-06
   7.41720009      -7.95575579E-06
   7.42920017      -1.02711301E-05
   7.44119978      -1.25983042E-05
   7.45319986      -1.48900253E-05
   7.46519995      -1.70984531E-05
   7.47720003      -1.91761010E-05
   7.48920012      -2.10769194E-05
   7.50120020      -2.27574747E-05
   7.51319981      -2.41782200E-05
   7.52519989      -2.53047674E-05
   7.53719997      -2.61091154E-05
   7.54920006      -2.65707840E-05
   7.56120014      -2.66777515E-05
   7.57320023      -2.64271821E-05
   7.58519983      -2.58258478E-05
   7.59719992      -2.48902179E-05
   7.60920000      -2.36462147E-05
   7.62120008      -2.21285991E-05
   7.63320017      -2.03800064E-05
   7.64519978      -1.84496894E-05
   7.65719986      -1.63919867E-05
   7.66919994      -1.42645749E-05
   7.68120003      -1.21266066E-05
   7.69320011      -1.00367724E-05
   7.70520020      -8.05139462E-06
   7.71719980      -6.22262633E-06
   7.72919989      -4.59682951E-06
   7.74119997      -3.21319044E-06
   7.75320005      -2.10263829E-06
   7.76520014      -1.28709291E-06
   7.77720022      -7.79070604E-07
   7.78919983      -5.81639142E-07
   7.80119991      -6.88720831E-07
   7.81320000      -1.08569930E-06
   7.82520008      -1.75030073E-06
   7.83720016      -2.65369385E-06
   7.84919977      -3.76174717E-06
   7.86119986      -5.03638967E-06
   7.87319994      -6.43700696E-06
   7.88520002      -7.92182709E-06
   7.89720011      -9.44923158E-06
   7.90920019      -1.09789607E-05
   7.92119980      -1.24731687E-05
   7.93319988      -1.38973091E-05
   7.94519997      -1.52208395E-05
   7.95720005      -1.64177345E-05
   7.96920013      -1.74668276E-05
   7.98120022      -1.83519896E-05
   7.99319983      -1.90621722E-05
   8.00520039      -1.95913035E-05
   8.01720047      -1.99381302E-05
   8.02919960      -2.01059429E-05
   8.04119968      -2.01022649E-05
   8.05319977      -1.99384667E-05
   8.06519985      -1.96293477E-05
   8.07719994      -1.91926392E-05
   8.08920002      -1.86484831E-05
   8.10120010      -1.80188345E-05
   8.11320019      -1.73268018E-05
   8.12520027      -1.65959773E-05
   8.13720036      -1.58496896E-05
   8.14920044      -1.51102631E-05
   8.16119957      -1.43982897E-05
   8.17319965      -1.37319330E-05
   8.18519974      -1.31263087E-05
   8.19719982      -1.25929801E-05
   8.20919991      -1.21395842E-05
   8.22119999      -1.17696463E-05
   8.23320007      -1.14825780E-05
   8.24520016      -1.12738790E-05
   8.25720024      -1.11355621E-05
   8.26920033      -1.10567571E-05
   8.28120041      -1.10244991E-05
   8.29319954      -1.10246347E-05
   8.30519962      -1.10428064E-05
   8.31719971      -1.10654591E-05
   8.32919979      -1.10807787E-05
   8.34119987      -1.10795290E-05
   8.35319996      -1.10556985E-05
   8.36520004      -1.10069241E-05
   8.37720013      -1.09346574E-05
   8.38920021      -1.08440508E-05
   8.40120029      -1.07435890E-05
   8.41320038      -1.06444641E-05
   8.42520046      -1.05597628E-05
   8.43719959      -1.05035133E-05
   8.44919968      -1.04896617E-05
   8.46119976      -1.05310446E-05
   8.47319984      -1.06384396E-05
   8.48519993      -1.08197573E-05
   8.49720001      -1.10794217E-05
   8.50920010      -1.14179957E-05
   8.52120018      -1.18320668E-05
   8.53320026      -1.23144009E-05
   8.54520035      -1.28543488E-05
   8.55720043      -1.34384718E-05
   8.56919956      -1.40513466E-05
   8.58119965      -1.46764605E-05
   8.59319973      -1.52971552E-05
   8.60519981      -1.58975254E-05
   8.61719990      -1.64632092E-05
   8.62919998      -1.69820050E-05
   8.64120007      -1.74442885E-05
   8.65320015      -1.78431728E-05
   8.66520023      -1.81744472E-05
   8.67720032      -1.84362798E-05
   8.68920040      -1.86287634E-05
   8.70119953      -1.87533096E-05
   8.71319962      -1.88119957E-05
   8.72519970      -1.88069407E-05
   8.73719978      -1.87397382E-05
   8.74919987      -1.86110428E-05
   8.76119995      -1.84203545E-05
   8.77320004      -1.81660089E-05
   8.78520012      -1.78453993E-05
   8.79720020      -1.74554225E-05
   8.80920029      -1.69931027E-05
   8.82120037      -1.64563608E-05
   8.83320045      -1.58448402E-05
   8.84519958      -1.51607410E-05
   8.85719967      -1.44095638E-05
   8.86919975      -1.36006875E-05
   8.88119984      -1.27477215E-05
   8.89319992      -1.18685657E-05
   8.90520000      -1.09851444E-05
   8.91720009      -1.01228161E-05
   8.92920017      -9.30946044E-06
   8.94120026      -8.57428950E-06
   8.95320034      -7.94645621E-06
   8.96520042      -7.45353555E-06
   8.97719955      -7.11997563E-06
   8.98919964      -6.96562483E-06
   9.00119972      -7.00443297E-06
   9.01319981      -7.24340862E-06
   9.02519989      -7.68191512E-06
   9.03719997      -8.31134639E-06
   9.04920006      -9.11521875E-06
   9.06120014      -1.00696789E-05
   9.07320023      -1.11444051E-05
   9.08520031      -1.23038453E-05
   9.09720039      -1.35087384E-05
   9.10919952      -1.47178225E-05
   9.12119961      -1.58896328E-05
   9.13319969      -1.69842897E-05
   9.14519978      -1.79651688E-05
   9.15719986      -1.88003887E-05
   9.16919994      -1.94639997E-05
   9.18120003      -1.99368678E-05
   9.19320011      -2.02071824E-05
   9.20520020      -2.02706215E-05
   9.21720028      -2.01301518E-05
   9.22920036      -1.97955396E-05
   9.24120045      -1.92825773E-05
   9.25319958      -1.86121288E-05
   9.26519966      -1.78090431E-05
   9.27719975      -1.69009800E-05
   9.28919983      -1.59172505E-05
   9.30119991      -1.48877180E-05
   9.31320000      -1.38417963E-05
   9.32520008      -1.28075935E-05
   9.33720016      -1.18112175E-05
   9.34920025      -1.08762788E-05
   9.36120033      -1.00235447E-05
   9.37320042      -9.27076326E-06
   9.38519955      -8.63261084E-06
   9.39719963      -8.12075450E-06
   9.40919971      -7.74396085E-06
   9.42119980      -7.50826257E-06
   9.43319988      -7.41712120E-06
   9.44519997      -7.47158992E-06
