 -0.622799993       0.00000000    
 -0.610800028       0.00000000    
 -0.598800004       0.00000000    
 -0.586799979       0.00000000    
 -0.574800014       0.00000000    
 -0.562799990       0.00000000    
 -0.550800025      -3.91704229E-26
 -0.538800001      -6.16384406E-25
 -0.526799977      -4.77352040E-24
 -0.514800012      -2.45661068E-23
 -0.502799988      -9.49971672E-23
 -0.490799993      -2.94864519E-22
 -0.478799999      -7.64906645E-22
 -0.466800004      -1.70343004E-21
 -0.454800010      -3.32002368E-21
 -0.442799985      -5.75203586E-21
 -0.430799991      -8.99601891E-21
 -0.418799996      -1.29499939E-20
 -0.406800002      -1.76507046E-20
 -0.394800007      -2.36789029E-20
 -0.382800013      -3.25106861E-20
 -0.370799989      -4.64275637E-20
 -0.358799994      -6.76501586E-20
 -0.346799999      -9.67823806E-20
 -0.334800005      -1.31393957E-19
 -0.322800010      -1.66261222E-19
 -0.310799986      -1.96803962E-19
 -0.298799992      -2.26034702E-19
 -0.286799997      -2.72854159E-19
 -0.274800003      -3.76700377E-19
 -0.262800008      -5.92199022E-19
 -0.250800014      -9.69555353E-19
 -0.238800004      -1.52287270E-18
 -0.226799995      -2.19791195E-18
 -0.214800000      -2.85882512E-18
 -0.202800006      -3.31430220E-18
 -0.190799996      -3.39280308E-18
 -0.178800002      -3.05416796E-18
 -0.166800007      -2.49781889E-18
 -0.154799998      -2.20888160E-18
 -0.142800003      -2.88697159E-18
 -0.130799994      -5.23590645E-18
 -0.118799999      -9.65102475E-18
 -0.106799997      -1.59036342E-17
  -9.48000029E-02  -2.29598786E-17
  -8.28000009E-02  -2.90579483E-17
  -7.07999989E-02  -3.20956037E-17
  -5.88000007E-02  -3.02697315E-17
  -4.67999987E-02  -2.28042726E-17
  -3.48000005E-02  -1.05504207E-17
  -2.28000004E-02   3.73129842E-18
  -1.08000003E-02   1.55097060E-17
   1.20000006E-03   1.90503914E-17
   1.31999999E-02   8.38207757E-18
   2.52000000E-02  -2.13276279E-17
   3.72000001E-02  -7.19190331E-17
   4.91999984E-02  -1.39905027E-16
   6.12000003E-02  -2.13981209E-16
   7.32000023E-02  -2.73341847E-16
   8.51999968E-02  -2.88491084E-16
   9.71999988E-02  -2.26584437E-16
  0.109200001      -6.26820064E-17
  0.121200003       2.03813491E-16
  0.133200005       5.31685863E-16
  0.145199999       8.27283898E-16
  0.157199994       9.50767378E-16
  0.169200003       7.47561898E-16
  0.181199998       1.06341122E-16
  0.193200007      -9.67144443E-16
  0.205200002      -2.28489255E-15
  0.217199996      -3.45450042E-15
  0.229200006      -3.93344948E-15
  0.241200000      -3.17628207E-15
  0.253199995      -8.58124314E-16
  0.265199989       2.88370779E-15
  0.277200013       7.28386417E-15
  0.289200008       1.09635710E-14
  0.301200002       1.22008023E-14
  0.313199997       9.45666969E-15
  0.325199991       2.05283750E-15
  0.337199986      -9.21026442E-15
  0.349200010      -2.17642202E-14
  0.361200005      -3.15542473E-14
  0.373199999      -3.39970497E-14
  0.385199994      -2.54919682E-14
  0.397199988      -5.10233504E-15
  0.409200013       2.41742932E-14
  0.421200007       5.51651722E-14
  0.433200002       7.77375871E-14
  0.445199996       8.14805783E-14
  0.457199991       5.93147628E-14
  0.469199985       1.09836694E-14
  0.481200010      -5.48810976E-14
  0.493200004      -1.21272025E-13
  0.505200028      -1.66417268E-13
  0.517199993      -1.70021481E-13
  0.529200017      -1.20588178E-13
  0.541199982      -2.14937423E-14
  0.553200006       1.06639713E-13
  0.565199971       2.28982903E-13
  0.577199996       3.05121759E-13
  0.589200020       3.01482905E-13
  0.601199985       2.04036915E-13
  0.613200009       2.68968706E-14
  0.625199974      -1.87031461E-13
  0.637199998      -3.75165936E-13
  0.649200022      -4.72857268E-13
  0.661199987      -4.34966326E-13
  0.673200011      -2.54612873E-13
  0.685199976       2.79893025E-14
  0.697200000       3.31512161E-13
  0.709200025       5.54883613E-13
  0.721199989       6.09297552E-13
  0.733200014       4.51508460E-13
  0.745199978       1.06940654E-13
  0.757200003      -3.27304454E-13
  0.769200027      -7.04142907E-13
  0.781199992      -8.69668866E-13
  0.793200016      -7.16511648E-13
  0.805199981      -2.30667807E-13
  0.817200005       4.85464099E-13
  0.829200029       1.22581632E-12
  0.841199994       1.73087412E-12
  0.853200018       1.76471186E-12
  0.865199983       1.19751247E-12
  0.877200007       6.72365402E-14
  0.889199972      -1.40280463E-12
  0.901199996      -2.84247127E-12
  0.913200021      -3.82473870E-12
  0.925199986      -3.98518675E-12
  0.937200010      -3.13710689E-12
  0.949199975      -1.34598257E-12
  0.961199999       1.06365296E-12
  0.973200023       3.57700913E-12
  0.985199988       5.61818344E-12
  0.997200012       6.70393558E-12
   1.00919998       6.57597501E-12
   1.02119994       5.26955389E-12
   1.03320003       3.09430519E-12
   1.04519999       5.30727805E-13
   1.05719995      -1.92601620E-12
   1.06920004      -3.92376322E-12
   1.08120000      -5.35768869E-12
   1.09319997      -6.38152465E-12
   1.10520005      -7.31558911E-12
   1.11720002      -8.47711831E-12
   1.12919998      -9.98793583E-12
   1.14119995      -1.16273553E-11
   1.15320003      -1.27886052E-11
   1.16520000      -1.25665520E-11
   1.17719996      -9.96170767E-12
   1.18920004      -4.14479388E-12
   1.20120001       5.29920335E-12
   1.21319997       1.82265574E-11
   1.22520006       3.39390530E-11
   1.23720002       5.13341557E-11
   1.24919999       6.91376262E-11
   1.26119995       8.61075586E-11
   1.27320004       1.01075447E-10
   1.28520000       1.12698149E-10
   1.29719996       1.18836732E-10
   1.30920005       1.15536372E-10
   1.32120001       9.56351942E-11
   1.33319998       4.70692547E-11
   1.34519994      -4.90669380E-11
   1.35720003      -2.20689439E-10
   1.36919999      -5.07201336E-10
   1.38119996      -9.62491975E-10
   1.39320004      -1.65882463E-09
   1.40520000      -2.69213696E-09
   1.41719997      -4.18957180E-09
   1.42920005      -6.32021235E-09
   1.44120002      -9.31037292E-09
   1.45319998      -1.34652041E-08
   1.46519995      -1.91986924E-08
   1.47720003      -2.70747442E-08
   1.48920000      -3.78621827E-08
   1.50119996      -5.26070423E-08
   1.51320004      -7.27253280E-08
   1.52520001      -1.00119060E-07
   1.53719997      -1.37318153E-07
   1.54920006      -1.87648737E-07
   1.56120002      -2.55427693E-07
   1.57319999      -3.46180911E-07
   1.58519995      -4.66879015E-07
   1.59720004      -6.26184203E-07
   1.60920000      -8.34696152E-07
   1.62119997      -1.10518226E-06
   1.63320005      -1.45277920E-06
   1.64520001      -1.89513764E-06
   1.65719998      -2.45250135E-06
   1.66919994      -3.14768590E-06
   1.68120003      -4.00593899E-06
   1.69319999      -5.05466460E-06
   1.70519996      -6.32298588E-06
   1.71720004      -7.84114218E-06
   1.72920001      -9.63970888E-06
   1.74119997      -1.17486379E-05
   1.75320005      -1.41961491E-05
   1.76520002      -1.70074800E-05
   1.77719998      -2.02035408E-05
   1.78919995      -2.37995046E-05
   1.80120003      -2.78034204E-05
   1.81320000      -3.22148771E-05
   1.82519996      -3.70238231E-05
   1.83720005      -4.22096055E-05
   1.84920001      -4.77402682E-05
   1.86119998      -5.35722247E-05
   1.87320006      -5.96503160E-05
   1.88520002      -6.59083453E-05
   1.89719999      -7.22700570E-05
   1.90919995      -7.86505698E-05
   1.92120004      -8.49583230E-05
   1.93320000      -9.10973540E-05
   1.94519997      -9.69699613E-05
   1.95720005      -1.02479593E-04
   1.96920002      -1.07533851E-04
   1.98119998      -1.12047521E-04
   1.99319994      -1.15945462E-04
   2.00519991      -1.19165234E-04
   2.01719999      -1.21659359E-04
   2.02920008      -1.23397054E-04
   2.04119992      -1.24365397E-04
   2.05320001      -1.24569822E-04
   2.06520009      -1.24033890E-04
   2.07719994      -1.22798461E-04
   2.08920002      -1.20920085E-04
   2.10120010      -1.18468961E-04
   2.11319995      -1.15526273E-04
   2.12520003      -1.12181231E-04
   2.13720012      -1.08527922E-04
   2.14919996      -1.04662009E-04
   2.16120005      -1.00677629E-04
   2.17319989      -9.66644002E-05
   2.18519998      -9.27048750E-05
   2.19720006      -8.88724098E-05
   2.20919991      -8.52295270E-05
   2.22119999      -8.18269327E-05
   2.23320007      -7.87030731E-05
   2.24519992      -7.58841779E-05
   2.25720000      -7.33848792E-05
   2.26920009      -7.12092224E-05
   2.28119993      -6.93520051E-05
   2.29320002      -6.78002689E-05
   2.30520010      -6.65349799E-05
   2.31719995      -6.55327094E-05
   2.32920003      -6.47671986E-05
   2.34120011      -6.42108207E-05
   2.35319996      -6.38358688E-05
   2.36520004      -6.36155601E-05
   2.37719989      -6.35249453E-05
   2.38919997      -6.35414253E-05
   2.40120006      -6.36452387E-05
   2.41319990      -6.38196580E-05
   2.42519999      -6.40510843E-05
   2.43720007      -6.43290477E-05
   2.44919991      -6.46460539E-05
   2.46120000      -6.49973954E-05
   2.47320008      -6.53808602E-05
   2.48519993      -6.57964410E-05
   2.49720001      -6.62458697E-05
   2.50920010      -6.67321874E-05
   2.52119994      -6.72592287E-05
   2.53320003      -6.78310025E-05
   2.54520011      -6.84511688E-05
   2.55719995      -6.91223831E-05
   2.56920004      -6.98457879E-05
   2.58119988      -7.06205246E-05
   2.59319997      -7.14433554E-05
   2.60520005      -7.23085395E-05
   2.61719990      -7.32077824E-05
   2.62919998      -7.41304830E-05
   2.64120007      -7.50641484E-05
   2.65319991      -7.59950199E-05
   2.66520000      -7.69088874E-05
   2.67720008      -7.77919340E-05
   2.68919992      -7.86317687E-05
   2.70120001      -7.94182997E-05
   2.71320009      -8.01445858E-05
   2.72519994      -8.08074983E-05
   2.73720002      -8.14082232E-05
   2.74920011      -8.19524284E-05
   2.76119995      -8.24501694E-05
   2.77320004      -8.29155397E-05
   2.78520012      -8.33660306E-05
   2.79719996      -8.38217311E-05
   2.80920005      -8.43042944E-05
   2.82119989      -8.48359414E-05
   2.83319998      -8.54382743E-05
   2.84520006      -8.61313529E-05
   2.85719991      -8.69327559E-05
   2.86919999      -8.78568680E-05
   2.88120008      -8.89143412E-05
   2.89319992      -9.01118037E-05
   2.90520000      -9.14516859E-05
   2.91720009      -9.29323069E-05
   2.92919993      -9.45479696E-05
   2.94120002      -9.62892154E-05
   2.95320010      -9.81431440E-05
   2.96519995      -1.00093654E-04
   2.97720003      -1.02121725E-04
   2.98920012      -1.04205625E-04
   3.00119996      -1.06321175E-04
   3.01320004      -1.08441884E-04
   3.02519989      -1.10539113E-04
   3.03719997      -1.12582318E-04
   3.04920006      -1.14539340E-04
   3.06119990      -1.16376701E-04
   3.07319999      -1.18060110E-04
   3.08520007      -1.19555065E-04
   3.09719992      -1.20827506E-04
   3.10920000      -1.21844634E-04
   3.12120008      -1.22575831E-04
   3.13319993      -1.22993588E-04
   3.14520001      -1.23074424E-04
   3.15720010      -1.22799785E-04
   3.16919994      -1.22156736E-04
   3.18120003      -1.21138677E-04
   3.19320011      -1.19745644E-04
   3.20519996      -1.17984564E-04
   3.21720004      -1.15869218E-04
   3.22919989      -1.13419948E-04
   3.24119997      -1.10663183E-04
   3.25320005      -1.07630804E-04
   3.26519990      -1.04359373E-04
   3.27719998      -1.00889258E-04
   3.28920007      -9.72638009E-05
   3.30119991      -9.35283970E-05
   3.31320000      -8.97297432E-05
   3.32520008      -8.59151114E-05
   3.33719993      -8.21317444E-05
   3.34920001      -7.84263830E-05
   3.36120009      -7.48448947E-05
   3.37319994      -7.14318958E-05
   3.38520002      -6.82305763E-05
   3.39720011      -6.52823437E-05
   3.40919995      -6.26265028E-05
   3.42120004      -6.02998880E-05
   3.43319988      -5.83362817E-05
   3.44519997      -5.67657808E-05
   3.45720005      -5.56139530E-05
   3.46919990      -5.49009346E-05
   3.48119998      -5.46404117E-05
   3.49320006      -5.48385760E-05
   3.50519991      -5.54931212E-05
   3.51719999      -5.65923801E-05
   3.52920008      -5.81146451E-05
   3.54119992      -6.00277963E-05
   3.55320001      -6.22892840E-05
   3.56520009      -6.48465284E-05
   3.57719994      -6.76377967E-05
   3.58920002      -7.05934508E-05
   3.60120010      -7.36377478E-05
   3.61319995      -7.66909507E-05
   3.62520003      -7.96716704E-05
   3.63720012      -8.24995732E-05
   3.64919996      -8.50979995E-05
   3.66120005      -8.73965619E-05
   3.67319989      -8.93336110E-05
   3.68519998      -9.08583170E-05
   3.69720006      -9.19324084E-05
   3.70919991      -9.25313288E-05
   3.72119999      -9.26449284E-05
   3.73320007      -9.22775289E-05
   3.74519992      -9.14474731E-05
   3.75720000      -9.01861058E-05
   3.76920009      -8.85363625E-05
   3.78119993      -8.65508773E-05
   3.79320002      -8.42899244E-05
   3.80520010      -8.18191111E-05
   3.81719995      -7.92070059E-05
   3.82920003      -7.65228324E-05
   3.84120011      -7.38341550E-05
   3.85319996      -7.12048786E-05
   3.86520004      -6.86932908E-05
   3.87719989      -6.63504979E-05
   3.88919997      -6.42190425E-05
   3.90120006      -6.23318119E-05
   3.91319990      -6.07112524E-05
   3.92519999      -5.93688274E-05
   3.93720007      -5.83048168E-05
   3.94919991      -5.75083068E-05
   3.96120000      -5.69576077E-05
   3.97320008      -5.66208619E-05
   3.98519993      -5.64570182E-05
   3.99720001      -5.64171460E-05
   4.00920010      -5.64460279E-05
   4.02120018      -5.64841066E-05
   4.03319979      -5.64696493E-05
   4.04519987      -5.63411850E-05
   4.05719995      -5.60400622E-05
   4.06920004      -5.55130537E-05
   4.08120012      -5.47149393E-05
   4.09320021      -5.36108419E-05
   4.10519981      -5.21783004E-05
   4.11719990      -5.04088457E-05
   4.12919998      -4.83090589E-05
   4.14120007      -4.59009098E-05
   4.15320015      -4.32214438E-05
   4.16520023      -4.03216800E-05
   4.17719984      -3.72648028E-05
   4.18919992      -3.41236992E-05
   4.20120001      -3.09779352E-05
   4.21320009      -2.79103297E-05
   4.22520018      -2.50032663E-05
   4.23719978      -2.23349671E-05
   4.24919987      -1.99759124E-05
   4.26119995      -1.79855651E-05
   4.27320004      -1.64096255E-05
   4.28520012      -1.52779212E-05
   4.29720020      -1.46030707E-05
   4.30919981      -1.43799534E-05
   4.32119989      -1.45860367E-05
   4.33319998      -1.51825107E-05
   4.34520006      -1.61161825E-05
   4.35720015      -1.73219869E-05
   4.36920023      -1.87259884E-05
   4.38119984      -2.02487317E-05
   4.39319992      -2.18087007E-05
   4.40520000      -2.33257833E-05
   4.41720009      -2.47245134E-05
   4.42920017      -2.59369626E-05
   4.44119978      -2.69051652E-05
   4.45319986      -2.75829752E-05
   4.46519995      -2.79372980E-05
   4.47720003      -2.79486885E-05
   4.48920012      -2.76113042E-05
   4.50120020      -2.69322991E-05
   4.51319981      -2.59306944E-05
   4.52519989      -2.46358504E-05
   4.53719997      -2.30856276E-05
   4.54920006      -2.13243475E-05
   4.56120014      -1.94006770E-05
   4.57320023      -1.73655626E-05
   4.58519983      -1.52702687E-05
   4.59719992      -1.31646275E-05
   4.60920000      -1.10955762E-05
   4.62120008      -9.10598555E-06
   4.63320017      -7.23381254E-06
   4.64519978      -5.51158064E-06
   4.65719986      -3.96614132E-06
   4.66919994      -2.61868581E-06
   4.68120003      -1.48494541E-06
   4.69320011      -5.75518925E-07
   4.70520020       1.03733953E-07
   4.71719980       5.51294931E-07
   4.72919989       7.69630333E-07
   4.74119997       7.64906247E-07
   4.75320005       5.46796343E-07
   4.76520014       1.28374950E-07
   4.77720022      -4.73923052E-07
   4.78919983      -1.24031226E-06
   4.80119991      -2.14767351E-06
   4.81320000      -3.16964906E-06
   4.82520008      -4.27684427E-06
   4.83720016      -5.43720171E-06
   4.84919977      -6.61657305E-06
   4.86119986      -7.77950754E-06
   4.87319994      -8.89026160E-06
   4.88520002      -9.91401612E-06
   4.89720011      -1.08182285E-05
   4.90920019      -1.15740831E-05
   4.92119980      -1.21579524E-05
   4.93319988      -1.25527540E-05
   4.94519997      -1.27491294E-05
   4.95720005      -1.27463354E-05
   4.96920013      -1.25527558E-05
   4.98120022      -1.21859739E-05
   4.99319983      -1.16723631E-05
   5.00519991      -1.10461660E-05
   5.01719999      -1.03481079E-05
   5.02920008      -9.62356899E-06
   5.04120016      -8.92043317E-06
   5.05319977      -8.28670272E-06
   5.06519985      -7.76801789E-06
   5.07719994      -7.40523137E-06
   5.08920002      -7.23218136E-06
   5.10120010      -7.27379393E-06
   5.11320019      -7.54463963E-06
   5.12519979      -8.04804131E-06
   5.13719988      -8.77577622E-06
   5.14919996      -9.70841484E-06
   5.16120005      -1.08162585E-05
   5.17320013      -1.20608474E-05
   5.18520021      -1.33969224E-05
   5.19719982      -1.47747478E-05
   5.20919991      -1.61426524E-05
   5.22119999      -1.74496163E-05
   5.23320007      -1.86478046E-05
   5.24520016      -1.96948367E-05
   5.25719976      -2.05557371E-05
   5.26919985      -2.12044197E-05
   5.28119993      -2.16246481E-05
   5.29320002      -2.18104651E-05
   5.30520010      -2.17660836E-05
   5.31720018      -2.15052496E-05
   5.32919979      -2.10502349E-05
   5.34119987      -2.04304670E-05
   5.35319996      -1.96809651E-05
   5.36520004      -1.88406684E-05
   5.37720013      -1.79507733E-05
   5.38920021      -1.70531985E-05
   5.40119982      -1.61891967E-05
   5.41319990      -1.53982328E-05
   5.42519999      -1.47170704E-05
   5.43720007      -1.41791479E-05
   5.44920015      -1.38141222E-05
   5.46120024      -1.36476147E-05
   5.47319984      -1.37010538E-05
   5.48519993      -1.39915555E-05
   5.49720001      -1.45318054E-05
   5.50920010      -1.53298679E-05
   5.52120018      -1.63889235E-05
   5.53319979      -1.77069014E-05
   5.54519987      -1.92760563E-05
   5.55719995      -2.10824892E-05
   5.56920004      -2.31057384E-05
   5.58120012      -2.53184517E-05
   5.59320021      -2.76862793E-05
   5.60519981      -3.01680193E-05
   5.61719990      -3.27161288E-05
   5.62919998      -3.52776187E-05
   5.64120007      -3.77953220E-05
   5.65320015      -4.02096121E-05
   5.66520023      -4.24604041E-05
   5.67719984      -4.44894395E-05
   5.68919992      -4.62427088E-05
   5.70120001      -4.76729001E-05
   5.71320009      -4.87416874E-05
   5.72520018      -4.94217602E-05
   5.73719978      -4.96984358E-05
   5.74919987      -4.95707463E-05
   5.76119995      -4.90518723E-05
   5.77320004      -4.81689494E-05
   5.78520012      -4.69621409E-05
   5.79720020      -4.54831170E-05
   5.80919981      -4.37929230E-05
   5.82119989      -4.19594035E-05
   5.83319998      -4.00543177E-05
   5.84520006      -3.81502541E-05
   5.85720015      -3.63175968E-05
   5.86920023      -3.46216293E-05
   5.88119984      -3.31199808E-05
   5.89319992      -3.18604943E-05
   5.90520000      -3.08796516E-05
   5.91720009      -3.02016069E-05
   5.92920017      -2.98378382E-05
   5.94119978      -2.97873867E-05
   5.95319986      -3.00376851E-05
   5.96519995      -3.05658323E-05
   5.97720003      -3.13402561E-05
   5.98920012      -3.23226159E-05
   6.00120020      -3.34698525E-05
   6.01319981      -3.47362184E-05
   6.02519989      -3.60752492E-05
   6.03719997      -3.74415249E-05
   6.04920006      -3.87921718E-05
   6.06120014      -4.00880854E-05
   6.07320023      -4.12948175E-05
   6.08519983      -4.23831480E-05
   6.09719992      -4.33293499E-05
   6.10920000      -4.41152115E-05
   6.12120008      -4.47278398E-05
   6.13320017      -4.51592932E-05
   6.14519978      -4.54061410E-05
   6.15719986      -4.54689798E-05
   6.16919994      -4.53519569E-05
   6.18120003      -4.50623156E-05
   6.19320011      -4.46100348E-05
   6.20520020      -4.40075382E-05
   6.21719980      -4.32694469E-05
   6.22919989      -4.24124155E-05
   6.24119997      -4.14549941E-05
   6.25320005      -4.04174680E-05
   6.26520014      -3.93217269E-05
   6.27720022      -3.81910068E-05
   6.28919983      -3.70496346E-05
   6.30119991      -3.59226142E-05
   6.31320000      -3.48351823E-05
   6.32520008      -3.38122154E-05
   6.33720016      -3.28776041E-05
   6.34919977      -3.20535219E-05
   6.36119986      -3.13597193E-05
   6.37319994      -3.08127965E-05
   6.38520002      -3.04255555E-05
   6.39720011      -3.02064254E-05
   6.40920019      -3.01590517E-05
   6.42119980      -3.02820627E-05
   6.43319988      -3.05690119E-05
   6.44519997      -3.10085597E-05
   6.45720005      -3.15848483E-05
   6.46920013      -3.22780797E-05
   6.48120022      -3.30652474E-05
   6.49319983      -3.39210419E-05
   6.50519991      -3.48187787E-05
   6.51719999      -3.57314384E-05
   6.52920008      -3.66326421E-05
   6.54120016      -3.74976007E-05
   6.55319977      -3.83039624E-05
   6.56519985      -3.90324967E-05
   6.57719994      -3.96676369E-05
   6.58920002      -4.01978286E-05
   6.60120010      -4.06156869E-05
   6.61320019      -4.09179265E-05
   6.62519979      -4.11051951E-05
   6.63719988      -4.11816873E-05
   6.64919996      -4.11546862E-05
   6.66120005      -4.10339962E-05
   6.67320013      -4.08313535E-05
   6.68520021      -4.05598148E-05
   6.69719982      -4.02331461E-05
   6.70919991      -3.98653028E-05
   6.72119999      -3.94699309E-05
   6.73320007      -3.90599707E-05
   6.74520016      -3.86473548E-05
   6.75719976      -3.82427716E-05
   6.76919985      -3.78555487E-05
   6.78119993      -3.74936026E-05
   6.79320002      -3.71634633E-05
   6.80520010      -3.68703513E-05
   6.81720018      -3.66182794E-05
   6.82919979      -3.64101943E-05
   6.84119987      -3.62480823E-05
   6.85319996      -3.61330713E-05
   6.86520004      -3.60655140E-05
   6.87720013      -3.60449849E-05
   6.88920021      -3.60703089E-05
   6.90119982      -3.61394741E-05
   6.91319990      -3.62495703E-05
   6.92519999      -3.63966719E-05
   6.93720007      -3.65757405E-05
   6.94920015      -3.67805114E-05
   6.96120024      -3.70034322E-05
   6.97319984      -3.72356444E-05
   6.98519993      -3.74670453E-05
   6.99720001      -3.76864300E-05
   7.00920010      -3.78817203E-05
   7.02120018      -3.80402998E-05
   7.03319979      -3.81494392E-05
   7.04519987      -3.81967875E-05
   7.05719995      -3.81709360E-05
   7.06920004      -3.80619713E-05
   7.08120012      -3.78620716E-05
   7.09320021      -3.75660456E-05
   7.10519981      -3.71717942E-05
   7.11719990      -3.66806926E-05
   7.12919998      -3.60978484E-05
   7.14120007      -3.54322037E-05
   7.15320015      -3.46965098E-05
   7.16520023      -3.39071230E-05
   7.17719984      -3.30836338E-05
   7.18919992      -3.22483902E-05
   7.20120001      -3.14258396E-05
   7.21320009      -3.06418187E-05
   7.22520018      -2.99227322E-05
   7.23719978      -2.92946934E-05
   7.24919987      -2.87826697E-05
   7.26119995      -2.84096132E-05
   7.27320004      -2.81956800E-05
   7.28520012      -2.81574812E-05
   7.29720020      -2.83074860E-05
   7.30919981      -2.86534960E-05
   7.32119989      -2.91982997E-05
   7.33319998      -2.99394706E-05
   7.34520006      -3.08693088E-05
   7.35720015      -3.19749633E-05
   7.36920023      -3.32387135E-05
   7.38119984      -3.46383640E-05
   7.39319992      -3.61478269E-05
   7.40520000      -3.77377692E-05
   7.41720009      -3.93764058E-05
   7.42920017      -4.10303182E-05
   7.44119978      -4.26653714E-05
   7.45319986      -4.42476266E-05
   7.46519995      -4.57442766E-05
   7.47720003      -4.71245476E-05
   7.48920012      -4.83605072E-05
   7.50120020      -4.94278065E-05
   7.51319981      -5.03062583E-05
   7.52519989      -5.09802849E-05
   7.53719997      -5.14391904E-05
   7.54920006      -5.16772816E-05
   7.56120014      -5.16937580E-05
   7.57320023      -5.14925159E-05
   7.58519983      -5.10817554E-05
   7.59719992      -5.04735362E-05
   7.60920000      -4.96832072E-05
   7.62120008      -4.87287762E-05
   7.63320017      -4.76303248E-05
   7.64519978      -4.64093791E-05
   7.65719986      -4.50883308E-05
   7.66919994      -4.36899900E-05
   7.68120003      -4.22371486E-05
   7.69320011      -4.07523075E-05
   7.70520020      -3.92574912E-05
   7.71719980      -3.77741490E-05
   7.72919989      -3.63231411E-05
   7.74119997      -3.49247566E-05
   7.75320005      -3.35987388E-05
   7.76520014      -3.23643035E-05
   7.77720022      -3.12400807E-05
   7.78919983      -3.02439930E-05
   7.80119991      -2.93930625E-05
   7.81320000      -2.87030853E-05
   7.82520008      -2.81882767E-05
   7.83720016      -2.78608113E-05
   7.84919977      -2.77303443E-05
   7.86119986      -2.78035095E-05
   7.87319994      -2.80834338E-05
   7.88520002      -2.85692950E-05
   7.89720011      -2.92559980E-05
   7.90920019      -3.01339187E-05
   7.92119980      -3.11888361E-05
   7.93319988      -3.24020220E-05
   7.94519997      -3.37505007E-05
   7.95720005      -3.52074858E-05
   7.96920013      -3.67429893E-05
   7.98120022      -3.83245570E-05
   7.99319983      -3.99181408E-05
   8.00520039      -4.14889873E-05
   8.01720047      -4.30025939E-05
   8.02919960      -4.44256402E-05
   8.04119968      -4.57268361E-05
   8.05319977      -4.68777253E-05
   8.06519985      -4.78533366E-05
   8.07719994      -4.86327226E-05
   8.08920002      -4.91993233E-05
   8.10120010      -4.95412096E-05
   8.11320019      -4.96511639E-05
   8.12520027      -4.95266286E-05
   8.13720036      -4.91695137E-05
   8.14920044      -4.85859709E-05
   8.16119957      -4.77860231E-05
   8.17319965      -4.67832178E-05
   8.18519974      -4.55942391E-05
   8.19719982      -4.42385244E-05
   8.20919991      -4.27379528E-05
   8.22119999      -4.11165165E-05
   8.23320007      -3.94000563E-05
   8.24520016      -3.76160751E-05
   8.25720024      -3.57934914E-05
   8.26920033      -3.39624603E-05
   8.28120041      -3.21541338E-05
   8.29319954      -3.04004097E-05
   8.30519962      -2.87335733E-05
   8.31719971      -2.71858880E-05
   8.32919979      -2.57890897E-05
   8.34119987      -2.45737883E-05
   8.35319996      -2.35688167E-05
   8.36520004      -2.28004774E-05
   8.37720013      -2.22918097E-05
   8.38920021      -2.20618167E-05
   8.40120029      -2.21247556E-05
   8.41320038      -2.24894920E-05
   8.42520046      -2.31589784E-05
   8.43719959      -2.41298803E-05
   8.44919968      -2.53923881E-05
   8.46119976      -2.69302491E-05
   8.47319984      -2.87210023E-05
   8.48519993      -3.07364535E-05
   8.49720001      -3.29433497E-05
   8.50920010      -3.53042451E-05
   8.52120018      -3.77785072E-05
   8.53320026      -4.03234335E-05
   8.54520035      -4.28953936E-05
   8.55720043      -4.54510300E-05
   8.56919956      -4.79483606E-05
   8.58119965      -5.03478150E-05
   8.59319973      -5.26131371E-05
   8.60519981      -5.47121526E-05
   8.61719990      -5.66173476E-05
   8.62919998      -5.83062538E-05
   8.64120007      -5.97616745E-05
   8.65320015      -6.09717063E-05
   8.66520023      -6.19295897E-05
   8.67720032      -6.26335022E-05
   8.68920040      -6.30861250E-05
   8.70119953      -6.32942392E-05
   8.71319962      -6.32682058E-05
   8.72519970      -6.30214709E-05
   8.73719978      -6.25700704E-05
   8.74919987      -6.19321363E-05
   8.76119995      -6.11274736E-05
   8.77320004      -6.01771426E-05
   8.78520012      -5.91031057E-05
   8.79720020      -5.79279222E-05
   8.80920029      -5.66744420E-05
   8.82120037      -5.53655882E-05
   8.83320045      -5.40240944E-05
   8.84519958      -5.26723270E-05
   8.85719967      -5.13320520E-05
   8.86919975      -5.00242386E-05
   8.88119984      -4.87688521E-05
   8.89319992      -4.75845882E-05
   8.90520000      -4.64886471E-05
   8.91720009      -4.54964502E-05
   8.92920017      -4.46213562E-05
   8.94120026      -4.38743809E-05
   8.95320034      -4.32639426E-05
   8.96520042      -4.27956074E-05
   8.97719955      -4.24718892E-05
   8.98919964      -4.22921221E-05
   9.00119972      -4.22523699E-05
   9.01319981      -4.23454003E-05
   9.02519989      -4.25607759E-05
   9.03719997      -4.28849962E-05
   9.04920006      -4.33017376E-05
   9.06120014      -4.37921954E-05
   9.07320023      -4.43355129E-05
   9.08520031      -4.49092731E-05
   9.09720039      -4.54901237E-05
   9.10919952      -4.60544070E-05
   9.12119961      -4.65788653E-05
   9.13319969      -4.70413652E-05
   9.14519978      -4.74215994E-05
   9.15719986      -4.77017456E-05
   9.16919994      -4.78670736E-05
   9.18120003      -4.79064074E-05
   9.19320011      -4.78125185E-05
   9.20520020      -4.75823326E-05
   9.21720028      -4.72170104E-05
   9.22920036      -4.67218233E-05
   9.24120045      -4.61059426E-05
   9.25319958      -4.53820139E-05
   9.26519966      -4.45656297E-05
   9.27719975      -4.36746814E-05
   9.28919983      -4.27286359E-05
   9.30119991      -4.17477568E-05
   9.31320000      -4.07523112E-05
   9.32520008      -3.97618096E-05
   9.33720016      -3.87943292E-05
   9.34920025      -3.78659315E-05
   9.36120033      -3.69902154E-05
   9.37320042      -3.61780440E-05
   9.38519955      -3.54374461E-05
   9.39719963      -3.47736641E-05
   9.40919971      -3.41893829E-05
   9.42119980      -3.36850862E-05
   9.43319988      -3.32595118E-05
   9.44519997      -3.29101749E-05
