 -0.622799993       0.00000000    
 -0.610800028       0.00000000    
 -0.598800004       0.00000000    
 -0.586799979       0.00000000    
 -0.574800014       0.00000000    
 -0.562799990       0.00000000    
 -0.550800025       0.00000000    
 -0.538800001       0.00000000    
 -0.526799977       0.00000000    
 -0.514800012       0.00000000    
 -0.502799988       0.00000000    
 -0.490799993       0.00000000    
 -0.478799999       0.00000000    
 -0.466800004      -0.00000000    
 -0.454800010      -0.00000000    
 -0.442799985       0.00000000    
 -0.430799991       0.00000000    
 -0.418799996      -0.00000000    
 -0.406800002      -1.88923956E-37
 -0.394800007      -1.38669985E-36
 -0.382800013      -6.89342919E-36
 -0.370799989      -2.39312527E-35
 -0.358799994      -6.04890854E-35
 -0.346799999      -9.62816428E-35
 -0.334800005       1.55112061E-35
 -0.322800010       7.66477556E-34
 -0.310799986       3.28490721E-33
 -0.298799992       9.28280469E-33
 -0.286799997       1.94122180E-32
 -0.274800003       2.76294364E-32
 -0.262800008       8.76497738E-33
 -0.250800014      -1.00323929E-31
 -0.238800004      -4.14267249E-31
 -0.226799995      -1.07203552E-30
 -0.214800000      -2.10142298E-30
 -0.202800006      -3.08842784E-30
 -0.190799996      -2.61086812E-30
 -0.178800002       2.41515809E-30
 -0.166800007       1.69288926E-29
 -0.154799998       4.63411124E-29
 -0.142800003       9.19892151E-29
 -0.130799994       1.42114744E-28
 -0.118799999       1.58983567E-28
 -0.106799997       6.72181509E-29
  -9.48000029E-02  -2.44746022E-28
  -8.28000009E-02  -8.91246134E-28
  -7.07999989E-02  -1.90372108E-27
  -5.88000007E-02  -3.08491761E-27
  -4.67999987E-02  -3.82989581E-27
  -3.48000005E-02  -2.99991091E-27
  -2.28000004E-02   9.94590186E-28
  -1.08000003E-02   9.70104780E-27
   1.20000006E-03   2.35616775E-26
   1.31999999E-02   4.03119601E-26
   2.52000000E-02   5.32521540E-26
   3.72000001E-02   5.03216035E-26
   4.91999984E-02   1.53795444E-26
   6.12000003E-02  -6.68072003E-26
   7.32000023E-02  -2.01063586E-25
   8.51999968E-02  -3.68793311E-25
   9.71999988E-02  -5.15333543E-25
  0.109200001      -5.44830728E-25
  0.121200003      -3.31990091E-25
  0.133200005       2.40876237E-25
  0.145199999       1.21914252E-24
  0.157199994       2.49318010E-24
  0.169200003       3.72375637E-24
  0.181199998       4.31737657E-24
  0.193200007       3.50043182E-24
  0.205200002       5.29816684E-25
  0.217199996      -4.95860847E-24
  0.229200006      -1.25234169E-23
  0.241200000      -2.05461631E-23
  0.253199995      -2.61094011E-23
  0.265199989      -2.53326066E-23
  0.277200013      -1.43082218E-23
  0.289200008       9.38319991E-24
  0.301200002       4.48450890E-23
  0.313199997       8.62607977E-23
  0.325199991       1.22248033E-22
  0.337199986       1.36919836E-22
  0.349200010       1.13134026E-22
  0.361200005       3.78414841E-23
  0.373199999      -9.13556149E-23
  0.385199994      -2.60154058E-22
  0.397199988      -4.34298650E-22
  0.409200013      -5.61434957E-22
  0.421200007      -5.79602890E-22
  0.433200002      -4.32346667E-22
  0.445199996      -8.82940331E-23
  0.457199991       4.39119562E-22
  0.469199985       1.07765640E-21
  0.481200010       1.69417111E-21
  0.493200004       2.10909751E-21
  0.505200028       2.12900275E-21
  0.517199993       1.59411931E-21
  0.529200017       4.32822003E-22
  0.541199982      -1.28923247E-21
  0.553200006      -3.33964963E-21
  0.565199971      -5.32308940E-21
  0.577199996      -6.72742236E-21
  0.589200020      -7.01350932E-21
  0.601199985      -5.73945084E-21
  0.613200009      -2.69893423E-21
  0.625199974       1.95674986E-21
  0.637199998       7.64874606E-21
  0.649200022       1.33866233E-20
  0.661199987       1.78922495E-20
  0.673200011       1.98310510E-20
  0.685199976       1.81195432E-20
  0.697200000       1.22456642E-20
  0.709200025       2.51453556E-21
  0.721199989      -9.87094739E-21
  0.733200014      -2.29582477E-20
  0.745199978      -3.44264590E-20
  0.757200003      -4.21219173E-20
  0.769200027      -4.45888801E-20
  0.781199992      -4.13901662E-20
  0.793200016      -3.30395388E-20
  0.805199981      -2.04835721E-20
  0.817200005      -4.26754151E-21
  0.829200029       1.62556500E-20
  0.841199994       4.31583326E-20
  0.853200018       7.91092920E-20
  0.865199983       1.25247113E-19
  0.877200007       1.78046775E-19
  0.889199972       2.26155522E-19
  0.901199996       2.48784883E-19
  0.913200021       2.17482973E-19
  0.925199986       1.02666498E-19
  0.937200010      -1.14974538E-19
  0.949199975      -4.30072552E-19
  0.961199999      -7.99279449E-19
  0.973200023      -1.13486564E-18
  0.985199988      -1.31128693E-18
  0.997200012      -1.18883576E-18
   1.00919998      -6.54124761E-19
   1.02119994       3.29074859E-19
   1.03320003       1.67167391E-18
   1.04519999       3.13146819E-18
   1.05719995       4.32371483E-18
   1.06920004       4.78228888E-18
   1.08120000       4.07144501E-18
   1.09319997       1.93145391E-18
   1.10520005      -1.57584069E-18
   1.11720002      -5.96750510E-18
   1.12919998      -1.03331601E-17
   1.14119995      -1.34551275E-17
   1.15320003      -1.40594946E-17
   1.16520000      -1.11632639E-17
   1.17719996      -4.44254057E-18
   1.18920004       5.48182725E-18
   1.20120001       1.69488712E-17
   1.21319997       2.74325219E-17
   1.22520006       3.40069898E-17
   1.23720002       3.40409836E-17
   1.24919999       2.59758353E-17
   1.26119995       9.98338674E-18
   1.27320004      -1.17124647E-17
   1.28520000      -3.50145653E-17
   1.29719996      -5.46836662E-17
   1.30920005      -6.55207844E-17
   1.32120001      -6.37463232E-17
   1.33319998      -4.82135190E-17
   1.34519994      -2.10753113E-17
   1.35720003       1.23806852E-17
   1.36919999       4.48148490E-17
   1.38119996       6.86561298E-17
   1.39320004       7.82243199E-17
   1.40520000       7.15506730E-17
   1.41719997       5.12869979E-17
   1.42920005       2.42789322E-17
   1.44120002      -2.65684364E-19
   1.45319998      -1.36425699E-17
   1.46519995      -1.07798053E-17
   1.47720003       7.36261800E-18
   1.48920000       3.30529164E-17
   1.50119996       5.32593638E-17
   1.51320004       5.32567499E-17
   1.52520001       2.15692986E-17
   1.53719997      -4.51399905E-17
   1.54920006      -1.38868696E-16
   1.56120002      -2.40149378E-16
   1.57319999      -3.21635245E-16
   1.58519995      -3.54931925E-16
   1.59720004      -3.19061059E-16
   1.60920000      -2.08110304E-16
   1.62119997      -3.54487325E-17
   1.63320005       1.67457739E-16
   1.64520001       3.58166876E-16
   1.65719998       4.94985037E-16
   1.66919994       5.50188822E-16
   1.68120003       5.20559768E-16
   1.69319999       4.31159067E-16
   1.70519996       3.29752706E-16
   1.71720004       2.71925396E-16
   1.72920001       3.00058589E-16
   1.74119997       4.22054204E-16
   1.75320005       5.97021538E-16
   1.76520002       7.34408641E-16
   1.77719998       7.10109489E-16
   1.78919995       3.98440143E-16
   1.80120003      -2.86303462E-16
   1.81320000      -1.34919643E-15
   1.82519996      -2.68720843E-15
   1.83720005      -4.08556940E-15
   1.84920001      -5.24362776E-15
   1.86119998      -5.82840364E-15
   1.87320006      -5.54604351E-15
   1.88520002      -4.21511843E-15
   1.89719999      -1.82327865E-15
   1.90919995       1.44864202E-15
   1.92120004       5.24356762E-15
   1.93320000       9.08409971E-15
   1.94519997       1.24544692E-14
   1.95720005       1.48876899E-14
   1.96920002       1.60348538E-14
   1.98119998       1.56983310E-14
   1.99319994       1.38216532E-14
   2.00519991       1.04433682E-14
   2.01719999       5.63578792E-15
   2.02920008      -5.42249370E-16
   2.04119992      -8.05018843E-15
   2.05320001      -1.68106665E-14
   2.06520009      -2.65964093E-14
   2.07719994      -3.68840361E-14
   2.08920002      -4.67199860E-14
   2.10120010      -5.46543910E-14
   2.11319995      -5.87947727E-14
   2.12520003      -5.70112195E-14
   2.13720012      -4.72908896E-14
   2.14919996      -2.81998207E-14
   2.16120005       6.27579893E-16
   2.17319989       3.80744224E-14
   2.18519998       8.13090779E-14
   2.19720006       1.25819521E-13
   2.20919991       1.65756108E-13
   2.22119999       1.94567290E-13
   2.23320007       2.05854878E-13
   2.24519992       1.94327722E-13
   2.25720000       1.56708698E-13
   2.26920009       9.24525823E-14
   2.28119993       4.16452388E-15
   2.29320002      -1.02342268E-13
   2.30520010      -2.18352463E-13
   2.31719995      -3.32870911E-13
   2.32920003      -4.33481078E-13
   2.34120011      -5.07351648E-13
   2.35319996      -5.42315216E-13
   2.36520004      -5.27971059E-13
   2.37719989      -4.56787060E-13
   2.38919997      -3.25186763E-13
   2.40120006      -1.34591557E-13
   2.41319990       1.07655523E-13
   2.42519999       3.87617862E-13
   2.43720007       6.84539556E-13
   2.44919991       9.71296069E-13
   2.46120000       1.21573791E-12
   2.47320008       1.38306922E-12
   2.48519993       1.43925898E-12
   2.49720001       1.35528687E-12
   2.50920010       1.11181789E-12
   2.52119994       7.03704076E-13
   2.53320003       1.43598837E-13
   2.54520011      -5.36041860E-13
   2.55719995      -1.28317561E-12
   2.56920004      -2.02896532E-12
   2.58119988      -2.69315863E-12
   2.59319997      -3.19168845E-12
   2.60520005      -3.44575735E-12
   2.61719990      -3.39140369E-12
   2.62919998      -2.98840314E-12
   2.64120007      -2.22739774E-12
   2.65319991      -1.13431215E-12
   2.66520000       2.28556323E-13
   2.67720008       1.76502660E-12
   2.68919992       3.35097445E-12
   2.70120001       4.84326945E-12
   2.71320009       6.09101485E-12
   2.72519994       6.94825751E-12
   2.73720002       7.28725934E-12
   2.74920011       7.01142876E-12
   2.76119995       6.06699109E-12
   2.77320004       4.45248135E-12
   2.78520012       2.22514411E-12
   2.79719996      -4.96684074E-13
   2.80920005      -3.53602065E-12
   2.82119989      -6.66512678E-12
   2.83319998      -9.61908071E-12
   2.84520006      -1.21147250E-11
   2.85719991      -1.38740226E-11
   2.86919999      -1.46501353E-11
   2.88120008      -1.42539366E-11
   2.89319992      -1.25782275E-11
   2.90520000      -9.61684985E-12
   2.91720009      -5.47618591E-12
   2.92919993      -3.77155582E-13
   2.94120002       5.35317710E-12
   2.95320010       1.13002316E-11
   2.96519995       1.69895157E-11
   2.97720003       2.19211021E-11
   2.98920012       2.56082690E-11
   3.00119996       2.76173962E-11
   3.01320004       2.76062888E-11
   3.02519989       2.53584324E-11
   3.03719997       2.08109641E-11
   3.04920006       1.40745748E-11
   3.06119990       5.44363382E-12
   3.07319999      -4.60503120E-12
   3.08520007      -1.54262852E-11
   3.09719992      -2.62351234E-11
   3.10920000      -3.61502252E-11
   3.12120008      -4.42524628E-11
   3.13319993      -4.96566330E-11
   3.14520001      -5.15926954E-11
   3.15720010      -4.94906269E-11
   3.16919994      -4.30609090E-11
   3.18120003      -3.23612595E-11
   3.19320011      -1.78398372E-11
   3.20519996      -3.45881879E-13
   3.21720004       1.88988946E-11
   3.22919989       3.83712194E-11
   3.24119997       5.63580085E-11
   3.25320005       7.11024503E-11
   3.26519990       8.09730200E-11
   3.27719998       8.46401352E-11
   3.28920007       8.12422074E-11
   3.30119991       7.05224906E-11
   3.31320000       5.29186868E-11
   3.32520008       2.95909686E-11
   3.33719993       2.37841149E-12
   3.34920001      -2.63195229E-11
   3.36120009      -5.37329417E-11
   3.37319994      -7.69717970E-11
   3.38520002      -9.33183322E-11
   3.39720011      -1.00537099E-10
   3.40919995      -9.71733527E-11
   3.42120004      -8.28075872E-11
   3.43319988      -5.82345144E-11
   3.44519997      -2.55369302E-11
   3.45720005       1.19680602E-11
   3.46919990       4.99241169E-11
   3.48119998       8.32730204E-11
   3.49320006       1.06721382E-10
   3.50519991       1.15308284E-10
   3.51719999       1.05031123E-10
   3.52920008       7.34745945E-11
   3.54119992       2.03790960E-11
   3.55320001      -5.19181122E-11
   3.56520009      -1.38233244E-10
   3.57719994      -2.30532066E-10
   3.58920002      -3.18211096E-10
   3.60120010      -3.88681809E-10
   3.61319995      -4.28251684E-10
   3.62520003      -4.23268892E-10
   3.63720012      -3.61472491E-10
   3.64919996      -2.33465580E-10
   3.66120005      -3.42108945E-11
   3.67319989       2.35565900E-10
   3.68519998       5.68184333E-10
   3.69720006       9.48146561E-10
   3.70919991       1.35171307E-09
   3.72119999       1.74700843E-09
   3.73320007       2.09472506E-09
   3.74519992       2.34946662E-09
   3.75720000       2.46173237E-09
   3.76920009       2.38051889E-09
   3.78119993       2.05645656E-09
   3.79320002       1.44537782E-09
   3.80520010       5.12150211E-10
   3.81719995      -7.65422781E-10
   3.82920003      -2.39288522E-09
   3.84120011      -4.35588232E-09
   3.85319996      -6.61772015E-09
   3.86520004      -9.11810449E-09
   3.87719989      -1.17734569E-08
   3.88919997      -1.44792436E-08
   3.90120006      -1.71147541E-08
   3.91319990      -1.95507717E-08
   3.92519999      -2.16605454E-08
   3.93720007      -2.33344224E-08
   3.94919991      -2.44984282E-08
   3.96120000      -2.51369379E-08
   3.97320008      -2.53194337E-08
   3.98519993      -2.52311239E-08
   3.99720001      -2.52069938E-08
   4.00920010      -2.57684789E-08
   4.02120018      -2.76617076E-08
   4.03319979      -3.18960325E-08
   4.04519987      -3.97809430E-08
   4.05719995      -5.29595887E-08
   4.06920004      -7.34363397E-08
   4.08120012      -1.03596562E-07
   4.09320021      -1.46215370E-07
   4.10519981      -2.04453698E-07
   4.11719990      -2.81839078E-07
   4.12919998      -3.82229643E-07
   4.14120007      -5.09759445E-07
   4.15320015      -6.68765324E-07
   4.16520023      -8.63694424E-07
   4.17719984      -1.09899383E-06
   4.18919992      -1.37898462E-06
   4.20120001      -1.70772137E-06
   4.21320009      -2.08884217E-06
   4.22520018      -2.52541395E-06
   4.23719978      -3.01977411E-06
   4.24919987      -3.57338035E-06
   4.26119995      -4.18666832E-06
   4.27320004      -4.85892633E-06
   4.28520012      -5.58819147E-06
   4.29720020      -6.37117091E-06
   4.30919981      -7.20319667E-06
   4.32119989      -8.07821380E-06
   4.33319998      -8.98880353E-06
   4.34520006      -9.92625155E-06
   4.35720015      -1.08806471E-05
   4.36920023      -1.18410271E-05
   4.38119984      -1.27955500E-05
   4.39319992      -1.37317065E-05
   4.40520000      -1.46365546E-05
   4.41720009      -1.54969766E-05
   4.42920017      -1.62999586E-05
   4.44119978      -1.70328713E-05
   4.45319986      -1.76837475E-05
   4.46519995      -1.82415824E-05
   4.47720003      -1.86965790E-05
   4.48920012      -1.90404116E-05
   4.50120020      -1.92664393E-05
   4.51319981      -1.93698943E-05
   4.52519989      -1.93480300E-05
   4.53719997      -1.92002262E-05
   4.54920006      -1.89280490E-05
   4.56120014      -1.85352455E-05
   4.57320023      -1.80277148E-05
   4.58519983      -1.74133929E-05
   4.59719992      -1.67021226E-05
   4.60920000      -1.59054362E-05
   4.62120008      -1.50363303E-05
   4.63320017      -1.41089768E-05
   4.64519978      -1.31384140E-05
   4.65719986      -1.21402145E-05
   4.66919994      -1.11301297E-05
   4.68120003      -1.01237420E-05
   4.69320011      -9.13611530E-06
   4.70520020      -8.18145782E-06
   4.71719980      -7.27281440E-06
   4.72919989      -6.42179248E-06
   4.74119997      -5.63833464E-06
   4.75320005      -4.93053176E-06
   4.76520014      -4.30449791E-06
   4.77720022      -3.76430080E-06
   4.78919983      -3.31194883E-06
   4.80119991      -2.94743904E-06
   4.81320000      -2.66885786E-06
   4.82520008      -2.47253206E-06
   4.83720016      -2.35322295E-06
   4.84919977      -2.30435467E-06
   4.86119986      -2.31826971E-06
   4.87319994      -2.38650114E-06
   4.88520002      -2.50005064E-06
   4.89720011      -2.64966434E-06
   4.90920019      -2.82609994E-06
   4.92119980      -3.02037051E-06
   4.93319988      -3.22396795E-06
   4.94519997      -3.42905196E-06
   4.95720005      -3.62860851E-06
   4.96920013      -3.81657037E-06
   4.98120022      -3.98790280E-06
   4.99319983      -4.13865109E-06
   5.00519991      -4.26596080E-06
   5.01719999      -4.36806249E-06
   5.02920008      -4.44423085E-06
   5.04120016      -4.49472009E-06
   5.05319977      -4.52068389E-06
   5.06519985      -4.52407494E-06
   5.07719994      -4.50753350E-06
   5.08920002      -4.47427101E-06
   5.10120010      -4.42794362E-06
   5.11320019      -4.37252220E-06
   5.12519979      -4.31216449E-06
   5.13719988      -4.25108510E-06
   5.14919996      -4.19342814E-06
   5.16120005      -4.14314673E-06
   5.17320013      -4.10388657E-06
   5.18520021      -4.07887956E-06
   5.19719982      -4.07084872E-06
   5.20919991      -4.08192545E-06
   5.22119999      -4.11358360E-06
   5.23320007      -4.16659122E-06
   5.24520016      -4.24098198E-06
   5.25719976      -4.33605101E-06
   5.26919985      -4.45037404E-06
   5.28119993      -4.58184786E-06
   5.29320002      -4.72776082E-06
   5.30520010      -4.88488058E-06
   5.31720018      -5.04956915E-06
   5.32919979      -5.21791162E-06
   5.34119987      -5.38586119E-06
   5.35319996      -5.54939697E-06
   5.36520004      -5.70468274E-06
   5.37720013      -5.84822692E-06
   5.38920021      -5.97703684E-06
   5.40119982      -6.08875598E-06
   5.41319990      -6.18179138E-06
   5.42519999      -6.25541088E-06
   5.43720007      -6.30981958E-06
   5.44920015      -6.34619937E-06
   5.46120024      -6.36672667E-06
   5.47319984      -6.37454423E-06
   5.48519993      -6.37370977E-06
   5.49720001      -6.36910272E-06
   5.50920010      -6.36630921E-06
   5.52120018      -6.37147104E-06
   5.53319979      -6.39111886E-06
   5.54519987      -6.43198109E-06
   5.55719995      -6.50078346E-06
   5.56920004      -6.60403930E-06
   5.58120012      -6.74784042E-06
   5.59320021      -6.93764878E-06
   5.60519981      -7.17810781E-06
   5.61719990      -7.47286185E-06
   5.62919998      -7.82440566E-06
   5.64120007      -8.23395476E-06
   5.65320015      -8.70135773E-06
   5.66520023      -9.22503568E-06
   5.67719984      -9.80197001E-06
   5.68919992      -1.04277242E-05
   5.70120001      -1.10965129E-05
   5.71320009      -1.18013140E-05
   5.72520018      -1.25340157E-05
   5.73719978      -1.32856039E-05
   5.74919987      -1.40463781E-05
   5.76119995      -1.48061999E-05
   5.77320004      -1.55547514E-05
   5.78520012      -1.62818087E-05
   5.79720020      -1.69775230E-05
   5.80919981      -1.76326866E-05
   5.82119989      -1.82389722E-05
   5.83319998      -1.87891801E-05
   5.84520006      -1.92774132E-05
   5.85720015      -1.96992332E-05
   5.86920023      -2.00517679E-05
   5.88119984      -2.03337640E-05
   5.89319992      -2.05455799E-05
   5.90520000      -2.06891546E-05
   5.91720009      -2.07678895E-05
   5.92920017      -2.07865141E-05
   5.94119978      -2.07508892E-05
   5.95319986      -2.06678033E-05
   5.96519995      -2.05447213E-05
   5.97720003      -2.03895252E-05
   5.98920012      -2.02102619E-05
   6.00120020      -2.00148843E-05
   6.01319981      -1.98110065E-05
   6.02519989      -1.96056826E-05
   6.03719997      -1.94052136E-05
   6.04920006      -1.92149910E-05
   6.06120014      -1.90393712E-05
   6.07320023      -1.88815920E-05
   6.08519983      -1.87437290E-05
   6.09719992      -1.86266916E-05
   6.10920000      -1.85302524E-05
   6.12120008      -1.84531218E-05
   6.13320017      -1.83930406E-05
   6.14519978      -1.83468965E-05
   6.15719986      -1.83108768E-05
   6.16919994      -1.82806216E-05
   6.18120003      -1.82513868E-05
   6.19320011      -1.82182230E-05
   6.20520020      -1.81761425E-05
   6.21719980      -1.81202868E-05
   6.22919989      -1.80460793E-05
   6.24119997      -1.79493873E-05
   6.25320005      -1.78266473E-05
   6.26520014      -1.76749800E-05
   6.27720022      -1.74922952E-05
   6.28919983      -1.72773689E-05
   6.30119991      -1.70298990E-05
   6.31320000      -1.67505405E-05
   6.32520008      -1.64409175E-05
   6.33720016      -1.61036041E-05
   6.34919977      -1.57420927E-05
   6.36119986      -1.53607307E-05
   6.37319994      -1.49646266E-05
   6.38520002      -1.45595441E-05
   6.39720011      -1.41517748E-05
   6.40920019      -1.37479810E-05
   6.42119980      -1.33550311E-05
   6.43319988      -1.29798109E-05
   6.44519997      -1.26290442E-05
   6.45720005      -1.23090877E-05
   6.46920013      -1.20257373E-05
   6.48120022      -1.17840455E-05
   6.49319983      -1.15881385E-05
   6.50519991      -1.14410614E-05
   6.51719999      -1.13446367E-05
   6.52920008      -1.12993712E-05
   6.54120016      -1.13043752E-05
   6.55319977      -1.13573342E-05
   6.56519985      -1.14545164E-05
   6.57719994      -1.15908288E-05
   6.58920002      -1.17599111E-05
   6.60120010      -1.19542838E-05
   6.61320019      -1.21655276E-05
   6.62519979      -1.23845111E-05
   6.63719988      -1.26016494E-05
   6.64919996      -1.28071924E-05
   6.66120005      -1.29915252E-05
   6.67320013      -1.31454908E-05
   6.68520021      -1.32606983E-05
   6.69719982      -1.33298281E-05
   6.70919991      -1.33469030E-05
   6.72119999      -1.33075282E-05
   6.73320007      -1.32090709E-05
   6.74520016      -1.30507997E-05
   6.75719976      -1.28339316E-05
   6.76919985      -1.25616216E-05
   6.78119993      -1.22388783E-05
   6.79320002      -1.18723901E-05
   6.80520010      -1.14702943E-05
   6.81720018      -1.10418750E-05
   6.82919979      -1.05972167E-05
   6.84119987      -1.01468140E-05
   6.85319996      -9.70117526E-06
   6.86520004      -9.27041128E-06
   6.87720013      -8.86385351E-06
   6.88920021      -8.48971104E-06
   6.90119982      -8.15477324E-06
   6.91319990      -7.86419423E-06
   6.92519999      -7.62134368E-06
   6.93720007      -7.42775092E-06
   6.94920015      -7.28312943E-06
   6.96120024      -7.18548699E-06
   6.97319984      -7.13130339E-06
   6.98519993      -7.11577422E-06
   6.99720001      -7.13309828E-06
   7.00920010      -7.17679131E-06
   7.02120018      -7.24001302E-06
   7.03319979      -7.31588034E-06
   7.04519987      -7.39775624E-06
   7.05719995      -7.47949525E-06
   7.06920004      -7.55563769E-06
   7.08120012      -7.62154014E-06
   7.09320021      -7.67344773E-06
   7.10519981      -7.70849874E-06
   7.11719990      -7.72468684E-06
   7.12919998      -7.72076419E-06
   7.14120007      -7.69612689E-06
   7.15320015      -7.65068216E-06
   7.16520023      -7.58470742E-06
   7.17719984      -7.49873197E-06
   7.18919992      -7.39344205E-06
   7.20120001      -7.26962071E-06
   7.21320009      -7.12812880E-06
   7.22520018      -6.96992902E-06
   7.23719978      -6.79615368E-06
   7.24919987      -6.60820615E-06
   7.26119995      -6.40788357E-06
   7.27320004      -6.19751654E-06
   7.28520012      -5.98010365E-06
   7.29720020      -5.75942840E-06
   7.30919981      -5.54014696E-06
   7.32119989      -5.32782769E-06
   7.33319998      -5.12893985E-06
   7.34520006      -4.95078029E-06
   7.35720015      -4.80133804E-06
   7.36920023      -4.68909366E-06
   7.38119984      -4.62277148E-06
   7.39319992      -4.61104219E-06
   7.40520000      -4.66219308E-06
   7.41720009      -4.78378706E-06
   7.42920017      -4.98232248E-06
   7.44119978      -5.26291569E-06
   7.45319986      -5.62901732E-06
   7.46519995      -6.08218716E-06
   7.47720003      -6.62193406E-06
   7.48920012      -7.24563006E-06
   7.50120020      -7.94851076E-06
   7.51319981      -8.72375404E-06
   7.52519989      -9.56264466E-06
   7.53719997      -1.04548071E-05
   7.54920006      -1.13885108E-05
   7.56120014      -1.23510181E-05
   7.57320023      -1.33289759E-05
   7.58519983      -1.43088164E-05
   7.59719992      -1.52771754E-05
   7.60920000      -1.62212746E-05
   7.62120008      -1.71292795E-05
   7.63320017      -1.79906074E-05
   7.64519978      -1.87961687E-05
   7.65719986      -1.95385292E-05
   7.66919994      -2.02120118E-05
   7.68120003      -2.08126949E-05
   7.69320011      -2.13383446E-05
   7.70520020      -2.17882716E-05
   7.71719980      -2.21631290E-05
   7.72919989      -2.24646519E-05
   7.74119997      -2.26953725E-05
   7.75320005      -2.28583176E-05
   7.76520014      -2.29567013E-05
   7.77720022      -2.29936413E-05
   7.78919983      -2.29719226E-05
   7.80119991      -2.28937970E-05
   7.81320000      -2.27608452E-05
   7.82520008      -2.25739295E-05
   7.83720016      -2.23331808E-05
   7.84919977      -2.20380825E-05
   7.86119986      -2.16875960E-05
   7.87319994      -2.12803425E-05
   7.88520002      -2.08148249E-05
   7.89720011      -2.02896590E-05
   7.90920019      -1.97038189E-05
   7.92119980      -1.90568680E-05
   7.93319988      -1.83491666E-05
   7.94519997      -1.75820333E-05
   7.95720005      -1.67578655E-05
   7.96920013      -1.58801995E-05
   7.98120022      -1.49537182E-05
   7.99319983      -1.39841795E-05
   8.00520039      -1.29783157E-05
   8.01720047      -1.19436654E-05
   8.02919960      -1.08883751E-05
   8.04119968      -9.82097117E-06
   8.05319977      -8.75011574E-06
   8.06519985      -7.68436166E-06
   8.07719994      -6.63191622E-06
   8.08920002      -5.60043054E-06
   8.10120010      -4.59680996E-06
   8.11320019      -3.62707146E-06
   8.12520027      -2.69623933E-06
   8.13720036      -1.80828442E-06
   8.14920044      -9.66112452E-07
   8.16119957      -1.71591566E-07
   8.17319965       5.74379555E-07
   8.18519974       1.27177134E-06
   8.19719982       1.92129369E-06
   8.20919991       2.52424843E-06
   8.22119999       3.08236645E-06
   8.23320007       3.59763840E-06
   8.24520016       4.07214702E-06
   8.25720024       4.50790731E-06
   8.26920033       4.90672028E-06
   8.28120041       5.27004613E-06
   8.29319954       5.59890623E-06
   8.30519962       5.89380761E-06
   8.31719971       6.15470708E-06
   8.32919979       6.38100300E-06
   8.34119987       6.57156806E-06
   8.35319996       6.72480837E-06
   8.36520004       6.83876806E-06
   8.37720013       6.91125615E-06
   8.38920021       6.94001301E-06
   8.40120029       6.92290132E-06
   8.41320038       6.85812302E-06
   8.42520046       6.74445437E-06
   8.43719959       6.58148974E-06
   8.44919968       6.36989034E-06
   8.46119976       6.11161340E-06
   8.47319984       5.81011727E-06
   8.48519993       5.47052923E-06
   8.49720001       5.09974643E-06
   8.50920010       4.70647365E-06
   8.52120018       4.30116916E-06
   8.53320026       3.89590241E-06
   8.54520035       3.50411051E-06
   8.55720043       3.14025851E-06
   8.56919956       2.81940561E-06
   8.58119965       2.55669374E-06
   8.59319973       2.36677556E-06
   8.60519981       2.26320481E-06
   8.61719990       2.25782082E-06
   8.62919998       2.36015671E-06
   8.64120007       2.57690340E-06
   8.65320015       2.91146603E-06
   8.66520023       3.36363337E-06
   8.67720032       3.92939319E-06
   8.68920040       4.60089905E-06
   8.70119953       5.36660673E-06
   8.71319962       6.21157096E-06
   8.72519970       7.11789426E-06
   8.73719978       8.06531261E-06
   8.74919987       9.03188902E-06
   8.76119995       9.99478198E-06
   8.77320004       1.09310504E-05
   8.78520012       1.18184735E-05
   8.79720020       1.26363175E-05
   8.80920029       1.33660478E-05
   8.82120037       1.39919366E-05
   8.83320045       1.45015456E-05
   8.84519958       1.48860727E-05
   8.85719967       1.51405484E-05
   8.86919975       1.52638731E-05
   8.88119984       1.52587263E-05
   8.89319992       1.51313297E-05
   8.90520000       1.48910904E-05
   8.91720009       1.45501608E-05
   8.92920017       1.41229057E-05
   8.94120026       1.36253320E-05
   8.95320034       1.30744866E-05
   8.96520042       1.24878461E-05
   8.97719955       1.18827365E-05
   8.98919964       1.12757753E-05
   9.00119972       1.06823763E-05
   9.01319981       1.01163141E-05
   9.02519989       9.58936562E-06
   9.03719997       9.11103416E-06
   9.04920006       8.68835377E-06
   9.06120014       8.32578371E-06
   9.07320023       8.02518571E-06
   9.08520031       7.78588492E-06
   9.09720039       7.60481134E-06
   9.10919952       7.47671129E-06
   9.12119961       7.39442612E-06
   9.13319969       7.34922560E-06
   9.14519978       7.33118577E-06
   9.15719986       7.32960007E-06
   9.16919994       7.33340357E-06
   9.18120003       7.33161050E-06
   9.19320011       7.31373711E-06
   9.20520020       7.27020370E-06
   9.21720028       7.19270338E-06
   9.22920036       7.07453000E-06
   9.24120045       6.91084415E-06
   9.25319958       6.69887913E-06
   9.26519966       6.43807516E-06
   9.27719975       6.13013253E-06
   9.28919983       5.77898300E-06
   9.30119991       5.39067696E-06
   9.31320000       4.97318524E-06
   9.32520008       4.53612120E-06
   9.33720016       4.09038466E-06
   9.34920025       3.64774610E-06
   9.36120033       3.22037158E-06
   9.37320042       2.82030965E-06
   9.38519955       2.45895649E-06
   9.39719963       2.14651641E-06
   9.40919971       1.89148022E-06
   9.42119980       1.70014698E-06
   9.43319988       1.57621139E-06
   9.44519997       1.52044311E-06
