 -0.622799993       0.00000000    
 -0.610800028       0.00000000    
 -0.598800004       0.00000000    
 -0.586799979       0.00000000    
 -0.574800014       0.00000000    
 -0.562799990       0.00000000    
 -0.550800025      -2.36327416E-27
 -0.538800001      -2.81181458E-26
 -0.526799977      -1.77864049E-25
 -0.514800012      -7.92935421E-25
 -0.502799988      -2.78536945E-24
 -0.490799993      -8.16830048E-24
 -0.478799999      -2.06833208E-23
 -0.466800004      -4.61754840E-23
 -0.454800010      -9.21187463E-23
 -0.442799985      -1.65739664E-22
 -0.430799991      -2.70924799E-22
 -0.418799996      -4.05700940E-22
 -0.406800002      -5.63994956E-22
 -0.394800007      -7.46007911E-22
 -0.382800013      -9.78666645E-22
 -0.370799989      -1.33985861E-21
 -0.358799994      -1.96917050E-21
 -0.346799999      -3.03990269E-21
 -0.334800005      -4.67229051E-21
 -0.322800010      -6.79550522E-21
 -0.310799986      -9.01694803E-21
 -0.298799992      -1.06156975E-20
 -0.286799997      -1.08067035E-20
 -0.274800003      -9.37459459E-21
 -0.262800008      -7.61048653E-21
 -0.250800014      -9.20406210E-21
 -0.238800004      -2.04275952E-20
 -0.226799995      -4.87767308E-20
 -0.214800000      -9.94529396E-20
 -0.202800006      -1.69905780E-19
 -0.190799996      -2.44123358E-19
 -0.178800002      -2.90094774E-19
 -0.166800007      -2.64985862E-19
 -0.154799998      -1.31789853E-19
 -0.142800003       1.12645805E-19
 -0.130799994       4.05485901E-19
 -0.118799999       5.97721228E-19
 -0.106799997       4.68233444E-19
  -9.48000029E-02  -2.07842868E-19
  -8.28000009E-02  -1.53264191E-18
  -7.07999989E-02  -3.32851854E-18
  -5.88000007E-02  -5.01730123E-18
  -4.67999987E-02  -5.63269010E-18
  -3.48000005E-02  -4.05881479E-18
  -2.28000004E-02   4.71765247E-19
  -1.08000003E-02   7.70814375E-18
   1.20000006E-03   1.57825680E-17
   1.31999999E-02   2.10544051E-17
   2.52000000E-02   1.87788346E-17
   3.72000001E-02   4.79661358E-18
   4.91999984E-02  -2.19657663E-17
   6.12000003E-02  -5.69453964E-17
   7.32000023E-02  -8.85926450E-17
   8.51999968E-02  -9.96199221E-17
   9.71999988E-02  -7.17827071E-17
  0.109200001       6.06186615E-18
  0.121200003       1.28591367E-16
  0.133200005       2.67018693E-16
  0.145199999       3.68978007E-16
  0.157199994       3.68994630E-16
  0.169200003       2.10300136E-16
  0.181199998      -1.25966028E-16
  0.193200007      -5.93320110E-16
  0.205200002      -1.06697066E-15
  0.217199996      -1.35764495E-15
  0.229200006      -1.25864173E-15
  0.241200000      -6.21387341E-16
  0.253199995       5.59084097E-16
  0.265199989       2.07909531E-15
  0.277200013       3.51611487E-15
  0.289200008       4.29935670E-15
  0.301200002       3.86521505E-15
  0.313199997       1.86997473E-15
  0.325199991      -1.59975291E-15
  0.337199986      -5.89841938E-15
  0.349200010      -9.85053408E-15
  0.361200005      -1.19795031E-14
  0.373199999      -1.09187375E-14
  0.385199994      -5.91611814E-15
  0.397199988       2.71675230E-15
  0.409200013       1.33819898E-14
  0.421200007       2.33390662E-14
  0.433200002       2.92649341E-14
  0.445199996       2.81522428E-14
  0.457199991       1.83352902E-14
  0.469199985       3.42983916E-16
  0.481200010      -2.27305899E-14
  0.493200004      -4.55559459E-14
  0.505200028      -6.16366699E-14
  0.517199993      -6.49319804E-14
  0.529200017      -5.16486437E-14
  0.541199982      -2.17082805E-14
  0.553200006       2.05759261E-14
  0.565199971       6.69076339E-14
  0.577199996       1.06519821E-13
  0.589200020       1.28508044E-13
  0.601199985       1.24461151E-13
  0.613200009       9.07610982E-14
  0.625199974       2.99860302E-14
  0.637199998      -4.89430341E-14
  0.649200022      -1.31945670E-13
  0.661199987      -2.02089701E-13
  0.673200011      -2.42614360E-13
  0.685199976      -2.40168725E-13
  0.697200000      -1.87767621E-13
  0.709200025      -8.70212173E-14
  0.721199989       5.07513445E-14
  0.733200014       2.04871168E-13
  0.745199978       3.47396970E-13
  0.757200003       4.47101584E-13
  0.769200027       4.75143200E-13
  0.781199992       4.11758138E-13
  0.793200016       2.52728800E-13
  0.805199981       1.39152131E-14
  0.817200005      -2.67962600E-13
  0.829200029      -5.39631545E-13
  0.841199994      -7.40890368E-13
  0.853200018      -8.18207589E-13
  0.865199983      -7.39329930E-13
  0.877200007      -5.04851749E-13
  0.889199972      -1.52684465E-13
  0.901199996       2.47288301E-13
  0.913200021       6.08507656E-13
  0.925199986       8.49944084E-13
  0.937200010       9.19364303E-13
  0.949199975       8.10447141E-13
  0.961199999       5.67362672E-13
  0.973200023       2.73581098E-13
  0.985199988       2.64644975E-14
  0.997200012      -9.57512878E-14
   1.00919998      -6.43720984E-14
   1.02119994       8.28357429E-14
   1.03320003       2.46180138E-13
   1.04519999       2.91896498E-13
   1.05719995       9.75479124E-14
   1.06920004      -3.97619410E-13
   1.08120000      -1.15356401E-12
   1.09319997      -2.01657983E-12
   1.10520005      -2.74146222E-12
   1.11720002      -3.04774500E-12
   1.12919998      -2.69844563E-12
   1.14119995      -1.58156301E-12
   1.15320003       2.28567328E-13
   1.16520000       2.44975828E-12
   1.17719996       4.62117063E-12
   1.18920004       6.18200022E-12
   1.20120001       6.58645707E-12
   1.21319997       5.43320857E-12
   1.22520006       2.58424553E-12
   1.23720002      -1.74948554E-12
   1.24919999      -6.97181679E-12
   1.26119995      -1.21224593E-11
   1.27320004      -1.59562120E-11
   1.28520000      -1.70758147E-11
   1.29719996      -1.41104151E-11
   1.30920005      -5.92777303E-12
   1.32120001       8.13840575E-12
   1.33319998       2.80756182E-11
   1.34519994       5.30386429E-11
   1.35720003       8.13142817E-11
   1.36919999       1.10474581E-10
   1.38119996       1.37787060E-10
   1.39320004       1.60932795E-10
   1.40520000       1.79047402E-10
   1.41719997       1.94050304E-10
   1.42920005       2.12170434E-10
   1.44120002       2.45525128E-10
   1.45319998       3.13573834E-10
   1.46519995       4.44263654E-10
   1.47720003       6.74711842E-10
   1.48920000       1.05134601E-09
   1.50119996       1.62953240E-09
   1.51320004       2.47288212E-09
   1.52520001       3.65262287E-09
   1.53719997       5.24766230E-09
   1.54920006       7.34624539E-09
   1.56120002       1.00504298E-08
   1.57319999       1.34849163E-08
   1.58519995       1.78121287E-08
   1.59720004       2.32556623E-08
   1.60920000       3.01345047E-08
   1.62119997       3.89103789E-08
   1.63320005       5.02504527E-08
   1.64520001       6.51073151E-08
   1.65719998       8.48173158E-08
   1.66919994       1.11217688E-07
   1.68120003       1.46781275E-07
   1.69319999       1.94766713E-07
   1.70519996       2.59379675E-07
   1.71720004       3.45939782E-07
   1.72920001       4.61045119E-07
   1.74119997       6.12725216E-07
   1.75320005       8.10571294E-07
   1.76520002       1.06583150E-06
   1.77719998       1.39145766E-06
   1.78919995       1.80208974E-06
   1.80120003       2.31396643E-06
   1.81320000       2.94474762E-06
   1.82519996       3.71324040E-06
   1.83720005       4.63902234E-06
   1.84920001       5.74196201E-06
   1.86119998       7.04163176E-06
   1.87320006       8.55662893E-06
   1.88520002       1.03038192E-05
   1.89719999       1.22975107E-05
   1.90919995       1.45485992E-05
   1.92120004       1.70637086E-05
   1.93320000       1.98443504E-05
   1.94519997       2.28861809E-05
   1.95720005       2.61783316E-05
   1.96920002       2.97029255E-05
   1.98119998       3.34347678E-05
   1.99319994       3.73412659E-05
   2.00519991       4.13826092E-05
   2.01719999       4.55122172E-05
   2.02920008       4.96775065E-05
   2.04119992       5.38208988E-05
   2.05320001       5.78811159E-05
   2.06520009       6.17947517E-05
   2.07719994       6.54979667E-05
   2.08920002       6.89283988E-05
   2.10120010       7.20271128E-05
   2.11319995       7.47405502E-05
   2.12520003       7.70224287E-05
   2.13720012       7.88354591E-05
   2.14919996       8.01527858E-05
   2.16120005       8.09592166E-05
   2.17319989       8.12519720E-05
   2.18519998       8.10410638E-05
   2.19720006       8.03492148E-05
   2.20919991       7.92112769E-05
   2.22119999       7.76732850E-05
   2.23320007       7.57909656E-05
   2.24519992       7.36279981E-05
   2.25720000       7.12538895E-05
   2.26920009       6.87416978E-05
   2.28119993       6.61655868E-05
   2.29320002       6.35984325E-05
   2.30520010       6.11094802E-05
   2.31719995       5.87621689E-05
   2.32920003       5.66122762E-05
   2.34120011       5.47063864E-05
   2.35319996       5.30807556E-05
   2.36520004       5.17606204E-05
   2.37719989       5.07599871E-05
   2.38919997       5.00818278E-05
   2.40120006       4.97187393E-05
   2.41319990       4.96539578E-05
   2.42519999       4.98627051E-05
   2.43720007       5.03137853E-05
   2.44919991       5.09713573E-05
   2.46120000       5.17967928E-05
   2.47320008       5.27505363E-05
   2.48519993       5.37938868E-05
   2.49720001       5.48906391E-05
   2.50920010       5.60084991E-05
   2.52119994       5.71202472E-05
   2.53320003       5.82045577E-05
   2.54520011       5.92465367E-05
   2.55719995       6.02378605E-05
   2.56920004       6.11766227E-05
   2.58119988       6.20668216E-05
   2.59319997       6.29175847E-05
   2.60520005       6.37421908E-05
   2.61719990       6.45568507E-05
   2.62919998       6.53794486E-05
   2.64120007       6.62282037E-05
   2.65319991       6.71204252E-05
   2.66520000       6.80713056E-05
   2.67720008       6.90929519E-05
   2.68919992       7.01936151E-05
   2.70120001       7.13772097E-05
   2.71320009       7.26430953E-05
   2.72519994       7.39862007E-05
   2.73720002       7.53974455E-05
   2.74920011       7.68643076E-05
   2.76119995       7.83717696E-05
   2.77320004       7.99032787E-05
   2.78520012       8.14418308E-05
   2.79719996       8.29710552E-05
   2.80920005       8.44762035E-05
   2.82119989       8.59450229E-05
   2.83319998       8.73683966E-05
   2.84520006       8.87407077E-05
   2.85719991       9.00600135E-05
   2.86919999       9.13278491E-05
   2.88120008       9.25488421E-05
   2.89319992       9.37300938E-05
   2.90520000       9.48803572E-05
   2.91720009       9.60091420E-05
   2.92919993       9.71258414E-05
   2.94120002       9.82387792E-05
   2.95320010       9.93545400E-05
   2.96519995       1.00477344E-04
   2.97720003       1.01608799E-04
   2.98920012       1.02747770E-04
   3.00119996       1.03890627E-04
   3.01320004       1.05031708E-04
   3.02519989       1.06164000E-04
   3.03719997       1.07279950E-04
   3.04920006       1.08372456E-04
   3.06119990       1.09435787E-04
   3.07319999       1.10466426E-04
   3.08520007       1.11463851E-04
   3.09719992       1.12430993E-04
   3.10920000       1.13374459E-04
   3.12120008       1.14304472E-04
   3.13319993       1.15234376E-04
   3.14520001       1.16179835E-04
   3.15720010       1.17157739E-04
   3.16919994       1.18184755E-04
   3.18120003       1.19275748E-04
   3.19320011       1.20441953E-04
   3.20519996       1.21689176E-04
   3.21720004       1.23015983E-04
   3.22919989       1.24412021E-04
   3.24119997       1.25856532E-04
   3.25320005       1.27317195E-04
   3.26519990       1.28749292E-04
   3.27719998       1.30095286E-04
   3.28920007       1.31284905E-04
   3.30119991       1.32235640E-04
   3.31320000       1.32853762E-04
   3.32520008       1.33035835E-04
   3.33719993       1.32670786E-04
   3.34920001       1.31642199E-04
   3.36120009       1.29831169E-04
   3.37319994       1.27119507E-04
   3.38520002       1.23393082E-04
   3.39720011       1.18545417E-04
   3.40919995       1.12481372E-04
   3.42120004       1.05120773E-04
   3.43319988       9.64019127E-05
   3.44519997       8.62848392E-05
   3.45720005       7.47542581E-05
   3.46919990       6.18219492E-05
   3.48119998       4.75286324E-05
   3.49320006       3.19450628E-05
   3.50519991       1.51724062E-05
   3.51719999      -2.65824929E-06
   3.52920008      -2.13872809E-05
   3.54119992      -4.08288251E-05
   3.55320001      -6.07738984E-05
   3.56520009      -8.09943740E-05
   3.57719994      -1.01247635E-04
   3.58920002      -1.21281795E-04
   3.60120010      -1.40841395E-04
   3.61319995      -1.59673262E-04
   3.62520003      -1.77532478E-04
   3.63720012      -1.94188135E-04
   3.64919996      -2.09428850E-04
   3.66120005      -2.23067575E-04
   3.67319989      -2.34945895E-04
   3.68519998      -2.44937284E-04
   3.69720006      -2.52949685E-04
   3.70919991      -2.58926797E-04
   3.72119999      -2.62848538E-04
   3.73320007      -2.64730566E-04
   3.74519992      -2.64622737E-04
   3.75720000      -2.62606656E-04
   3.76920009      -2.58792832E-04
   3.78119993      -2.53316888E-04
   3.79320002      -2.46335723E-04
   3.80520010      -2.38023102E-04
   3.81719995      -2.28565361E-04
   3.82920003      -2.18157074E-04
   3.84120011      -2.06996716E-04
   3.85319996      -1.95282904E-04
   3.86520004      -1.83210665E-04
   3.87719989      -1.70968182E-04
   3.88919997      -1.58733965E-04
   3.90120006      -1.46674458E-04
   3.91319990      -1.34942020E-04
   3.92519999      -1.23673308E-04
   3.93720007      -1.12988091E-04
   3.94919991      -1.02988444E-04
   3.96120000      -9.37581863E-05
   3.97320008      -8.53626916E-05
   3.98519993      -7.78489994E-05
   3.99720001      -7.12461260E-05
   4.00920010      -6.55656695E-05
   4.02120018      -6.08026385E-05
   4.03319979      -5.69365002E-05
   4.04519987      -5.39323919E-05
   4.05719995      -5.17425979E-05
   4.06920004      -5.03081101E-05
   4.08120012      -4.95603781E-05
   4.09320021      -4.94231099E-05
   4.10519981      -4.98141962E-05
   4.11719990      -5.06476244E-05
   4.12919998      -5.18354282E-05
   4.14120007      -5.32895865E-05
   4.15320015      -5.49237884E-05
   4.16520023      -5.66551607E-05
   4.17719984      -5.84058398E-05
   4.18919992      -6.01043139E-05
   4.20120001      -6.16866237E-05
   4.21320009      -6.30973445E-05
   4.22520018      -6.42903324E-05
   4.23719978      -6.52292365E-05
   4.24919987      -6.58877834E-05
   4.26119995      -6.62498715E-05
   4.27320004      -6.63093451E-05
   4.28520012      -6.60696460E-05
   4.29720020      -6.55432086E-05
   4.30919981      -6.47506749E-05
   4.32119989      -6.37199846E-05
   4.33319998      -6.24851964E-05
   4.34520006      -6.10852949E-05
   4.35720015      -5.95628298E-05
   4.36920023      -5.79625121E-05
   4.38119984      -5.63296999E-05
   4.39319992      -5.47089585E-05
   4.40520000      -5.31425940E-05
   4.41720009      -5.16692890E-05
   4.42920017      -5.03228512E-05
   4.44119978      -4.91311221E-05
   4.45319986      -4.81150746E-05
   4.46519995      -4.72881984E-05
   4.47720003      -4.66560923E-05
   4.48920012      -4.62164280E-05
   4.50120020      -4.59591793E-05
   4.51319981      -4.58671966E-05
   4.52519989      -4.59170333E-05
   4.53719997      -4.60800911E-05
   4.54920006      -4.63239849E-05
   4.56120014      -4.66140336E-05
   4.57320023      -4.69148872E-05
   4.58519983      -4.71921667E-05
   4.59719992      -4.74140325E-05
   4.60920000      -4.75526140E-05
   4.62120008      -4.75852321E-05
   4.63320017      -4.74953158E-05
   4.64519978      -4.72730317E-05
   4.65719986      -4.69154947E-05
   4.66919994      -4.64266595E-05
   4.68120003      -4.58167960E-05
   4.69320011      -4.51016749E-05
   4.70520020      -4.43014396E-05
   4.71719980      -4.34392496E-05
   4.72919989      -4.25398248E-05
   4.74119997      -4.16279072E-05
   4.75320005      -4.07267653E-05
   4.76520014      -3.98568300E-05
   4.77720022      -3.90345449E-05
   4.78919983      -3.82714788E-05
   4.80119991      -3.75737764E-05
   4.81320000      -3.69419540E-05
   4.82520008      -3.63710460E-05
   4.83720016      -3.58511206E-05
   4.84919977      -3.53680589E-05
   4.86119986      -3.49046059E-05
   4.87319994      -3.44416039E-05
   4.88520002      -3.39592807E-05
   4.89720011      -3.34385950E-05
   4.90920019      -3.28624665E-05
   4.92119980      -3.22168744E-05
   4.93319988      -3.14917306E-05
   4.94519997      -3.06815018E-05
   4.95720005      -2.97854913E-05
   4.96920013      -2.88078700E-05
   4.98120022      -2.77573436E-05
   4.99319983      -2.66465740E-05
   5.00519991      -2.54913775E-05
   5.01719999      -2.43097147E-05
   5.02920008      -2.31206377E-05
   5.04120016      -2.19431786E-05
   5.05319977      -2.07953162E-05
   5.06519985      -1.96930760E-05
   5.07719994      -1.86498019E-05
   5.08920002      -1.76756748E-05
   5.10120010      -1.67774633E-05
   5.11320019      -1.59585379E-05
   5.12519979      -1.52191060E-05
   5.13719988      -1.45566364E-05
   5.14919996      -1.39664253E-05
   5.16120005      -1.34422398E-05
   5.17320013      -1.29769696E-05
   5.18520021      -1.25632350E-05
   5.19719982      -1.21938865E-05
   5.20919991      -1.18623511E-05
   5.22119999      -1.15628036E-05
   5.23320007      -1.12901480E-05
   5.24520016      -1.10398259E-05
   5.25719976      -1.08074637E-05
   5.26919985      -1.05884283E-05
   5.28119993      -1.03773273E-05
   5.29320002      -1.01675432E-05
   5.30520010      -9.95084247E-06
   5.31720018      -9.71713780E-06
   5.32919979      -9.45444935E-06
   5.34119987      -9.14907923E-06
   5.35319996      -8.78604169E-06
   5.36520004      -8.34969705E-06
   5.37720013      -7.82459574E-06
   5.38920021      -7.19645413E-06
   5.40119982      -6.45320461E-06
   5.41319990      -5.58604779E-06
   5.42519999      -4.59041848E-06
   5.43720007      -3.46679053E-06
   5.44920015      -2.22124072E-06
   5.46120024      -8.65721688E-07
   5.47319984       5.82008795E-07
   5.48519993       2.09880318E-06
   5.49720001       3.65689129E-06
   5.50920010       5.22495748E-06
   5.52120018       6.76947320E-06
   5.53319979       8.25621100E-06
   5.54519987       9.65184972E-06
   5.55719995       1.09255752E-05
   5.56920004       1.20505938E-05
   5.58120012       1.30054623E-05
   5.59320021       1.37751713E-05
   5.60519981       1.43519228E-05
   5.61719990       1.47355686E-05
   5.62919998       1.49336929E-05
   5.64120007       1.49613425E-05
   5.65320015       1.48404206E-05
   5.66520023       1.45987879E-05
   5.67719984       1.42691215E-05
   5.68919992       1.38875785E-05
   5.70120001       1.34923503E-05
   5.71320009       1.31221632E-05
   5.72520018       1.28147913E-05
   5.73719978       1.26056502E-05
   5.74919987       1.25265069E-05
   5.76119995       1.26043460E-05
   5.77320004       1.28604324E-05
   5.78520012       1.33095582E-05
   5.79720020       1.39595095E-05
   5.80919981       1.48107210E-05
   5.82119989       1.58561470E-05
   5.83319998       1.70813237E-05
   5.84520006       1.84646160E-05
   5.85720015       1.99776714E-05
   5.86920023       2.15860364E-05
   5.88119984       2.32499515E-05
   5.89319992       2.49253153E-05
   5.90520000       2.65647905E-05
   5.91720009       2.81190532E-05
   5.92920017       2.95381469E-05
   5.94119978       3.07729097E-05
   5.95319986       3.17764898E-05
   5.96519995       3.25058390E-05
   5.97720003       3.29232134E-05
   5.98920012       3.29975919E-05
   6.00120020       3.27059679E-05
   6.01319981       3.20344952E-05
   6.02519989       3.09793759E-05
   6.03719997       2.95475074E-05
   6.04920006       2.77568197E-05
   6.06120014       2.56362327E-05
   6.07320023       2.32252933E-05
   6.08519983       2.05734177E-05
   6.09719992       1.77387847E-05
   6.10920000       1.47868695E-05
   6.12120008       1.17886921E-05
   6.13320017       8.81879259E-06
   6.14519978       5.95300389E-06
   6.15719986       3.26610575E-06
   6.16919994       8.29419605E-07
   6.18120003      -1.29156103E-06
   6.19320011      -3.03941761E-06
   6.20520020      -4.36684013E-06
   6.21719980      -5.23837025E-06
   6.22919989      -5.63176491E-06
   6.24119997      -5.53893597E-06
   6.25320005      -4.96639814E-06
   6.26520014      -3.93520941E-06
   6.27720022      -2.48039350E-06
   6.28919983      -6.49849483E-07
   6.30119991       1.49721609E-06
   6.31320000       3.89228398E-06
   6.32520008       6.45987484E-06
   6.33720016       9.12017276E-06
   6.34919977       1.17918198E-05
   6.36119986       1.43947727E-05
   6.37319994       1.68531024E-05
   6.38520002       1.90976316E-05
   6.39720011       2.10682738E-05
   6.40920019       2.27160144E-05
   6.42119980       2.40044028E-05
   6.43319988       2.49105597E-05
   6.44519997       2.54255865E-05
   6.45720005       2.55544473E-05
   6.46920013       2.53152739E-05
   6.48120022       2.47382013E-05
   6.49319983       2.38637331E-05
   6.50519991       2.27407872E-05
   6.51719999       2.14244737E-05
   6.52920008       1.99737260E-05
   6.54120016       1.84488963E-05
   6.55319977       1.69094201E-05
   6.56519985       1.54116460E-05
   6.57719994       1.40069151E-05
   6.58920002       1.27399489E-05
   6.60120010       1.16476076E-05
   6.61320019       1.07580245E-05
   6.62519979       1.00901370E-05
   6.63719988       9.65358777E-06
   6.64919996       9.44896510E-06
   6.66120005       9.46833734E-06
   6.67320013       9.69602388E-06
   6.68520021       1.01095520E-05
   6.69719982       1.06807465E-05
   6.70919991       1.13768911E-05
   6.72119999       1.21619269E-05
   6.73320007       1.29976588E-05
   6.74520016       1.38449441E-05
   6.75719976       1.46648345E-05
   6.76919985       1.54196860E-05
   6.78119993       1.60742056E-05
   6.79320002       1.65964302E-05
   6.80520010       1.69586529E-05
   6.81720018       1.71382544E-05
   6.82919979       1.71184329E-05
   6.84119987       1.68888273E-05
   6.85319996       1.64459689E-05
   6.86520004       1.57935829E-05
   6.87720013       1.49426760E-05
   6.88920021       1.39113927E-05
   6.90119982       1.27246321E-05
   6.91319990       1.14133927E-05
   6.92519999       1.00138659E-05
   6.93720007       8.56626866E-06
   6.94920015       7.11346547E-06
   6.96120024       5.69942085E-06
   6.97319984       4.36752998E-06
   6.98519993       3.15891316E-06
   6.99720001       2.11075030E-06
   7.00920010       1.25473605E-06
   7.02120018       6.15738543E-07
   7.03319979       2.10732381E-07
   7.04519987       4.80631073E-08
   7.05719995       1.27087006E-07
   7.06920004       4.38202534E-07
   7.08120012       9.63277330E-07
   7.09320021       1.67644748E-06
   7.10519981       2.54524866E-06
   7.11719990       3.53202222E-06
   7.12919998       4.59552302E-06
   7.14120007       5.69265558E-06
   7.15320015       6.78024298E-06
   7.16520023       7.81676499E-06
   7.17719984       8.76395916E-06
   7.18919992       9.58824148E-06
   7.20120001       1.02618742E-05
   7.21320009       1.07638425E-05
   7.22520018       1.10804140E-05
   7.23719978       1.12053722E-05
   7.24919987       1.11399304E-05
   7.26119995       1.08923477E-05
   7.27320004       1.04772789E-05
   7.28520012       9.91490197E-06
   7.29720020       9.22985964E-06
   7.30919981       8.45009345E-06
   7.32119989       7.60558214E-06
   7.33319998       6.72707847E-06
   7.34520006       5.84485679E-06
   7.35720015       4.98754480E-06
   7.36920023       4.18106811E-06
   7.38119984       3.44774571E-06
   7.39319992       2.80557310E-06
   7.40520000       2.26770840E-06
   7.41720009       1.84219016E-06
   7.42920017       1.53188444E-06
   7.44119978       1.33466551E-06
   7.45319986       1.24381370E-06
   7.46519995       1.24861174E-06
   7.47720003       1.33510810E-06
   7.48920012       1.48700281E-06
   7.50120020       1.68660995E-06
   7.51319981       1.91583990E-06
   7.52519989       2.15714726E-06
   7.53719997       2.39438828E-06
   7.54920006       2.61353580E-06
   7.56120014       2.80320455E-06
   7.57320023       2.95496147E-06
   7.58519983       3.06339871E-06
   7.59719992       3.12596853E-06
   7.60920000       3.14259501E-06
   7.62120008       3.11510053E-06
   7.63320017       3.04648961E-06
   7.64519978       2.94016240E-06
   7.65719986       2.79911183E-06
   7.66919994       2.62519097E-06
   7.68120003       2.41851330E-06
   7.69320011       2.17704314E-06
   7.70520020       1.89643526E-06
   7.71719980       1.57013358E-06
   7.72919989       1.18974970E-06
   7.74119997       7.45699140E-07
   7.75320005       2.28054404E-07
   7.76520014      -3.72438762E-07
   7.77720022      -1.06326138E-06
   7.78919983      -1.84901694E-06
   7.80119991      -2.73041860E-06
   7.81320000      -3.70345083E-06
   7.82520008      -4.75878414E-06
   7.83720016      -5.88150760E-06
   7.84919977      -7.05121920E-06
   7.86119986      -8.24249219E-06
   7.87319994      -9.42570659E-06
   7.88520002      -1.05682120E-05
   7.89720011      -1.16357587E-05
   7.90920019      -1.25941178E-05
   7.92119980      -1.34107968E-05
   7.93319988      -1.40567436E-05
   7.94519997      -1.45079348E-05
   7.95720005      -1.47467435E-05
   7.96920013      -1.47630226E-05
   7.98120022      -1.45548092E-05
   7.99319983      -1.41286209E-05
   8.00520039      -1.34993243E-05
   8.01720047      -1.26895766E-05
   8.02919960      -1.17288819E-05
   8.04119968      -1.06523003E-05
   8.05319977      -9.49890909E-06
   8.06519985      -8.31007492E-06
   8.07719994      -7.12766041E-06
   8.08920002      -5.99224359E-06
   8.10120010      -4.94146252E-06
   8.11320019      -4.00856015E-06
   8.12520027      -3.22120331E-06
   8.13720036      -2.60063052E-06
   8.14920044      -2.16115382E-06
   8.16119957      -1.91002687E-06
   8.17319965      -1.84765554E-06
   8.18519974      -1.96812334E-06
   8.19719982      -2.25997269E-06
   8.20919991      -2.70717919E-06
   8.22119999      -3.29024601E-06
   8.23320007      -3.98734801E-06
   8.24520016      -4.77545109E-06
   8.25720024      -5.63134427E-06
   8.26920033      -6.53253073E-06
   8.28120041      -7.45794205E-06
   8.29319954      -8.38844153E-06
   8.30519962      -9.30712213E-06
   8.31719971      -1.01993846E-05
   8.32919979      -1.10528408E-05
   8.34119987      -1.18570506E-05
   8.35319996      -1.26031573E-05
   8.36520004      -1.32834539E-05
   8.37720013      -1.38909236E-05
   8.38920021      -1.44188334E-05
   8.40120029      -1.48603822E-05
   8.41320038      -1.52084485E-05
   8.42520046      -1.54554764E-05
   8.43719959      -1.55934758E-05
   8.44919968      -1.56141723E-05
   8.46119976      -1.55092621E-05
   8.47319984      -1.52707653E-05
   8.48519993      -1.48914642E-05
   8.49720001      -1.43653979E-05
   8.50920010      -1.36883491E-05
   8.52120018      -1.28583533E-05
   8.53320026      -1.18761509E-05
   8.54520035      -1.07455962E-05
   8.55720043      -9.47397530E-06
   8.56919956      -8.07223932E-06
   8.58119965      -6.55513122E-06
   8.59319973      -4.94119422E-06
   8.60519981      -3.25267274E-06
   8.61719990      -1.51529468E-06
   8.62919998       2.42062043E-07
   8.64120007       1.98781117E-06
   8.65320015       3.68820633E-06
   8.66520023       5.30798752E-06
   8.67720032       6.81111896E-06
   8.68920040       8.16159900E-06
   8.70119953       9.32433886E-06
   8.71319962       1.02660715E-05
   8.72519970       1.09562861E-05
   8.73719978       1.13681499E-05
   8.74919987       1.14793866E-05
   8.76119995       1.12730813E-05
   8.77320004       1.07383785E-05
   8.78520012       9.87104340E-06
   8.79720020       8.67385279E-06
   8.80920029       7.15678743E-06
   8.82120037       5.33701950E-06
   8.83320045       3.23866584E-06
   8.84519958       8.92317985E-07
   8.85719967      -1.66564939E-06
   8.86919975      -4.39397309E-06
   8.88119984      -7.24756592E-06
   8.89319992      -1.01787145E-05
   8.90520000      -1.31383695E-05
   8.91720009      -1.60774598E-05
   8.92920017      -1.89482107E-05
   8.94120026      -2.17053621E-05
   8.95320034      -2.43073118E-05
   8.96520042      -2.67170726E-05
   8.97719955      -2.89030559E-05
   8.98919964      -3.08396557E-05
   9.00119972      -3.25076107E-05
   9.01319981      -3.38941427E-05
   9.02519989      -3.49929032E-05
   9.03719997      -3.58037105E-05
   9.04920006      -3.63321305E-05
   9.06120014      -3.65889427E-05
   9.07320023      -3.65894630E-05
   9.08520031      -3.63528379E-05
   9.09720039      -3.59013065E-05
   9.10919952      -3.52594252E-05
   9.12119961      -3.44533437E-05
   9.13319969      -3.35101286E-05
   9.14519978      -3.24571083E-05
   9.15719986      -3.13213277E-05
   9.16919994      -3.01290129E-05
   9.18120003      -2.89051532E-05
   9.19320011      -2.76731244E-05
   9.20520020      -2.64543687E-05
   9.21720028      -2.52681402E-05
   9.22920036      -2.41313173E-05
   9.24120045      -2.30582591E-05
   9.25319958      -2.20607235E-05
   9.26519966      -2.11478437E-05
   9.27719975      -2.03261370E-05
   9.28919983      -1.95995926E-05
   9.30119991      -1.89697803E-05
   9.31320000      -1.84360088E-05
   9.32520008      -1.79955186E-05
   9.33720016      -1.76436988E-05
   9.34920025      -1.73743083E-05
   9.36120033      -1.71797310E-05
   9.37320042      -1.70512121E-05
   9.38519955      -1.69790892E-05
   9.39719963      -1.69530285E-05
   9.40919971      -1.69622290E-05
   9.42119980      -1.69956293E-05
   9.43319988      -1.70420863E-05
   9.44519997      -1.70905587E-05
