 -0.622799993       0.00000000    
 -0.610800028       0.00000000    
 -0.598800004       0.00000000    
 -0.586799979      -1.32783530E-18
 -0.574800014      -9.52744065E-18
 -0.562799990      -3.79661641E-17
 -0.550800025      -1.10339210E-16
 -0.538800001      -2.61797185E-16
 -0.526799977      -5.43308320E-16
 -0.514800012      -1.03790356E-15
 -0.502799988      -1.89224704E-15
 -0.490799993      -3.34696832E-15
 -0.478799999      -5.72146573E-15
 -0.466800004      -9.29728096E-15
 -0.454800010      -1.40796468E-14
 -0.442799985      -1.95138485E-14
 -0.430799991      -2.43634187E-14
 -0.418799996      -2.70411931E-14
 -0.406800002      -2.66175174E-14
 -0.394800007      -2.44443002E-14
 -0.382800013      -2.58698245E-14
 -0.370799989      -4.10650314E-14
 -0.358799994      -8.38345371E-14
 -0.346799999      -1.67724138E-13
 -0.334800005      -2.99844486E-13
 -0.322800010      -4.74344197E-13
 -0.310799986      -6.68763493E-13
 -0.298799992      -8.46775503E-13
 -0.286799997      -9.69440890E-13
 -0.274800003      -1.01401179E-12
 -0.262800008      -9.95296293E-13
 -0.250800014      -9.81205351E-13
 -0.238800004      -1.09317731E-12
 -0.226799995      -1.48510804E-12
 -0.214800000      -2.30125597E-12
 -0.202800006      -3.62267941E-12
 -0.190799996      -5.41988286E-12
 -0.178800002      -7.53272184E-12
 -0.166800007      -9.69435643E-12
 -0.154799998      -1.16037457E-11
 -0.142800003      -1.30335508E-11
 -0.130799994      -1.39430889E-11
 -0.118799999      -1.45559762E-11
 -0.106799997      -1.53650547E-11
  -9.48000029E-02  -1.70447892E-11
  -8.28000009E-02  -2.02802688E-11
  -7.07999989E-02  -2.55535003E-11
  -5.88000007E-02  -3.29509614E-11
  -4.67999987E-02  -4.20612017E-11
  -3.48000005E-02  -5.20126928E-11
  -2.28000004E-02  -6.16631746E-11
  -1.08000003E-02  -6.99025629E-11
   1.20000006E-03  -7.59883545E-11
   1.31999999E-02  -7.98105956E-11
   2.52000000E-02  -8.19932525E-11
   3.72000001E-02  -8.37805936E-11
   4.91999984E-02  -8.67201241E-11
   6.12000003E-02  -9.22195237E-11
   7.32000023E-02  -1.01101481E-10
   8.51999968E-02  -1.13291806E-10
   9.71999988E-02  -1.27745411E-10
  0.109200001      -1.42649281E-10
  0.121200003      -1.55859950E-10
  0.133200005      -1.65459604E-10
  0.145199999      -1.70273684E-10
  0.157199994      -1.70196565E-10
  0.169200003      -1.66221731E-10
  0.181199998      -1.60155500E-10
  0.193200007      -1.54084648E-10
  0.205200002      -1.49742010E-10
  0.217199996      -1.47950180E-10
  0.229200006      -1.48309642E-10
  0.241200000      -1.49237844E-10
  0.253199995      -1.48376325E-10
  0.265199989      -1.43284398E-10
  0.277200013      -1.32258399E-10
  0.289200008      -1.15071938E-10
  0.301200002      -9.34380837E-11
  0.313199997      -7.10482298E-11
  0.325199991      -5.31323527E-11
  0.337199986      -4.55933485E-11
  0.349200010      -5.38684687E-11
  0.361200005      -8.17416135E-11
  0.373199999      -1.30352160E-10
  0.385199994      -1.97612551E-10
  0.397199988      -2.78162049E-10
  0.409200013      -3.63866937E-10
  0.421200007      -4.44755954E-10
  0.433200002      -5.10185172E-10
  0.445199996      -5.49985668E-10
  0.457199991      -5.55374191E-10
  0.469199985      -5.19493060E-10
  0.481200010      -4.37568315E-10
  0.493200004      -3.06791814E-10
  0.505200028      -1.26103739E-10
  0.517199993       1.03950758E-10
  0.529200017       3.81203819E-10
  0.541199982       7.01739111E-10
  0.553200006       1.05986275E-09
  0.565199971       1.44847956E-09
  0.577199996       1.86018523E-09
  0.589200020       2.28927743E-09
  0.601199985       2.73468004E-09
  0.613200009       3.20353721E-09
  0.625199974       3.71505715E-09
  0.637199998       4.30415836E-09
  0.649200022       5.02465758E-09
  0.661199987       5.95215033E-09
  0.673200011       7.18735071E-09
  0.685199976       8.86131524E-09
  0.697200000       1.11447012E-08
  0.709200025       1.42637200E-08
  0.721199989       1.85257019E-08
  0.733200014       2.43574210E-08
  0.745199978       3.23590896E-08
  0.757200003       4.33766374E-08
  0.769200027       5.85946260E-08
  0.781199992       7.96516062E-08
  0.793200016       1.08779176E-07
  0.805199981       1.48965256E-07
  0.817200005       2.04140989E-07
  0.829200029       2.79389468E-07
  0.841199994       3.81171930E-07
  0.853200018       5.17565411E-07
  0.865199983       6.98502049E-07
  0.877200007       9.35999196E-07
  0.889199972       1.24436428E-06
  0.901199996       1.64035760E-06
  0.913200021       2.14329543E-06
  0.925199986       2.77507297E-06
  0.937200010       3.56008627E-06
  0.949199975       4.52504264E-06
  0.961199999       5.69863141E-06
  0.973200023       7.11106259E-06
  0.985199988       8.79344407E-06
  0.997200012       1.07770193E-05
   1.00919998       1.30922645E-05
   1.02119994       1.57678533E-05
   1.03320003       1.88295289E-05
   1.04519999       2.22989147E-05
   1.05719995       2.61922833E-05
   1.06920004       3.05193753E-05
   1.08120000       3.52822899E-05
   1.09319997       4.04745151E-05
   1.10520005       4.60801639E-05
   1.11720002       5.20734793E-05
   1.12919998       5.84186055E-05
   1.14119995       6.50697621E-05
   1.15320003       7.19717209E-05
   1.16520000       7.90607592E-05
   1.17719996       8.62658635E-05
   1.18920004       9.35104254E-05
   1.20120001       1.00714104E-04
   1.21319997       1.07795036E-04
   1.22520006       1.14672141E-04
   1.23720002       1.21267520E-04
   1.24919999       1.27508800E-04
   1.26119995       1.33331399E-04
   1.27320004       1.38680407E-04
   1.28520000       1.43512254E-04
   1.29719996       1.47795959E-04
   1.30920005       1.51513828E-04
   1.32120001       1.54661757E-04
   1.33319998       1.57248884E-04
   1.34519994       1.59296978E-04
   1.35720003       1.60839147E-04
   1.36919999       1.61918375E-04
   1.38119996       1.62585726E-04
   1.39320004       1.62898228E-04
   1.40520000       1.62917015E-04
   1.41719997       1.62705110E-04
   1.42920005       1.62325639E-04
   1.44120002       1.61840086E-04
   1.45319998       1.61306772E-04
   1.46519995       1.60779819E-04
   1.47720003       1.60308220E-04
   1.48920000       1.59935342E-04
   1.50119996       1.59698538E-04
   1.51320004       1.59629228E-04
   1.52520001       1.59752919E-04
   1.53719997       1.60089548E-04
   1.54920006       1.60653697E-04
   1.56120002       1.61455100E-04
   1.57319999       1.62498851E-04
   1.58519995       1.63785924E-04
   1.59720004       1.65313482E-04
   1.60920000       1.67075239E-04
   1.62119997       1.69061866E-04
   1.63320005       1.71261490E-04
   1.64520001       1.73660053E-04
   1.65719998       1.76242029E-04
   1.66919994       1.78990958E-04
   1.68120003       1.81890253E-04
   1.69319999       1.84923876E-04
   1.70519996       1.88077174E-04
   1.71720004       1.91337647E-04
   1.72920001       1.94695691E-04
   1.74119997       1.98145121E-04
   1.75320005       2.01683666E-04
   1.76520002       2.05313205E-04
   1.77719998       2.09039819E-04
   1.78919995       2.12873609E-04
   1.80120003       2.16828179E-04
   1.81320000       2.20920105E-04
   1.82519996       2.25167954E-04
   1.83720005       2.29591285E-04
   1.84920001       2.34209539E-04
   1.86119998       2.39040746E-04
   1.87320006       2.44100200E-04
   1.88520002       2.49399309E-04
   1.89719999       2.54944374E-04
   1.90919995       2.60735367E-04
   1.92120004       2.66765186E-04
   1.93320000       2.73018755E-04
   1.94519997       2.79472442E-04
   1.95720005       2.86093826E-04
   1.96920002       2.92841578E-04
   1.98119998       2.99665553E-04
   1.99319994       3.06507456E-04
   2.00519991       3.13301513E-04
   2.01719999       3.19975603E-04
   2.02920008       3.26452486E-04
   2.04119992       3.32651427E-04
   2.05320001       3.38490034E-04
   2.06520009       3.43886059E-04
   2.07719994       3.48759466E-04
   2.08920002       3.53034353E-04
   2.10120010       3.56640929E-04
   2.11319995       3.59517115E-04
   2.12520003       3.61610088E-04
   2.13720012       3.62877501E-04
   2.14919996       3.63288214E-04
   2.16120005       3.62822844E-04
   2.17319989       3.61473707E-04
   2.18519998       3.59244470E-04
   2.19720006       3.56149685E-04
   2.20919991       3.52213945E-04
   2.22119999       3.47470748E-04
   2.23320007       3.41961480E-04
   2.24519992       3.35734570E-04
   2.25720000       3.28844180E-04
   2.26920009       3.21349624E-04
   2.28119993       3.13314493E-04
   2.29320002       3.04806250E-04
   2.30520010       2.95895705E-04
   2.31719995       2.86656723E-04
   2.32920003       2.77165964E-04
   2.34120011       2.67502444E-04
   2.35319996       2.57747044E-04
   2.36520004       2.47982010E-04
   2.37719989       2.38289867E-04
   2.38919997       2.28752440E-04
   2.40120006       2.19449386E-04
   2.41319990       2.10456637E-04
   2.42519999       2.01844727E-04
   2.43720007       1.93676853E-04
   2.44919991       1.86007426E-04
   2.46120000       1.78880422E-04
   2.47320008       1.72328277E-04
   2.48519993       1.66371115E-04
   2.49720001       1.61016505E-04
   2.50920010       1.56259688E-04
   2.52119994       1.52084394E-04
   2.53320003       1.48464169E-04
   2.54520011       1.45363985E-04
   2.55719995       1.42742429E-04
   2.56920004       1.40553821E-04
   2.58119988       1.38750620E-04
   2.59319997       1.37285620E-04
   2.60520005       1.36113915E-04
   2.61719990       1.35194627E-04
   2.62919998       1.34492075E-04
   2.64120007       1.33976413E-04
   2.65319991       1.33623922E-04
   2.66520000       1.33416557E-04
   2.67720008       1.33341164E-04
   2.68919992       1.33388327E-04
   2.70120001       1.33550915E-04
   2.71320009       1.33822570E-04
   2.72519994       1.34196074E-04
   2.73720002       1.34661968E-04
   2.74920011       1.35207330E-04
   2.76119995       1.35814931E-04
   2.77320004       1.36462666E-04
   2.78520012       1.37123599E-04
   2.79719996       1.37766299E-04
   2.80920005       1.38355652E-04
   2.82119989       1.38854099E-04
   2.83319998       1.39223048E-04
   2.84520006       1.39424650E-04
   2.85719991       1.39423530E-04
   2.86919999       1.39188734E-04
   2.88120008       1.38695264E-04
   2.89319992       1.37925774E-04
   2.90520000       1.36871648E-04
   2.91720009       1.35533963E-04
   2.92919993       1.33923997E-04
   2.94120002       1.32063215E-04
   2.95320010       1.29982887E-04
   2.96519995       1.27723193E-04
   2.97720003       1.25331921E-04
   2.98920012       1.22862824E-04
   3.00119996       1.20373516E-04
   3.01320004       1.17923359E-04
   3.02519989       1.15571027E-04
   3.03719997       1.13372174E-04
   3.04920006       1.11377187E-04
   3.06119990       1.09629051E-04
   3.07319999       1.08161599E-04
   3.08520007       1.06998123E-04
   3.09719992       1.06150364E-04
   3.10920000       1.05618063E-04
   3.12120008       1.05389008E-04
   3.13319993       1.05439583E-04
   3.14520001       1.05735919E-04
   3.15720010       1.06235457E-04
   3.16919994       1.06888932E-04
   3.18120003       1.07642685E-04
   3.19320011       1.08441076E-04
   3.20519996       1.09229084E-04
   3.21720004       1.09954693E-04
   3.22919989       1.10571156E-04
   3.24119997       1.11038949E-04
   3.25320005       1.11327179E-04
   3.26519990       1.11414716E-04
   3.27719998       1.11290647E-04
   3.28920007       1.10954235E-04
   3.30119991       1.10414381E-04
   3.31320000       1.09688546E-04
   3.32520008       1.08801330E-04
   3.33719993       1.07782646E-04
   3.34920001       1.06665742E-04
   3.36120009       1.05485189E-04
   3.37319994       1.04274812E-04
   3.38520002       1.03066006E-04
   3.39720011       1.01886209E-04
   3.40919995       1.00757854E-04
   3.42120004       9.96977687E-05
   3.43319988       9.87170279E-05
   3.44519997       9.78212411E-05
   3.45720005       9.70112451E-05
   3.46919990       9.62841150E-05
   3.48119998       9.56344229E-05
   3.49320006       9.50555695E-05
   3.50519991       9.45411593E-05
   3.51719999       9.40862665E-05
   3.52920008       9.36884389E-05
   3.54119992       9.33484844E-05
   3.55320001       9.30708120E-05
   3.56520009       9.28634472E-05
   3.57719994       9.27375950E-05
   3.58920002       9.27068904E-05
   3.60120010       9.27863148E-05
   3.61319995       9.29909584E-05
   3.62520003       9.33346746E-05
   3.63720012       9.38287340E-05
   3.64919996       9.44806015E-05
   3.66120005       9.52929404E-05
   3.67319989       9.62628619E-05
   3.68519998       9.73815695E-05
   3.69720006       9.86342493E-05
   3.70919991       1.00000427E-04
   3.72119999       1.01454578E-04
   3.73320007       1.02967097E-04
   3.74519992       1.04505423E-04
   3.75720000       1.06035433E-04
   3.76920009       1.07522799E-04
   3.78119993       1.08934386E-04
   3.79320002       1.10239496E-04
   3.80520010       1.11411005E-04
   3.81719995       1.12426198E-04
   3.82920003       1.13267466E-04
   3.84120011       1.13922615E-04
   3.85319996       1.14385010E-04
   3.86520004       1.14653485E-04
   3.87719989       1.14732044E-04
   3.88919997       1.14629460E-04
   3.90120006       1.14358700E-04
   3.91319990       1.13936396E-04
   3.92519999       1.13382186E-04
   3.93720007       1.12718109E-04
   3.94919991       1.11968082E-04
   3.96120000       1.11157322E-04
   3.97320008       1.10311950E-04
   3.98519993       1.09458546E-04
   3.99720001       1.08623746E-04
   4.00920010       1.07833897E-04
   4.02120018       1.07114683E-04
   4.03319979       1.06490610E-04
   4.04519987       1.05984589E-04
   4.05719995       1.05617342E-04
   4.06920004       1.05406813E-04
   4.08120012       1.05367559E-04
   4.09320021       1.05510073E-04
   4.10519981       1.05840256E-04
   4.11719990       1.06358893E-04
   4.12919998       1.07061322E-04
   4.14120007       1.07937187E-04
   4.15320015       1.08970526E-04
   4.16520023       1.10139968E-04
   4.17719984       1.11419286E-04
   4.18919992       1.12778092E-04
   4.20120001       1.14182840E-04
   4.21320009       1.15597890E-04
   4.22520018       1.16986790E-04
   4.23719978       1.18313532E-04
   4.24919987       1.19543794E-04
   4.26119995       1.20646029E-04
   4.27320004       1.21592442E-04
   4.28520012       1.22359648E-04
   4.29720020       1.22929167E-04
   4.30919981       1.23287566E-04
   4.32119989       1.23426391E-04
   4.33319998       1.23341786E-04
   4.34520006       1.23033999E-04
   4.35720015       1.22506710E-04
   4.36920023       1.21766352E-04
   4.38119984       1.20821285E-04
   4.39319992       1.19681230E-04
   4.40520000       1.18356707E-04
   4.41720009       1.16858704E-04
   4.42920017       1.15198542E-04
   4.44119978       1.13387883E-04
   4.45319986       1.11439054E-04
   4.46519995       1.09365377E-04
   4.47720003       1.07181659E-04
   4.48920012       1.04904626E-04
   4.50120020       1.02553386E-04
   4.51319981       1.00149657E-04
   4.52519989       9.77179152E-05
   4.53719997       9.52852643E-05
   4.54920006       9.28811423E-05
   4.56120014       9.05367560E-05
   4.57320023       8.82843524E-05
   4.58519983       8.61563749E-05
   4.59719992       8.41844885E-05
   4.60920000       8.23985611E-05
   4.62120008       8.08257610E-05
   4.63320017       7.94895896E-05
   4.64519978       7.84092117E-05
   4.65719986       7.75987864E-05
   4.66919994       7.70671322E-05
   4.68120003       7.68174432E-05
   4.69320011       7.68472892E-05
   4.70520020       7.71487321E-05
   4.71719980       7.77086243E-05
   4.72919989       7.85089578E-05
   4.74119997       7.95274173E-05
   4.75320005       8.07379402E-05
   4.76520014       8.21113354E-05
   4.77720022       8.36159670E-05
   4.78919983       8.52185040E-05
   4.80119991       8.68846546E-05
   4.81320000       8.85799745E-05
   4.82520008       9.02706670E-05
   4.83720016       9.19244194E-05
   4.84919977       9.35113057E-05
   4.86119986       9.50045142E-05
   4.87319994       9.63812272E-05
   4.88520002       9.76233132E-05
   4.89720011       9.87178719E-05
   4.90920019       9.96577000E-05
   4.92119980       1.00441466E-04
   4.93319988       1.01073638E-04
   4.94519997       1.01564176E-04
   4.95720005       1.01927872E-04
   4.96920013       1.02183483E-04
   4.98120022       1.02352547E-04
   4.99319983       1.02458129E-04
   5.00519991       1.02523409E-04
   5.01719999       1.02570273E-04
   5.02920008       1.02618040E-04
   5.04120016       1.02682374E-04
   5.05319977       1.02774393E-04
   5.06519985       1.02900238E-04
   5.07719994       1.03060898E-04
   5.08920002       1.03252481E-04
   5.10120010       1.03466860E-04
   5.11320019       1.03692597E-04
   5.12519979       1.03916151E-04
   5.13719988       1.04123261E-04
   5.14919996       1.04300394E-04
   5.16120005       1.04436127E-04
   5.17320013       1.04522449E-04
   5.18520021       1.04555736E-04
   5.19719982       1.04537488E-04
   5.20919991       1.04474675E-04
   5.22119999       1.04379673E-04
   5.23320007       1.04269828E-04
   5.24520016       1.04166633E-04
   5.25719976       1.04094725E-04
   5.26919985       1.04080522E-04
   5.28119993       1.04150866E-04
   5.29320002       1.04331571E-04
   5.30520010       1.04646140E-04
   5.31720018       1.05114479E-04
   5.32919979       1.05752013E-04
   5.34119987       1.06568928E-04
   5.35319996       1.07569736E-04
   5.36520004       1.08753084E-04
   5.37720013       1.10111832E-04
   5.38920021       1.11633373E-04
   5.40119982       1.13300048E-04
   5.41319990       1.15089773E-04
   5.42519999       1.16976677E-04
   5.43720007       1.18931806E-04
   5.44920015       1.20923745E-04
   5.46120024       1.22919344E-04
   5.47319984       1.24884216E-04
   5.48519993       1.26783358E-04
   5.49720001       1.28581582E-04
   5.50920010       1.30244036E-04
   5.52120018       1.31736713E-04
   5.53319979       1.33026973E-04
   5.54519987       1.34084243E-04
   5.55719995       1.34880582E-04
   5.56920004       1.35391572E-04
   5.58120012       1.35597104E-04
   5.59320021       1.35482274E-04
   5.60519981       1.35038252E-04
   5.61719990       1.34263057E-04
   5.62919998       1.33162277E-04
   5.64120007       1.31749679E-04
   5.65320015       1.30047498E-04
   5.66520023       1.28086525E-04
   5.67719984       1.25905906E-04
   5.68919992       1.23552672E-04
   5.70120001       1.21080819E-04
   5.71320009       1.18550139E-04
   5.72520018       1.16024756E-04
   5.73719978       1.13571296E-04
   5.74919987       1.11256959E-04
   5.76119995       1.09147390E-04
   5.77320004       1.07304499E-04
   5.78520012       1.05784391E-04
   5.79720020       1.04635350E-04
   5.80919981       1.03896120E-04
   5.82119989       1.03594444E-04
   5.83319998       1.03745966E-04
   5.84520006       1.04353581E-04
   5.85720015       1.05407176E-04
   5.86920023       1.06883854E-04
   5.88119984       1.08748623E-04
   5.89319992       1.10955480E-04
   5.90520000       1.13448958E-04
   5.91720009       1.16165917E-04
   5.92920017       1.19037708E-04
   5.94119978       1.21992474E-04
   5.95319986       1.24957558E-04
   5.96519995       1.27861960E-04
   5.97720003       1.30638567E-04
   5.98920012       1.33226407E-04
   6.00120020       1.35572453E-04
   6.01319981       1.37633149E-04
   6.02519989       1.39375596E-04
   6.03719997       1.40778138E-04
   6.04920006       1.41830620E-04
   6.06120014       1.42534132E-04
   6.07320023       1.42900259E-04
   6.08519983       1.42949895E-04
   6.09719992       1.42711811E-04
   6.10920000       1.42220772E-04
   6.12120008       1.41515586E-04
   6.13320017       1.40637043E-04
   6.14519978       1.39625772E-04
   6.15719986       1.38520336E-04
   6.16919994       1.37355542E-04
   6.18120003       1.36160990E-04
   6.19320011       1.34960093E-04
   6.20520020       1.33769645E-04
   6.21719980       1.32599584E-04
   6.22919989       1.31453577E-04
   6.24119997       1.30329834E-04
   6.25320005       1.29222302E-04
   6.26520014       1.28122279E-04
   6.27720022       1.27020059E-04
   6.28919983       1.25906809E-04
   6.30119991       1.24776241E-04
   6.31320000       1.23626189E-04
   6.32520008       1.22459969E-04
   6.33720016       1.21287267E-04
   6.34919977       1.20124598E-04
   6.36119986       1.18995369E-04
   6.37319994       1.17929354E-04
   6.38520002       1.16961681E-04
   6.39720011       1.16131378E-04
   6.40920019       1.15479590E-04
   6.42119980       1.15047442E-04
   6.43319988       1.14873765E-04
   6.44519997       1.14992821E-04
   6.45720005       1.15432078E-04
   6.46920013       1.16210300E-04
   6.48120022       1.17335847E-04
   6.49319983       1.18805568E-04
   6.50519991       1.20604098E-04
   6.51719999       1.22703786E-04
   6.52920008       1.25065169E-04
   6.54120016       1.27637977E-04
   6.55319977       1.30362663E-04
   6.56519985       1.33172405E-04
   6.57719994       1.35995389E-04
   6.58920002       1.38757314E-04
   6.60120010       1.41384066E-04
   6.61320019       1.43804311E-04
   6.62519979       1.45951955E-04
   6.63719988       1.47768427E-04
   6.64919996       1.49204498E-04
   6.66120005       1.50221764E-04
   6.67320013       1.50793698E-04
   6.68520021       1.50906169E-04
   6.69719982       1.50557564E-04
   6.70919991       1.49758431E-04
   6.72119999       1.48530802E-04
   6.73320007       1.46907085E-04
   6.74520016       1.44928810E-04
   6.75719976       1.42645134E-04
   6.76919985       1.40111311E-04
   6.78119993       1.37387047E-04
   6.79320002       1.34534886E-04
   6.80520010       1.31618726E-04
   6.81720018       1.28702348E-04
   6.82919979       1.25848135E-04
   6.84119987       1.23115882E-04
   6.85319996       1.20561694E-04
   6.86520004       1.18237069E-04
   6.87720013       1.16187999E-04
   6.88920021       1.14454269E-04
   6.90119982       1.13068723E-04
   6.91319990       1.12056747E-04
   6.92519999       1.11435729E-04
   6.93720007       1.11214722E-04
   6.94920015       1.11394111E-04
   6.96120024       1.11965528E-04
   6.97319984       1.12911861E-04
   6.98519993       1.14207418E-04
   6.99720001       1.15818395E-04
   7.00920010       1.17703457E-04
   7.02120018       1.19814642E-04
   7.03319979       1.22098500E-04
   7.04519987       1.24497383E-04
   7.05719995       1.26951069E-04
   7.06920004       1.29398410E-04
   7.08120012       1.31779103E-04
   7.09320021       1.34035523E-04
   7.10519981       1.36114468E-04
   7.11719990       1.37968760E-04
   7.12919998       1.39558673E-04
   7.14120007       1.40853022E-04
   7.15320015       1.41830111E-04
   7.16520023       1.42478093E-04
   7.17719984       1.42795194E-04
   7.18919992       1.42789359E-04
   7.20120001       1.42477627E-04
   7.21320009       1.41885277E-04
   7.22520018       1.41044497E-04
   7.23719978       1.39992961E-04
   7.24919987       1.38772259E-04
   7.26119995       1.37426236E-04
   7.27320004       1.35999318E-04
   7.28520012       1.34534886E-04
   7.29720020       1.33073874E-04
   7.30919981       1.31653433E-04
   7.32119989       1.30305896E-04
   7.33319998       1.29057968E-04
   7.34520006       1.27930165E-04
   7.35720015       1.26936488E-04
   7.36920023       1.26084487E-04
   7.38119984       1.25375358E-04
   7.39319992       1.24804545E-04
   7.40520000       1.24362312E-04
   7.41720009       1.24034661E-04
   7.42920017       1.23804290E-04
   7.44119978       1.23651655E-04
   7.45319986       1.23556165E-04
   7.46519995       1.23497215E-04
   7.47720003       1.23455378E-04
   7.48920012       1.23413265E-04
   7.50120020       1.23356454E-04
   7.51319981       1.23274047E-04
   7.52519989       1.23159232E-04
   7.53719997       1.23009420E-04
   7.54920006       1.22826299E-04
   7.56120014       1.22615515E-04
   7.57320023       1.22386278E-04
   7.58519983       1.22150683E-04
   7.59719992       1.21922909E-04
   7.60920000       1.21718236E-04
   7.62120008       1.21552177E-04
   7.63320017       1.21439356E-04
   7.64519978       1.21392673E-04
   7.65719986       1.21422454E-04
   7.66919994       1.21535850E-04
   7.68120003       1.21736382E-04
   7.69320011       1.22023746E-04
   7.70520020       1.22393816E-04
   7.71719980       1.22838974E-04
   7.72919989       1.23348451E-04
   7.74119997       1.23908962E-04
   7.75320005       1.24505328E-04
   7.76520014       1.25121194E-04
   7.77720022       1.25739767E-04
   7.78919983       1.26344414E-04
   7.80119991       1.26919287E-04
   7.81320000       1.27449792E-04
   7.82520008       1.27922904E-04
   7.83720016       1.28327505E-04
   7.84919977       1.28654428E-04
   7.86119986       1.28896470E-04
   7.87319994       1.29048378E-04
   7.88520002       1.29106658E-04
   7.89720011       1.29069507E-04
   7.90920019       1.28936605E-04
   7.92119980       1.28709042E-04
   7.93319988       1.28389205E-04
   7.94519997       1.27980835E-04
   7.95720005       1.27488966E-04
   7.96920013       1.26920058E-04
   7.98120022       1.26281928E-04
   7.99319983       1.25583887E-04
   8.00520039       1.24836675E-04
   8.01720047       1.24052269E-04
   8.02919960       1.23243808E-04
   8.04119968       1.22425277E-04
   8.05319977       1.21611207E-04
   8.06519985       1.20816294E-04
   8.07719994       1.20055025E-04
   8.08920002       1.19341261E-04
   8.10120010       1.18687916E-04
   8.11320019       1.18106669E-04
   8.12520027       1.17607735E-04
   8.13720036       1.17199728E-04
   8.14920044       1.16889605E-04
   8.16119957       1.16682764E-04
   8.17319965       1.16583105E-04
   8.18519974       1.16593263E-04
   8.19719982       1.16714764E-04
   8.20919991       1.16948177E-04
   8.22119999       1.17293333E-04
   8.23320007       1.17749303E-04
   8.24520016       1.18314441E-04
   8.25720024       1.18986180E-04
   8.26920033       1.19760858E-04
   8.28120041       1.20633333E-04
   8.29319954       1.21596626E-04
   8.30519962       1.22641519E-04
   8.31719971       1.23756210E-04
   8.32919979       1.24926039E-04
   8.34119987       1.26133265E-04
   8.35319996       1.27357198E-04
   8.36520004       1.28574335E-04
   8.37720013       1.29758773E-04
   8.38920021       1.30882778E-04
   8.40120029       1.31917637E-04
   8.41320038       1.32834597E-04
   8.42520046       1.33605907E-04
   8.43719959       1.34205999E-04
   8.44919968       1.34612608E-04
   8.46119976       1.34807968E-04
   8.47319984       1.34779781E-04
   8.48519993       1.34522066E-04
   8.49720001       1.34035799E-04
   8.50920010       1.33329231E-04
   8.52120018       1.32417976E-04
   8.53320026       1.31324763E-04
   8.54520035       1.30078886E-04
   8.55720043       1.28715401E-04
   8.56919956       1.27274106E-04
   8.58119965       1.25798251E-04
   8.59319973       1.24333266E-04
   8.60519981       1.22925223E-04
   8.61719990       1.21619443E-04
   8.62919998       1.20458986E-04
   8.64120007       1.19483338E-04
   8.65320015       1.18727075E-04
   8.66520023       1.18218828E-04
   8.67720032       1.17980308E-04
   8.68920040       1.18025739E-04
   8.70119953       1.18361357E-04
   8.71319962       1.18985357E-04
   8.72519970       1.19887962E-04
   8.73719978       1.21051817E-04
   8.74919987       1.22452606E-04
   8.76119995       1.24059836E-04
   8.77320004       1.25837832E-04
   8.78520012       1.27746753E-04
   8.79720020       1.29743828E-04
   8.80920029       1.31784473E-04
   8.82120037       1.33823545E-04
   8.83320045       1.35816372E-04
   8.84519958       1.37719922E-04
   8.85719967       1.39493641E-04
   8.86919975       1.41100274E-04
   8.88119984       1.42506615E-04
   8.89319992       1.43683923E-04
   8.90520000       1.44608406E-04
   8.91720009       1.45261438E-04
   8.92920017       1.45629689E-04
   8.94120026       1.45705329E-04
   8.95320034       1.45485916E-04
   8.96520042       1.44974416E-04
   8.97719955       1.44179212E-04
   8.98919964       1.43113866E-04
   9.00119972       1.41797063E-04
   9.01319981       1.40252276E-04
   9.02519989       1.38507618E-04
   9.03719997       1.36595365E-04
   9.04920006       1.34551461E-04
   9.06120014       1.32415022E-04
   9.07320023       1.30227461E-04
   9.08520031       1.28031723E-04
   9.09720039       1.25871215E-04
   9.10919952       1.23788748E-04
   9.12119961       1.21825266E-04
   9.13319969       1.20018733E-04
   9.14519978       1.18402750E-04
   9.15719986       1.17005518E-04
   9.16919994       1.15848685E-04
   9.18120003       1.14946532E-04
   9.19320011       1.14305338E-04
   9.20520020       1.13923008E-04
   9.21720028       1.13789021E-04
   9.22920036       1.13884766E-04
   9.24120045       1.14184149E-04
   9.25319958       1.14654533E-04
   9.26519966       1.15258037E-04
   9.27719975       1.15953080E-04
   9.28919983       1.16696057E-04
   9.30119991       1.17443211E-04
   9.31320000       1.18152515E-04
   9.32520008       1.18785523E-04
   9.33720016       1.19309079E-04
   9.34920025       1.19696866E-04
   9.36120033       1.19930563E-04
   9.37320042       1.20000717E-04
   9.38519955       1.19907236E-04
   9.39719963       1.19659351E-04
   9.40919971       1.19275217E-04
   9.42119980       1.18780976E-04
   9.43319988       1.18209573E-04
   9.44519997       1.17599091E-04
