 -0.622799993       0.00000000    
 -0.610800028       0.00000000    
 -0.598800004       0.00000000    
 -0.586799979       0.00000000    
 -0.574800014       0.00000000    
 -0.562799990       0.00000000    
 -0.550800025       0.00000000    
 -0.538800001       0.00000000    
 -0.526799977      -1.65051393E-38
 -0.514800012      -3.55050714E-37
 -0.502799988      -5.04657755E-36
 -0.490799993      -4.70778055E-35
 -0.478799999      -3.15920627E-34
 -0.466800004      -1.62109873E-33
 -0.454800010      -6.69309880E-33
 -0.442799985      -2.30506096E-32
 -0.430799991      -6.78160441E-32
 -0.418799996      -1.72777616E-31
 -0.406800002      -3.82395671E-31
 -0.394800007      -7.26931443E-31
 -0.382800013      -1.13974315E-30
 -0.370799989      -1.28459264E-30
 -0.358799994      -2.95043134E-31
 -0.346799999       3.45429566E-30
 -0.334800005       1.22062243E-29
 -0.322800010       2.77300178E-29
 -0.310799986       4.87059016E-29
 -0.298799992       6.67088869E-29
 -0.286799997       6.26966993E-29
 -0.274800003       8.50601630E-30
 -0.262800008      -1.20350760E-28
 -0.250800014      -3.16515681E-28
 -0.238800004      -5.02855253E-28
 -0.226799995      -5.07860167E-28
 -0.214800000      -9.53729356E-29
 -0.202800006       9.09409483E-28
 -0.190799996       2.39410194E-27
 -0.178800002       3.71885209E-27
 -0.166800007       3.66226788E-27
 -0.154799998       8.18290078E-28
 -0.142800003      -5.39638599E-27
 -0.130799994      -1.33328787E-26
 -0.118799999      -1.80954584E-26
 -0.106799997      -1.22399573E-26
  -9.48000029E-02   1.05726613E-26
  -8.28000009E-02   4.89597338E-26
  -7.07999989E-02   8.67547562E-26
  -5.88000007E-02   9.09988402E-26
  -4.67999987E-02   2.18776890E-26
  -3.48000005E-02  -1.41421079E-25
  -2.28000004E-02  -3.63980939E-25
  -1.08000003E-02  -5.26300041E-25
   1.20000006E-03  -4.33885922E-25
   1.31999999E-02   1.05136103E-25
   2.52000000E-02   1.12963195E-24
   3.72000001E-02   2.34843635E-24
   4.91999984E-02   3.04452090E-24
   6.12000003E-02   2.20408230E-24
   7.32000023E-02  -1.02384985E-24
   8.51999968E-02  -6.57809573E-24
   9.71999988E-02  -1.27264161E-23
  0.109200001      -1.58157208E-23
  0.121200003      -1.11217279E-23
  0.133200005       4.88625770E-24
  0.145199999       3.12502609E-23
  0.157199994       5.95616300E-23
  0.169200003       7.35120608E-23
  0.181199998       5.31412299E-23
  0.193200007      -1.54304964E-23
  0.205200002      -1.26886068E-22
  0.217199996      -2.45918918E-22
  0.229200006      -3.07031228E-22
  0.241200000      -2.32427150E-22
  0.253199995       3.03247314E-23
  0.265199989       4.59885259E-22
  0.277200013       9.23355808E-22
  0.289200008       1.17819489E-21
  0.301200002       9.38643907E-22
  0.313199997       1.01780498E-23
  0.325199991      -1.54103889E-21
  0.337199986      -3.25706001E-21
  0.349200010      -4.29259118E-21
  0.361200005      -3.63638412E-21
  0.373199999      -5.61145868E-22
  0.385199994       4.80380981E-21
  0.397199988       1.10118443E-20
  0.409200013       1.52630833E-20
  0.421200007       1.40637619E-20
  0.433200002       4.64316269E-21
  0.445199996      -1.31673437E-20
  0.457199991      -3.52939840E-20
  0.469199985      -5.29928219E-20
  0.481200010      -5.45392683E-20
  0.493200004      -2.93806120E-20
  0.505200028       2.59346212E-20
  0.517199993       1.01983208E-19
  0.529200017       1.73748525E-19
  0.541199982       2.03929851E-19
  0.553200006       1.53943042E-19
  0.565199971       1.50075241E-21
  0.577199996      -2.40010746E-19
  0.589200020      -5.08440367E-19
  0.601199985      -6.95362351E-19
  0.613200009      -6.70991387E-19
  0.625199974      -3.31593417E-19
  0.637199998       3.40640369E-19
  0.649200022       1.22575563E-18
  0.661199987       2.04906576E-18
  0.673200011       2.42335258E-18
  0.685199976       1.96019078E-18
  0.697200000       4.35075185E-19
  0.709200025      -2.03909120E-18
  0.721199989      -4.89975555E-18
  0.733200014      -7.15860466E-18
  0.745199978      -7.61247287E-18
  0.757200003      -5.23654421E-18
  0.769200027       3.22072672E-19
  0.781199992       8.30795475E-18
  0.793200016       1.66780622E-17
  0.805199981       2.23576795E-17
  0.817200005       2.20076332E-17
  0.829200029       1.32062925E-17
  0.841199994      -4.25093700E-18
  0.853200018      -2.73915582E-17
  0.865199983      -4.99430445E-17
  0.877200007      -6.34071262E-17
  0.889199972      -5.93659254E-17
  0.901199996      -3.26013452E-17
  0.913200021       1.58428430E-17
  0.925199986       7.68038191E-17
  0.937200010       1.33436819E-16
  0.949199975       1.64554467E-16
  0.961199999       1.50617890E-16
  0.973200023       8.10930550E-17
  0.985199988      -3.90022442E-17
  0.997200012      -1.85907559E-16
   1.00919998      -3.19406357E-16
   1.02119994      -3.91410801E-16
   1.03320003      -3.59712896E-16
   1.04519999      -2.03674419E-16
   1.05719995       6.29078201E-17
   1.06920004       3.86828777E-16
   1.08120000       6.82109068E-16
   1.09319997       8.49002511E-16
   1.10520005       8.02221675E-16
   1.11720002       5.01429899E-16
   1.12919998      -2.53114405E-17
   1.14119995      -6.74266760E-16
   1.15320003      -1.28082404E-15
   1.16520000      -1.65643603E-15
   1.17719996      -1.64071934E-15
   1.18920004      -1.15550117E-15
   1.20120001      -2.44424248E-16
   1.21319997       9.16836827E-16
   1.22520006       2.04821736E-15
   1.23720002       2.82894287E-15
   1.24919999       2.98393465E-15
   1.26119995       2.37043483E-15
   1.27320004       1.03874107E-15
   1.28520000      -7.55038128E-16
   1.29719996      -2.59474207E-15
   1.30920005      -4.00246022E-15
   1.32120001      -4.56645203E-15
   1.33319998      -4.06372315E-15
   1.34519994      -2.53966566E-15
   1.35720003      -3.16116111E-16
   1.36919999       2.08169041E-15
   1.38119996       4.06427076E-15
   1.39320004       5.14552907E-15
   1.40520000       5.08815698E-15
   1.41719997       3.97805000E-15
   1.42920005       2.19739299E-15
   1.44120002       2.96908659E-16
   1.45319998      -1.19755371E-15
   1.46519995      -1.98167085E-15
   1.47720003      -2.10065738E-15
   1.48920000      -1.95103706E-15
   1.50119996      -2.13547149E-15
   1.51320004      -3.20039689E-15
   1.52520001      -5.33518101E-15
   1.53719997      -8.14177894E-15
   1.54920006      -1.05816760E-14
   1.56120002      -1.11668894E-14
   1.57319999      -8.39035855E-15
   1.58519995      -1.30604254E-15
   1.59720004       9.90392172E-15
   1.60920000       2.35722950E-14
   1.62119997       3.65751402E-14
   1.63320005       4.48376992E-14
   1.64520001       4.42809784E-14
   1.65719998       3.20286637E-14
   1.66919994       7.57701295E-15
   1.68120003      -2.64204823E-14
   1.69319999      -6.40603835E-14
   1.70519996      -9.69586892E-14
   1.71720004      -1.15845254E-13
   1.72920001      -1.12716185E-13
   1.74119997      -8.30853263E-14
   1.75320005      -2.77785065E-14
   1.76520002       4.62500792E-14
   1.77719998       1.26426810E-13
   1.78919995       1.96459954E-13
   1.80120003       2.39374194E-13
   1.81320000       2.41124313E-13
   1.82519996       1.94045911E-13
   1.83720005       9.93697041E-14
   1.84920001      -3.18323587E-14
   1.86119998      -1.79612334E-13
   1.87320006      -3.17990724E-13
   1.88520002      -4.19266320E-13
   1.89719999      -4.59068168E-13
   1.90919995      -4.21251277E-13
   1.92120004      -3.01729480E-13
   1.93320000      -1.10490745E-13
   1.94519997       1.28674659E-13
   1.95720005       3.80842737E-13
   1.96920002       6.04744336E-13
   1.98119998       7.59047393E-13
   1.99319994       8.09230883E-13
   2.00519991       7.33989584E-13
   2.01719999       5.30086175E-13
   2.02920008       2.14709584E-13
   2.04119992      -1.75303430E-13
   2.05320001      -5.87569598E-13
   2.06520009      -9.61218301E-13
   2.07719994      -1.23596554E-12
   2.08920002      -1.36177397E-12
   2.10120010      -1.30739744E-12
   2.11319995      -1.06615357E-12
   2.12520003      -6.57689723E-13
   2.13720012      -1.25255627E-13
   2.14919996       4.71038790E-13
   2.16120005       1.06355918E-12
   2.17319989       1.58697491E-12
   2.18519998       1.98630023E-12
   2.19720006       2.22132230E-12
   2.20919991       2.26662612E-12
   2.22119999       2.10785447E-12
   2.23320007       1.73625892E-12
   2.24519992       1.14456047E-12
   2.25720000       3.27261140E-13
   2.26920009      -7.12436945E-13
   2.28119993      -1.94895532E-12
   2.29320002      -3.31641919E-12
   2.30520010      -4.69167327E-12
   2.31719995      -5.88525409E-12
   2.32920003      -6.64759046E-12
   2.34120011      -6.69586478E-12
   2.35319996      -5.76297473E-12
   2.36520004      -3.66441990E-12
   2.37719989      -3.72737865E-13
   2.38919997       3.91624493E-12
   2.40120006       8.74403588E-12
   2.41319990       1.33949900E-11
   2.42519999       1.69596594E-11
   2.43720007       1.84596973E-11
   2.44919991       1.70256378E-11
   2.46120000       1.21053896E-11
   2.47320008       3.66905378E-12
   2.48519993      -7.63235742E-12
   2.49720001      -2.03985058E-11
   2.50920010      -3.25395648E-11
   2.52119994      -4.14878652E-11
   2.53320003      -4.45631691E-11
   2.54520011      -3.94666695E-11
   2.55719995      -2.48502590E-11
   2.56920004      -8.81687247E-13
   2.58119988       3.02939097E-11
   2.59319997       6.43049086E-11
   2.60520005       9.46224835E-11
   2.61719990       1.13035518E-10
   2.62919998       1.10585228E-10
   2.64120007       7.89655702E-11
   2.65319991       1.23366638E-11
   2.66520000      -9.05659853E-11
   2.67720008      -2.24210248E-10
   2.68919992      -3.74171749E-10
   2.70120001      -5.15438803E-10
   2.71320009      -6.11393547E-10
   2.72519994      -6.13712359E-10
   2.73720002      -4.63331512E-10
   2.74920011      -9.24721758E-11
   2.76119995       5.72495051E-10
   2.77320004       1.60784341E-09
   2.78520012       3.08976977E-09
   2.79719996       5.09332221E-09
   2.80920005       7.69451702E-09
   2.82119989       1.09774980E-08
   2.83319998       1.50488155E-08
   2.84520006       2.00610959E-08
   2.85719991       2.62482942E-08
   2.86919999       3.39745476E-08
   2.88120008       4.37982166E-08
   2.89319992       5.65520928E-08
   2.90520000       7.34397361E-08
   2.91720009       9.61467066E-08
   2.92919993       1.26964522E-07
   2.94120002       1.68922938E-07
   2.95320010       2.25924694E-07
   2.96519995       3.02875975E-07
   2.97720003       4.05802894E-07
   2.98920012       5.41944075E-07
   3.00119996       7.19807929E-07
   3.01320004       9.49182834E-07
   3.02519989       1.24108794E-06
   3.03719997       1.60765512E-06
   3.04920006       2.06193045E-06
   3.06119990       2.61759214E-06
   3.07319999       3.28857845E-06
   3.08520007       4.08863025E-06
   3.09719992       5.03075080E-06
   3.10920000       6.12659733E-06
   3.12120008       7.38581912E-06
   3.13319993       8.81537198E-06
   3.14520001       1.04188248E-05
   3.15720010       1.21957046E-05
   3.16919994       1.41409037E-05
   3.18120003       1.62441975E-05
   3.19320011       1.84898945E-05
   3.20519996       2.08566707E-05
   3.21720004       2.33175997E-05
   3.22919989       2.58404179E-05
   3.24119997       2.83880145E-05
   3.25320005       3.09191673E-05
   3.26519990       3.33895223E-05
   3.27719998       3.57527424E-05
   3.28920007       3.79618759E-05
   3.30119991       3.99707933E-05
   3.31320000       4.17357442E-05
   3.32520008       4.32168672E-05
   3.33719993       4.43796489E-05
   3.34920001       4.51962696E-05
   3.36120009       4.56466951E-05
   3.37319994       4.57195310E-05
   3.38520002       4.54125729E-05
   3.39720011       4.47330058E-05
   3.40919995       4.36972005E-05
   3.42120004       4.23302117E-05
   3.43319988       4.06648760E-05
   3.44519997       3.87406508E-05
   3.45720005       3.66021704E-05
   3.46919990       3.42976673E-05
   3.48119998       3.18772363E-05
   3.49320006       2.93911380E-05
   3.50519991       2.68881504E-05
   3.51719999       2.44140756E-05
   3.52920008       2.20104630E-05
   3.54119992       1.97136087E-05
   3.55320001       1.75538553E-05
   3.56520009       1.55552316E-05
   3.57719994       1.37354091E-05
   3.58920002       1.21059402E-05
   3.60120010       1.06727721E-05
   3.61319995       9.43694795E-06
   3.62520003       8.39544737E-06
   3.63720012       7.54208440E-06
   3.64919996       6.86840212E-06
   3.66120005       6.36449568E-06
   3.67319989       6.01971715E-06
   3.68519998       5.82321445E-06
   3.69720006       5.76429511E-06
   3.70919991       5.83260498E-06
   3.72119999       6.01814008E-06
   3.73320007       6.31111561E-06
   3.74519992       6.70173813E-06
   3.75720000       7.17992634E-06
   3.76920009       7.73502688E-06
   3.78119993       8.35558421E-06
   3.79320002       9.02919328E-06
   3.80520010       9.74247450E-06
   3.81719995       1.04811834E-05
   3.82920003       1.12304624E-05
   3.84120011       1.19752212E-05
   3.85319996       1.27006115E-05
   3.86520004       1.33925714E-05
   3.87719989       1.40383863E-05
   3.88919997       1.46272141E-05
   3.90120006       1.51505456E-05
   3.91319990       1.56025362E-05
   3.92519999       1.59801839E-05
   3.93720007       1.62833621E-05
   3.94919991       1.65146466E-05
   3.96120000       1.66789905E-05
   3.97320008       1.67832659E-05
   3.98519993       1.68356783E-05
   3.99720001       1.68451224E-05
   4.00920010       1.68205206E-05
   4.02120018       1.67701673E-05
   4.03319979       1.67011876E-05
   4.04519987       1.66190748E-05
   4.05719995       1.65273977E-05
   4.06920004       1.64276607E-05
   4.08120012       1.63193381E-05
   4.09320021       1.62000924E-05
   4.10519981       1.60661148E-05
   4.11719990       1.59125975E-05
   4.12919998       1.57342965E-05
   4.14120007       1.55261168E-05
   4.15320015       1.52837038E-05
   4.16520023       1.50039914E-05
   4.17719984       1.46856610E-05
   4.18919992       1.43294847E-05
   4.20120001       1.39385411E-05
   4.21320009       1.35182636E-05
   4.22520018       1.30763519E-05
   4.23719978       1.26225304E-05
   4.24919987       1.21681751E-05
   4.26119995       1.17258460E-05
   4.27320004       1.13087490E-05
   4.28520012       1.09301554E-05
   4.29720020       1.06028419E-05
   4.30919981       1.03385592E-05
   4.32119989       1.01475798E-05
   4.33319998       1.00383559E-05
   4.34520006       1.00172774E-05
   4.35720015       1.00885800E-05
   4.36920023       1.02543609E-05
   4.38119984       1.05147228E-05
   4.39319992       1.08680033E-05
   4.40520000       1.13110827E-05
   4.41720009       1.18397165E-05
   4.42920017       1.24488779E-05
   4.44119978       1.31330644E-05
   4.45319986       1.38865407E-05
   4.46519995       1.47034989E-05
   4.47720003       1.55781163E-05
   4.48920012       1.65045149E-05
   4.50120020       1.74766119E-05
   4.51319981       1.84879118E-05
   4.52519989       1.95312386E-05
   4.53719997       2.05984670E-05
   4.54920006       2.16802709E-05
   4.56120014       2.27659621E-05
   4.57320023       2.38434113E-05
   4.58519983       2.48991309E-05
   4.59719992       2.59184926E-05
   4.60920000       2.68860931E-05
   4.62120008       2.77862910E-05
   4.63320017       2.86038176E-05
   4.64519978       2.93244793E-05
   4.65719986       2.99358744E-05
   4.66919994       3.04280638E-05
   4.68120003       3.07941373E-05
   4.69320011       3.10306459E-05
   4.70520020       3.11377989E-05
   4.71719980       3.11194854E-05
   4.72919989       3.09830211E-05
   4.74119997       3.07387199E-05
   4.75320005       3.03992310E-05
   4.76520014       2.99787935E-05
   4.77720022       2.94923975E-05
   4.78919983       2.89549498E-05
   4.80119991       2.83805275E-05
   4.81320000       2.77817617E-05
   4.82520008       2.71694353E-05
   4.83720016       2.65522940E-05
   4.84919977       2.59371009E-05
   4.86119986       2.53289109E-05
   4.87319994       2.47315402E-05
   4.88520002       2.41481648E-05
   4.89720011       2.35819643E-05
   4.90920019       2.30367477E-05
   4.92119980       2.25174772E-05
   4.93319988       2.20306119E-05
   4.94519997       2.15842356E-05
   4.95720005       2.11879178E-05
   4.96920013       2.08523161E-05
   4.98120022       2.05885663E-05
   4.99319983       2.04074531E-05
   5.00519991       2.03185064E-05
   5.01719999       2.03290510E-05
   5.02920008       2.04433200E-05
   5.04120016       2.06617533E-05
   5.05319977       2.09804948E-05
   5.06519985       2.13912153E-05
   5.07719994       2.18812365E-05
   5.08920002       2.24339983E-05
   5.10120010       2.30298174E-05
   5.11320019       2.36469186E-05
   5.12519979       2.42626156E-05
   5.13719988       2.48545930E-05
   5.14919996       2.54021706E-05
   5.16120005       2.58874588E-05
   5.17320013       2.62963040E-05
   5.18520021       2.66189927E-05
   5.19719982       2.68506228E-05
   5.20919991       2.69911743E-05
   5.22119999       2.70452492E-05
   5.23320007       2.70215387E-05
   5.24520016       2.69320699E-05
   5.25719976       2.67913019E-05
   5.26919985       2.66151565E-05
   5.28119993       2.64200298E-05
   5.29320002       2.62219055E-05
   5.30520010       2.60355864E-05
   5.31720018       2.58740947E-05
   5.32919979       2.57482588E-05
   5.34119987       2.56664898E-05
   5.35319996       2.56347230E-05
   5.36520004       2.56564817E-05
   5.37720013       2.57330266E-05
   5.38920021       2.58635391E-05
   5.40119982       2.60452762E-05
   5.41319990       2.62736739E-05
   5.42519999       2.65423550E-05
   5.43720007       2.68430213E-05
   5.44920015       2.71652698E-05
   5.46120024       2.74962877E-05
   5.47319984       2.78205007E-05
   5.48519993       2.81192461E-05
   5.49720001       2.83704430E-05
   5.50920010       2.85483984E-05
   5.52120018       2.86237573E-05
   5.53319979       2.85636615E-05
   5.54519987       2.83321424E-05
   5.55719995       2.78907919E-05
   5.56920004       2.71996869E-05
   5.58120012       2.62185858E-05
   5.59320021       2.49083332E-05
   5.60519981       2.32324437E-05
   5.61719990       2.11588031E-05
   5.62919998       1.86613834E-05
   5.64120007       1.57219129E-05
   5.65320015       1.23313939E-05
   5.66520023       8.49138360E-06
   5.67719984       4.21496907E-06
   5.68919992      -4.72651351E-07
   5.70120001      -5.53401333E-06
   5.71320009      -1.09197226E-05
   5.72520018      -1.65692418E-05
   5.73719978      -2.24121704E-05
   5.74919987      -2.83699337E-05
   5.76119995      -3.43578540E-05
   5.77320004      -4.02874939E-05
   5.78520012      -4.60691990E-05
   5.79720020      -5.16147229E-05
   5.80919981      -5.68397882E-05
   5.82119989      -6.16665493E-05
   5.83319998      -6.60257720E-05
   5.84520006      -6.98587319E-05
   5.85720015      -7.31186374E-05
   5.86920023      -7.57716552E-05
   5.88119984      -7.77974346E-05
   5.89319992      -7.91891798E-05
   5.90520000      -7.99532136E-05
   5.91720009      -8.01082133E-05
   5.92920017      -7.96840250E-05
   5.94119978      -7.87201934E-05
   5.95319986      -7.72644344E-05
   5.96519995      -7.53708009E-05
   5.97720003      -7.30979591E-05
   5.98920012      -7.05074053E-05
   6.00120020      -6.76618729E-05
   6.01319981      -6.46237895E-05
   6.02519989      -6.14539895E-05
   6.03719997      -5.82106004E-05
   6.04920006      -5.49481229E-05
   6.06120014      -5.17167573E-05
   6.07320023      -4.85619312E-05
   6.08519983      -4.55240188E-05
   6.09719992      -4.26382321E-05
   6.10920000      -3.99346900E-05
   6.12120008      -3.74385745E-05
   6.13320017      -3.51704657E-05
   6.14519978      -3.31467018E-05
   6.15719986      -3.13798337E-05
   6.16919994      -2.98790983E-05
   6.18120003      -2.86509203E-05
   6.19320011      -2.76993651E-05
   6.20520020      -2.70265700E-05
   6.21719980      -2.66331099E-05
   6.22919989      -2.65182480E-05
   6.24119997      -2.66800907E-05
   6.25320005      -2.71156332E-05
   6.26520014      -2.78206280E-05
   6.27720022      -2.87893799E-05
   6.28919983      -3.00143911E-05
   6.30119991      -3.14859390E-05
   6.31320000      -3.31915835E-05
   6.32520008      -3.51156887E-05
   6.33720016      -3.72389295E-05
   6.34919977      -3.95379175E-05
   6.36119986      -4.19849239E-05
   6.37319994      -4.45477708E-05
   6.38520002      -4.71899330E-05
   6.39720011      -4.98708177E-05
   6.40920019      -5.25463583E-05
   6.42119980      -5.51697995E-05
   6.43319988      -5.76927232E-05
   6.44519997      -6.00663006E-05
   6.45720005      -6.22427033E-05
   6.46920013      -6.41766965E-05
   6.48120022      -6.58271747E-05
   6.49319983      -6.71588350E-05
   6.50519991      -6.81436941E-05
   6.51719999      -6.87624415E-05
   6.52920008      -6.90055967E-05
   6.54120016      -6.88743530E-05
   6.55319977      -6.83809994E-05
   6.56519985      -6.75490446E-05
   6.57719994      -6.64127583E-05
   6.58920002      -6.50164002E-05
   6.60120010      -6.34128446E-05
   6.61320019      -6.16619800E-05
   6.62519979      -5.98285260E-05
   6.63719988      -5.79797852E-05
   6.64919996      -5.61830493E-05
   6.66120005      -5.45030089E-05
   6.67320013      -5.29991812E-05
   6.68520021      -5.17235021E-05
   6.69719982      -5.07182085E-05
   6.70919991      -5.00141250E-05
   6.72119999      -4.96294197E-05
   6.73320007      -4.95689346E-05
   6.74520016      -4.98241061E-05
   6.75719976      -5.03734918E-05
   6.76919985      -5.11838625E-05
   6.78119993      -5.22118280E-05
   6.79320002      -5.34059182E-05
   6.80520010      -5.47089767E-05
   6.81720018      -5.60607550E-05
   6.82919979      -5.74005790E-05
   6.84119987      -5.86699534E-05
   6.85319996      -5.98149600E-05
   6.86520004      -6.07882976E-05
   6.87720013      -6.15509780E-05
   6.88920021      -6.20734354E-05
   6.90119982      -6.23362284E-05
   6.91319990      -6.23300948E-05
   6.92519999      -6.20556093E-05
   6.93720007      -6.15223034E-05
   6.94920015      -6.07475013E-05
   6.96120024      -5.97548278E-05
   6.97319984      -5.85726084E-05
   6.98519993      -5.72321442E-05
   6.99720001      -5.57661042E-05
   7.00920010      -5.42070084E-05
   7.02120018      -5.25859614E-05
   7.03319979      -5.09316342E-05
   7.04519987      -4.92695290E-05
   7.05719995      -4.76215646E-05
   7.06920004      -4.60059127E-05
   7.08120012      -4.44370708E-05
   7.09320021      -4.29261017E-05
   7.10519981      -4.14810238E-05
   7.11719990      -4.01071993E-05
   7.12919998      -3.88077497E-05
   7.14120007      -3.75838790E-05
   7.15320015      -3.64350999E-05
   7.16520023      -3.53593750E-05
   7.17719984      -3.43530446E-05
   7.18919992      -3.34107099E-05
   7.20120001      -3.25250076E-05
   7.21320009      -3.16863370E-05
   7.22520018      -3.08825838E-05
   7.23719978      -3.00989141E-05
   7.24919987      -2.93176763E-05
   7.26119995      -2.85184524E-05
   7.27320004      -2.76782775E-05
   7.28520012      -2.67720934E-05
   7.29720020      -2.57733827E-05
   7.30919981      -2.46549953E-05
   7.32119989      -2.33901319E-05
   7.33319998      -2.19534359E-05
   7.34520006      -2.03221389E-05
   7.35720015      -1.84771925E-05
   7.36920023      -1.64043431E-05
   7.38119984      -1.40950660E-05
   7.39319992      -1.15473167E-05
   7.40520000      -8.76605918E-06
   7.41720009      -5.76353023E-06
   7.42920017      -2.55923078E-06
   7.44119978       8.20367575E-07
   7.45319986       4.34237609E-06
   7.46519995       7.96829772E-06
   7.47720003       1.16550327E-05
   7.48920012       1.53560559E-05
   7.50120020       1.90226910E-05
   7.51319981       2.26054672E-05
   7.52519989       2.60554370E-05
   7.53719997       2.93254907E-05
   7.54920006       3.23715431E-05
   7.56120014       3.51536037E-05
   7.57320023       3.76366879E-05
   7.58519983       3.97915501E-05
   7.59719992       4.15952200E-05
   7.60920000       4.30313412E-05
   7.62120008       4.40903677E-05
   7.63320017       4.47695384E-05
   7.64519978       4.50727312E-05
   7.65719986       4.50102125E-05
   7.66919994       4.45982187E-05
   7.68120003       4.38585339E-05
   7.69320011       4.28179483E-05
   7.70520020       4.15076829E-05
   7.71719980       3.99628261E-05
   7.72919989       3.82216604E-05
   7.74119997       3.63250329E-05
   7.75320005       3.43156535E-05
   7.76520014       3.22373817E-05
   7.77720022       3.01344517E-05
   7.78919983       2.80506883E-05
   7.80119991       2.60286524E-05
   7.81320000       2.41087691E-05
   7.82520008       2.23284151E-05
   7.83720016       2.07210269E-05
   7.84919977       1.93151991E-05
   7.86119986       1.81338637E-05
   7.87319994       1.71935499E-05
   7.88520002       1.65037600E-05
   7.89720011       1.60665495E-05
   7.90920019       1.58762941E-05
   7.92119980       1.59197043E-05
   7.93319988       1.61761091E-05
   7.94519997       1.66180162E-05
   7.95720005       1.72119489E-05
   7.96920013       1.79195213E-05
   7.98120022       1.86987636E-05
   7.99319983       1.95055964E-05
   8.00520039       2.02954379E-05
   8.01720047       2.10248490E-05
   8.02919960       2.16531571E-05
   8.04119968       2.21439732E-05
   8.05319977       2.24665419E-05
   8.06519985       2.25968452E-05
   8.07719994       2.25184194E-05
   8.08920002       2.22228464E-05
   8.10120010       2.17098750E-05
   8.11320019       2.09872014E-05
   8.12520027       2.00698851E-05
   8.13720036       1.89794700E-05
   8.14920044       1.77428337E-05
   8.16119957       1.63908244E-05
   8.17319965       1.49568004E-05
   8.18519974       1.34750844E-05
   8.19719982       1.19794931E-05
   8.20919991       1.05019444E-05
   8.22119999       9.07127196E-06
   8.23320007       7.71227587E-06
   8.24520016       6.44504826E-06
   8.25720024       5.28462897E-06
   8.26920033       4.24095924E-06
   8.28120041       3.31914430E-06
   8.29319954       2.51997903E-06
   8.30519962       1.84069063E-06
   8.31719971       1.27582894E-06
   8.32919979       8.18232365E-07
   8.34119987       4.59993004E-07
   8.35319996       1.93339773E-07
   8.36520004       1.13734888E-08
   8.37720013      -9.14012830E-08
   8.38920021      -1.18790680E-07
   8.40120029      -7.28888452E-08
   8.41320038       4.56840361E-08
   8.42520046       2.37306310E-07
   8.43719959       5.02687328E-07
   8.44919968       8.42069028E-07
   8.46119976       1.25437191E-06
   8.47319984       1.73636113E-06
   8.48519993       2.28191698E-06
   8.49720001       2.88147862E-06
   8.50920010       3.52172424E-06
   8.52120018       4.18553464E-06
   8.53320026       4.85226201E-06
   8.54520035       5.49829474E-06
   8.55720043       6.09791732E-06
   8.56919956       6.62439652E-06
   8.58119965       7.05124739E-06
   8.59319973       7.35359299E-06
   8.60519981       7.50952904E-06
   8.61719990       7.50140589E-06
   8.62919998       7.31694854E-06
   8.64120007       6.95012022E-06
   8.65320015       6.40169310E-06
   8.66520023       5.67946927E-06
   8.67720032       4.79814253E-06
   8.68920040       3.77879928E-06
   8.70119953       2.64809682E-06
   8.71319962       1.43715317E-06
   8.72519970       1.80220752E-07
   8.73719978      -1.08678614E-06
   8.74919987      -2.32783373E-06
   8.76119995      -3.50829600E-06
   8.77320004      -4.59639523E-06
   8.78520012      -5.56448185E-06
   8.79720020      -6.39010614E-06
   8.80920029      -7.05682623E-06
   8.82120037      -7.55473866E-06
   8.83320045      -7.88070702E-06
   8.84519958      -8.03830062E-06
   8.85719967      -8.03745752E-06
   8.86919975      -7.89389196E-06
   8.88119984      -7.62831132E-06
   8.89319992      -7.26544567E-06
   8.90520000      -6.83298094E-06
   8.91720009      -6.36041250E-06
   8.92920017      -5.87788327E-06
   8.94120026      -5.41504460E-06
   8.95320034      -4.99998441E-06
   8.96520042      -4.65825497E-06
   8.97719955      -4.41203565E-06
   8.98919964      -4.27945088E-06
   9.00119972      -4.27406349E-06
   9.01319981      -4.40454824E-06
   9.02519989      -4.67455675E-06
   9.03719997      -5.08276116E-06
   9.04920006      -5.62307241E-06
   9.06120014      -6.28500948E-06
   9.07320023      -7.05420734E-06
   9.08520031      -7.91302773E-06
   9.09720039      -8.84126075E-06
   9.10919952      -9.81686298E-06
   9.12119961      -1.08167360E-05
   9.13319969      -1.18174848E-05
   9.14519978      -1.27961439E-05
   9.15719986      -1.37308452E-05
   9.16919994      -1.46013999E-05
   9.18120003      -1.53897854E-05
   9.19320011      -1.60805321E-05
   9.20520020      -1.66610025E-05
   9.21720028      -1.71215688E-05
   9.22920036      -1.74557063E-05
   9.24120045      -1.76600042E-05
   9.25319958      -1.77341153E-05
   9.26519966      -1.76806570E-05
   9.27719975      -1.75050718E-05
   9.28919983      -1.72154523E-05
   9.30119991      -1.68223487E-05
   9.31320000      -1.63385412E-05
   9.32520008      -1.57787981E-05
   9.33720016      -1.51596105E-05
   9.34920025      -1.44988790E-05
   9.36120033      -1.38155920E-05
   9.37320042      -1.31294455E-05
   9.38519955      -1.24604248E-05
   9.39719963      -1.18283460E-05
   9.40919971      -1.12523521E-05
   9.42119980      -1.07503802E-05
   9.43319988      -1.03386019E-05
   9.44519997      -1.00308762E-05
