 -0.622799993       0.00000000    
 -0.610800028       0.00000000    
 -0.598800004       0.00000000    
 -0.586799979       0.00000000    
 -0.574800014       0.00000000    
 -0.562799990       0.00000000    
 -0.550800025       0.00000000    
 -0.538800001       0.00000000    
 -0.526799977       0.00000000    
 -0.514800012       0.00000000    
 -0.502799988       2.04258211E-38
 -0.490799993       5.38285331E-37
 -0.478799999       1.26576635E-35
 -0.466800004       1.66476403E-34
 -0.454800010       1.40672566E-33
 -0.442799985       8.51750790E-33
 -0.430799991       3.95602309E-32
 -0.418799996       1.46630589E-31
 -0.406800002       4.41893905E-31
 -0.394800007       1.07991641E-30
 -0.382800013       2.05571900E-30
 -0.370799989       2.57101886E-30
 -0.358799994      -2.43263548E-31
 -0.346799999      -1.29622277E-29
 -0.334800005      -4.62785919E-29
 -0.322800010      -1.10647323E-28
 -0.310799986      -2.02341980E-28
 -0.298799992      -2.77539216E-28
 -0.286799997      -2.21933117E-28
 -0.274800003       1.58442357E-28
 -0.262800008       1.08096285E-27
 -0.250800014       2.62288971E-27
 -0.238800004       4.46234386E-27
 -0.226799995       5.65823658E-27
 -0.214800000       4.76108949E-27
 -0.202800006       6.12553237E-28
 -0.190799996      -6.04962945E-27
 -0.178800002      -1.08152206E-26
 -0.166800007      -5.50654841E-27
 -0.154799998       1.72828855E-26
 -0.142800003       5.23919320E-26
 -0.130799994       6.39132640E-26
 -0.118799999      -3.06788499E-26
 -0.106799997      -3.54554125E-25
  -9.48000029E-02  -1.01586667E-24
  -8.28000009E-02  -1.97929540E-24
  -7.07999989E-02  -2.87197967E-24
  -5.88000007E-02  -2.79405835E-24
  -4.67999987E-02  -2.89828359E-25
  -3.48000005E-02   6.29395789E-24
  -2.28000004E-02   1.78493427E-23
  -1.08000003E-02   3.29133564E-23
   1.20000006E-03   4.58006615E-23
   1.31999999E-02   4.53963608E-23
   2.52000000E-02   1.60942960E-23
   3.72000001E-02  -5.74720195E-23
   4.91999984E-02  -1.80952865E-22
   6.12000003E-02  -3.37022280E-22
   7.32000023E-02  -4.72389348E-22
   8.51999968E-02  -4.92643055E-22
   9.71999988E-02  -2.74788425E-22
  0.109200001       2.93850132E-22
  0.121200003       1.24847979E-21
  0.133200005       2.46273741E-21
  0.145199999       3.57646401E-21
  0.157199994       3.98033414E-21
  0.169200003       2.90800009E-21
  0.181199998      -3.28565515E-22
  0.193200007      -5.96729225E-21
  0.205200002      -1.33626407E-20
  0.217199996      -2.06439239E-20
  0.229200006      -2.46776977E-20
  0.241200000      -2.15476834E-20
  0.253199995      -7.67322625E-21
  0.265199989       1.85128546E-20
  0.277200013       5.46884452E-20
  0.289200008       9.32192355E-20
  0.301200002       1.21017596E-19
  0.313199997       1.21445766E-19
  0.325199991       7.86167641E-20
  0.337199986      -1.63109402E-20
  0.349200010      -1.58219773E-19
  0.361200005      -3.22777481E-19
  0.373199999      -4.65564649E-19
  0.385199994      -5.27929466E-19
  0.397199988      -4.50491971E-19
  0.409200013      -1.92855997E-19
  0.421200007       2.44718489E-19
  0.433200002       8.04312584E-19
  0.445199996       1.36558306E-18
  0.457199991       1.75941999E-18
  0.469199985       1.80220590E-18
  0.481200010       1.34673565E-18
  0.493200004       3.39117478E-19
  0.505200028      -1.13427648E-18
  0.517199993      -2.82723633E-18
  0.529200017      -4.35515473E-18
  0.541199982      -5.26196140E-18
  0.553200006      -5.12425320E-18
  0.565199971      -3.67138201E-18
  0.577199996      -8.91403122E-19
  0.589200020       2.90835463E-18
  0.601199985       7.10910120E-18
  0.613200009       1.08636881E-17
  0.625199974       1.32423807E-17
  0.637199998       1.34120835E-17
  0.649200022       1.08120000E-17
  0.661199987       5.29262044E-18
  0.673200011      -2.80124446E-18
  0.685199976      -1.26055476E-17
  0.697200000      -2.27610458E-17
  0.709200025      -3.14792681E-17
  0.721199989      -3.66604793E-17
  0.733200014      -3.60982347E-17
  0.745199978      -2.78207508E-17
  0.757200003      -1.06065739E-17
  0.769200027       1.53438381E-17
  0.781199992       4.76963789E-17
  0.793200016       8.14623283E-17
  0.805199981       1.08986432E-16
  0.817200005       1.20764068E-16
  0.829200029       1.07276379E-16
  0.841199994       6.17536980E-17
  0.853200018      -1.66067675E-17
  0.865199983      -1.19831882E-16
  0.877200007      -2.29880454E-16
  0.889199972      -3.19928103E-16
  0.901199996      -3.58846037E-16
  0.913200021      -3.18663536E-16
  0.925199986      -1.83742635E-16
  0.937200010       4.06107200E-17
  0.949199975       3.22957516E-16
  0.961199999       6.06643673E-16
  0.973200023       8.18401751E-16
  0.985199988       8.84260786E-16
  0.997200012       7.49996270E-16
   1.00919998       4.01185271E-16
   1.02119994      -1.23236835E-16
   1.03320003      -7.29555036E-16
   1.04519999      -1.28325502E-15
   1.05719995      -1.63770771E-15
   1.06920004      -1.67219561E-15
   1.08120000      -1.32989318E-15
   1.09319997      -6.44461312E-16
   1.10520005       2.54895084E-16
   1.11720002       1.16544047E-15
   1.12919998       1.85825010E-15
   1.14119995       2.14098652E-15
   1.15320003       1.91961277E-15
   1.16520000       1.23987105E-15
   1.17719996       2.92212126E-16
   1.18920004      -6.27654273E-16
   1.20120001      -1.19796198E-15
   1.21319997      -1.17200847E-15
   1.22520006      -4.73416243E-16
   1.23720002       7.45257915E-16
   1.24919999       2.10536731E-15
   1.26119995       3.07667777E-15
   1.27320004       3.11366770E-15
   1.28520000       1.82354928E-15
   1.29719996      -8.78307204E-16
   1.30920005      -4.67299564E-15
   1.32120001      -8.83976120E-15
   1.33319998      -1.23691484E-14
   1.34519994      -1.41724003E-14
   1.35720003      -1.33432312E-14
   1.36919999      -9.40884875E-15
   1.38119996      -2.50382685E-15
   1.39320004       6.58451565E-15
   1.40520000       1.65199766E-14
   1.41719997       2.56529349E-14
   1.42920005       3.23342359E-14
   1.44120002       3.52320339E-14
   1.45319998       3.35744141E-14
   1.46519995       2.72609524E-14
   1.47720003       1.68234126E-14
   1.48920000       3.25934848E-15
   1.50119996      -1.22008565E-14
   1.51320004      -2.83146428E-14
   1.52520001      -4.39633410E-14
   1.53719997      -5.81623101E-14
   1.54920006      -6.99502915E-14
   1.56120002      -7.82117426E-14
   1.57319999      -8.15204634E-14
   1.58519995      -7.81017436E-14
   1.59720004      -6.59875800E-14
   1.60920000      -4.33889002E-14
   1.62119997      -9.24335461E-15
   1.63320005       3.61668195E-14
   1.64520001       9.06752361E-14
   1.65719998       1.49927949E-13
   1.66919994       2.07443668E-13
   1.68120003       2.55100872E-13
   1.69319999       2.84030259E-13
   1.70519996       2.85805749E-13
   1.71720004       2.53761178E-13
   1.72920001       1.84227565E-13
   1.74119997       7.74952205E-14
   1.75320005      -6.16489349E-14
   1.76520002      -2.23886868E-13
   1.77719998      -3.95837253E-13
   1.78919995      -5.60957639E-13
   1.80120003      -7.00770822E-13
   1.81320000      -7.96296785E-13
   1.82519996      -8.29588839E-13
   1.83720005      -7.85312408E-13
   1.84920001      -6.52338968E-13
   1.86119998      -4.25348558E-13
   1.87320006      -1.06416280E-13
   1.88520002       2.93492715E-13
   1.89719999       7.53283774E-13
   1.90919995       1.24101326E-12
   1.92120004       1.71403755E-12
   1.93320000       2.12041387E-12
   1.94519997       2.40188967E-12
   1.95720005       2.49867163E-12
   1.96920002       2.35591256E-12
   1.98119998       1.93153219E-12
   1.99319994       1.20462733E-12
   2.00519991       1.83412679E-13
   2.01719999      -1.08858159E-12
   2.02920008      -2.52935888E-12
   2.04119992      -4.01948266E-12
   2.05320001      -5.40800954E-12
   2.06520009      -6.52348748E-12
   2.07719994      -7.18949466E-12
   2.08920002      -7.24352262E-12
   2.10120010      -6.55743428E-12
   2.11319995      -5.05734994E-12
   2.12520003      -2.74070502E-12
   2.13720012       3.11631363E-13
   2.14919996       3.92992149E-12
   2.16120005       7.85800765E-12
   2.17319989       1.17642389E-11
   2.18519998       1.52608429E-11
   2.19720006       1.79311323E-11
   2.20919991       1.93633685E-11
   2.22119999       1.91896048E-11
   2.23320007       1.71272371E-11
   2.24519992       1.30204484E-11
   2.25720000       6.87802029E-12
   2.26920009      -1.09649063E-12
   2.28119993      -1.04866714E-11
   2.29320002      -2.06617258E-11
   2.30520010      -3.07954183E-11
   2.31719995      -3.99082226E-11
   2.32920003      -4.69333981E-11
   2.34120011      -5.08052211E-11
   2.35319996      -5.05644693E-11
   2.36520004      -4.54733126E-11
   2.37719989      -3.51289692E-11
   2.38919997      -1.95637395E-11
   2.40120006       6.81618824E-13
   2.41319990       2.45233469E-11
   2.42519999       5.03486107E-11
   2.43720007       7.60837296E-11
   2.44919991       9.93176166E-11
   2.46120000       1.17475765E-10
   2.47320008       1.28034569E-10
   2.48519993       1.28760891E-10
   2.49720001       1.17957796E-10
   2.50920010       9.46952516E-11
   2.52119994       5.90034202E-11
   2.53320003       1.20078322E-11
   2.54520011      -4.40116381E-11
   2.55719995      -1.05651626E-10
   2.56920004      -1.68513550E-10
   2.58119988      -2.27430269E-10
   2.59319997      -2.76784123E-10
   2.60520005      -3.10902276E-10
   2.61719990      -3.24507005E-10
   2.62919998      -3.13192333E-10
   2.64120007      -2.73893908E-10
   2.65319991      -2.05314335E-10
   2.66520000      -1.08267423E-10
   2.67720008       1.40941321E-11
   2.68919992       1.56197305E-10
   2.70120001       3.10135084E-10
   2.71320009       4.65932459E-10
   2.72519994       6.11990902E-10
   2.73720002       7.35699390E-10
   2.74920011       8.24185664E-10
   2.76119995       8.65174432E-10
   2.77320004       8.47906134E-10
   2.78520012       7.64069252E-10
   2.79719996       6.08692874E-10
   2.80920005       3.80949411E-10
   2.82119989       8.48185411E-11
   2.83319998      -2.70430178E-10
   2.84520006      -6.69973355E-10
   2.85719991      -1.09341902E-09
   2.86919999      -1.51506763E-09
   2.88120008      -1.90446858E-09
   2.89319992      -2.22729279E-09
   2.90520000      -2.44653564E-09
   2.91720009      -2.52406762E-09
   2.92919993      -2.42254306E-09
   2.94120002      -2.10767492E-09
   2.95320010      -1.55086244E-09
   2.96519995      -7.32148064E-10
   2.97720003       3.56564250E-10
   2.98920012       1.70812997E-09
   3.00119996       3.29679062E-09
   3.01320004       5.07502307E-09
   3.02519989       6.97091362E-09
   3.03719997       8.88639295E-09
   3.04920006       1.06967617E-08
   3.06119990       1.22519017E-08
   3.07319999       1.33796094E-08
   3.08520007       1.38913947E-08
   3.09719992       1.35909772E-08
   3.10920000       1.22855379E-08
   3.12120008       9.79952830E-09
   3.13319993       5.99053740E-09
   3.14520001       7.66373076E-10
   3.15720010      -5.89790616E-09
   3.16919994      -1.39445788E-08
   3.18120003      -2.32214905E-08
   3.19320011      -3.34761943E-08
   3.20519996      -4.43584618E-08
   3.21720004      -5.54337376E-08
   3.22919989      -6.62099495E-08
   3.24119997      -7.61798375E-08
   3.25320005      -8.48804476E-08
   3.26519990      -9.19706054E-08
   3.27719998      -9.73264846E-08
   3.28920007      -1.01153944E-07
   3.30119991      -1.04115422E-07
   3.31320000      -1.07467407E-07
   3.32520008      -1.13203633E-07
   3.33719993      -1.24197285E-07
   3.34920001      -1.44334976E-07
   3.36120009      -1.78634025E-07
   3.37319994      -2.33334021E-07
   3.38520002      -3.15953599E-07
   3.39720011      -4.35303406E-07
   3.40919995      -6.01448221E-07
   3.42120004      -8.25610243E-07
   3.43319988      -1.12001010E-06
   3.44519997      -1.49764151E-06
   3.45720005      -1.97198210E-06
   3.46919990      -2.55664054E-06
   3.48119998      -3.26494910E-06
   3.49320006      -4.10950861E-06
   3.50519991      -5.10169957E-06
   3.51719999      -6.25117445E-06
   3.52920008      -7.56534337E-06
   3.54119992      -9.04888111E-06
   3.55320001      -1.07032720E-05
   3.56520009      -1.25264023E-05
   3.57719994      -1.45122367E-05
   3.58920002      -1.66505833E-05
   3.60120010      -1.89269722E-05
   3.61319995      -2.13226540E-05
   3.62520003      -2.38147168E-05
   3.63720012      -2.63763632E-05
   3.64919996      -2.89772961E-05
   3.66120005      -3.15842517E-05
   3.67319989      -3.41616396E-05
   3.68519998      -3.66722998E-05
   3.69720006      -3.90783280E-05
   3.70919991      -4.13419984E-05
   3.72119999      -4.34266731E-05
   3.73320007      -4.52977692E-05
   3.74519992      -4.69236693E-05
   3.75720000      -4.82766191E-05
   3.76920009      -4.93334846E-05
   3.78119993      -5.00764836E-05
   3.79320002      -5.04937125E-05
   3.80520010      -5.05795870E-05
   3.81719995      -5.03350457E-05
   3.82920003      -4.97676301E-05
   3.84120011      -4.88913611E-05
   3.85319996      -4.77264148E-05
   3.86520004      -4.62986645E-05
   3.87719989      -4.46390113E-05
   3.88919997      -4.27825980E-05
   3.90120006      -4.07678999E-05
   3.91319990      -3.86357060E-05
   3.92519999      -3.64280568E-05
   3.93720007      -3.41871491E-05
   3.94919991      -3.19542378E-05
   3.96120000      -2.97685838E-05
   3.97320008      -2.76664905E-05
   3.98519993      -2.56804269E-05
   3.99720001      -2.38382963E-05
   4.00920010      -2.21628507E-05
   4.02120018      -2.06712975E-05
   4.03319979      -1.93750711E-05
   4.04519987      -1.82797994E-05
   4.05719995      -1.73854551E-05
   4.06920004      -1.66866921E-05
   4.08120012      -1.61733278E-05
   4.09320021      -1.58309831E-05
   4.10519981      -1.56418282E-05
   4.11719990      -1.55854032E-05
   4.12919998      -1.56395163E-05
   4.14120007      -1.57811337E-05
   4.15320015      -1.59872743E-05
   4.16520023      -1.62358428E-05
   4.17719984      -1.65063957E-05
   4.18919992      -1.67807830E-05
   4.20120001      -1.70436979E-05
   4.21320009      -1.72830387E-05
   4.22520018      -1.74901543E-05
   4.23719978      -1.76599133E-05
   4.24919987      -1.77906259E-05
   4.26119995      -1.78838218E-05
   4.27320004      -1.79438921E-05
   4.28520012      -1.79776180E-05
   4.29720020      -1.79936342E-05
   4.30919981      -1.80018087E-05
   4.32119989      -1.80126117E-05
   4.33319998      -1.80364677E-05
   4.34520006      -1.80831576E-05
   4.35720015      -1.81612540E-05
   4.36920023      -1.82776694E-05
   4.38119984      -1.84372639E-05
   4.39319992      -1.86426023E-05
   4.40520000      -1.88938084E-05
   4.41720009      -1.91885756E-05
   4.42920017      -1.95222638E-05
   4.44119978      -1.98881571E-05
   4.45319986      -2.02777883E-05
   4.46519995      -2.06813693E-05
   4.47720003      -2.10882899E-05
   4.48920012      -2.14876363E-05
   4.50120020      -2.18687546E-05
   4.51319981      -2.22217823E-05
   4.52519989      -2.25381737E-05
   4.53719997      -2.28111330E-05
   4.54920006      -2.30359983E-05
   4.56120014      -2.32105340E-05
   4.57320023      -2.33351038E-05
   4.58519983      -2.34127456E-05
   4.59719992      -2.34491235E-05
   4.60920000      -2.34523814E-05
   4.62120008      -2.34328800E-05
   4.63320017      -2.34028557E-05
   4.64519978      -2.33760002E-05
   4.65719986      -2.33669743E-05
   4.66919994      -2.33909213E-05
   4.68120003      -2.34629188E-05
   4.69320011      -2.35974931E-05
   4.70520020      -2.38081157E-05
   4.71719980      -2.41068028E-05
   4.72919989      -2.45037281E-05
   4.74119997      -2.50069643E-05
   4.75320005      -2.56222665E-05
   4.76520014      -2.63529928E-05
   4.77720022      -2.72000671E-05
   4.78919983      -2.81620687E-05
   4.80119991      -2.92353634E-05
   4.81320000      -3.04143159E-05
   4.82520008      -3.16915321E-05
   4.83720016      -3.30581533E-05
   4.84919977      -3.45041371E-05
   4.86119986      -3.60185441E-05
   4.87319994      -3.75898235E-05
   4.88520002      -3.92060247E-05
   4.89720011      -4.08550186E-05
   4.90920019      -4.25246253E-05
   4.92119980      -4.42027376E-05
   4.93319988      -4.58773648E-05
   4.94519997      -4.75366651E-05
   4.95720005      -4.91689498E-05
   4.96920013      -5.07626391E-05
   4.98120022      -5.23062554E-05
   4.99319983      -5.37884116E-05
   5.00519991      -5.51978119E-05
   5.01719999      -5.65233131E-05
   5.02920008      -5.77539977E-05
   5.04120016      -5.88793118E-05
   5.05319977      -5.98892730E-05
   5.06519985      -6.07746733E-05
   5.07719994      -6.15273530E-05
   5.08920002      -6.21405270E-05
   5.10120010      -6.26090259E-05
   5.11320019      -6.29296628E-05
   5.12519979      -6.31014700E-05
   5.13719988      -6.31259245E-05
   5.14919996      -6.30071081E-05
   5.16120005      -6.27518166E-05
   5.17320013      -6.23695232E-05
   5.18520021      -6.18722916E-05
   5.19719982      -6.12745134E-05
   5.20919991      -6.05926252E-05
   5.22119999      -5.98446713E-05
   5.23320007      -5.90497948E-05
   5.24520016      -5.82276589E-05
   5.25719976      -5.73978286E-05
   5.26919985      -5.65791452E-05
   5.28119993      -5.57890817E-05
   5.29320002      -5.50431650E-05
   5.30520010      -5.43544629E-05
   5.31720018      -5.37331362E-05
   5.32919979      -5.31861442E-05
   5.34119987      -5.27170560E-05
   5.35319996      -5.23260314E-05
   5.36520004      -5.20099129E-05
   5.37720013      -5.17625122E-05
   5.38920021      -5.15749780E-05
   5.40119982      -5.14363019E-05
   5.41319990      -5.13339328E-05
   5.42519999      -5.12544102E-05
   5.43720007      -5.11840590E-05
   5.44920015      -5.11096878E-05
   5.46120024      -5.10191821E-05
   5.47319984      -5.09021338E-05
   5.48519993      -5.07502627E-05
   5.49720001      -5.05578064E-05
   5.50920010      -5.03217198E-05
   5.52120018      -5.00417518E-05
   5.53319979      -4.97203800E-05
   5.54519987      -4.93626139E-05
   5.55719995      -4.89756603E-05
   5.56920004      -4.85685014E-05
   5.58120012      -4.81513816E-05
   5.59320021      -4.77352587E-05
   5.60519981      -4.73312175E-05
   5.61719990      -4.69498918E-05
   5.62919998      -4.66009151E-05
   5.64120007      -4.62924545E-05
   5.65320015      -4.60307710E-05
   5.66520023      -4.58199029E-05
   5.67719984      -4.56614362E-05
   5.68919992      -4.55544068E-05
   5.70120001      -4.54952606E-05
   5.71320009      -4.54779511E-05
   5.72520018      -4.54941437E-05
   5.73719978      -4.55334921E-05
   5.74919987      -4.55839690E-05
   5.76119995      -4.56323069E-05
   5.77320004      -4.56644775E-05
   5.78520012      -4.56661692E-05
   5.79720020      -4.56233283E-05
   5.80919981      -4.55226727E-05
   5.82119989      -4.53522043E-05
   5.83319998      -4.51016713E-05
   5.84520006      -4.47629900E-05
   5.85720015      -4.43306017E-05
   5.86920023      -4.38017378E-05
   5.88119984      -4.31765948E-05
   5.89319992      -4.24583995E-05
   5.90520000      -4.16533512E-05
   5.91720009      -4.07704902E-05
   5.92920017      -3.98213924E-05
   5.94119978      -3.88198241E-05
   5.95319986      -3.77812285E-05
   5.96519995      -3.67222128E-05
   5.97720003      -3.56599376E-05
   5.98920012      -3.46114721E-05
   6.00120020      -3.35931873E-05
   6.01319981      -3.26201443E-05
   6.02519989      -3.17055456E-05
   6.03719997      -3.08602757E-05
   6.04920006      -3.00925385E-05
   6.06120014      -2.94076017E-05
   6.07320023      -2.88076972E-05
   6.08519983      -2.82920319E-05
   6.09719992      -2.78569423E-05
   6.10920000      -2.74961549E-05
   6.12120008      -2.72011584E-05
   6.13320017      -2.69616557E-05
   6.14519978      -2.67660707E-05
   6.15719986      -2.66020907E-05
   6.16919994      -2.64571936E-05
   6.18120003      -2.63191705E-05
   6.19320011      -2.61765617E-05
   6.20520020      -2.60190609E-05
   6.21719980      -2.58377913E-05
   6.22919989      -2.56255116E-05
   6.24119997      -2.53766921E-05
   6.25320005      -2.50875055E-05
   6.26520014      -2.47557164E-05
   6.27720022      -2.43804952E-05
   6.28919983      -2.39621750E-05
   6.30119991      -2.35019397E-05
   6.31320000      -2.30015357E-05
   6.32520008      -2.24629475E-05
   6.33720016      -2.18881178E-05
   6.34919977      -2.12787054E-05
   6.36119986      -2.06358873E-05
   6.37319994      -1.99602455E-05
   6.38520002      -1.92517218E-05
   6.39720011      -1.85096469E-05
   6.40920019      -1.77328257E-05
   6.42119980      -1.69197228E-05
   6.43319988      -1.60686650E-05
   6.44519997      -1.51780896E-05
   6.45720005      -1.42468261E-05
   6.46920013      -1.32743489E-05
   6.48120022      -1.22610345E-05
   6.49319983      -1.12083708E-05
   6.50519991      -1.01191108E-05
   6.51719999      -8.99737643E-06
   6.52920008      -7.84867188E-06
   6.54120016      -6.67983750E-06
   6.55319977      -5.49892593E-06
   6.56519985      -4.31500803E-06
   6.57719994      -3.13792907E-06
   6.58920002      -1.97801955E-06
   6.60120010      -8.45783916E-07
   6.61320019       2.48420150E-07
   6.62519979       1.29468617E-06
   6.63719988       2.28383828E-06
   6.64919996       3.20766435E-06
   6.66120005       4.05909213E-06
   6.67320013       4.83230633E-06
   6.68520021       5.52279744E-06
   6.69719982       6.12735084E-06
   6.70919991       6.64398021E-06
   6.72119999       7.07181107E-06
   6.73320007       7.41093891E-06
   6.74520016       7.66226822E-06
   6.75719976       7.82734878E-06
   6.76919985       7.90823287E-06
   6.78119993       7.90735066E-06
   6.79320002       7.82742882E-06
   6.80520010       7.67144866E-06
   6.81720018       7.44264753E-06
   6.82919979       7.14456428E-06
   6.84119987       6.78111883E-06
   6.85319996       6.35671631E-06
   6.86520004       5.87636941E-06
   6.87720013       5.34581750E-06
   6.88920021       4.77163076E-06
   6.90119982       4.16129524E-06
   6.91319990       3.52325674E-06
   6.92519999       2.86692216E-06
   6.93720007       2.20260972E-06
   6.94920015       1.54144914E-06
   6.96120024       8.95229050E-07
   6.97319984       2.76199415E-07
   6.98519993      -3.03167411E-07
   6.99720001      -8.30446993E-07
   7.00920010      -1.29355351E-06
   7.02120018      -1.68104361E-06
   7.03319979      -1.98241855E-06
   7.04519987      -2.18841546E-06
   7.05719995      -2.29128182E-06
   7.06920004      -2.28501699E-06
   7.08120012      -2.16558192E-06
   7.09320021      -1.93106212E-06
   7.10519981      -1.58178432E-06
   7.11719990      -1.12037844E-06
   7.12919998      -5.51781568E-07
   7.14120007       1.16818754E-07
   7.15320015       8.76105105E-07
   7.16520023       1.71481543E-06
   7.17719984       2.61999094E-06
   7.18919992       3.57728322E-06
   7.20120001       4.57131682E-06
   7.21320009       5.58609781E-06
   7.22520018       6.60545220E-06
   7.23719978       7.61349793E-06
   7.24919987       8.59510237E-06
   7.26119995       9.53634571E-06
   7.27320004       1.04249430E-05
   7.28520012       1.12506186E-05
   7.29720020       1.20054119E-05
   7.30919981       1.26838950E-05
   7.32119989       1.32833020E-05
   7.33319998       1.38035375E-05
   7.34520006       1.42470853E-05
   7.35720015       1.46187967E-05
   7.36920023       1.49255811E-05
   7.38119984       1.51759996E-05
   7.39319992       1.53797864E-05
   7.40520000       1.55473099E-05
   7.41720009       1.56890183E-05
   7.42920017       1.58148760E-05
   7.44119978       1.59338233E-05
   7.45319986       1.60533018E-05
   7.46519995       1.61788521E-05
   7.47720003       1.63138247E-05
   7.48920012       1.64591784E-05
   7.50120020       1.66134432E-05
   7.51319981       1.67727849E-05
   7.52519989       1.69312152E-05
   7.53719997       1.70809017E-05
   7.54920006       1.72125910E-05
   7.56120014       1.73161079E-05
   7.57320023       1.73809003E-05
   7.58519983       1.73966255E-05
   7.59719992       1.73537119E-05
   7.60920000       1.72439068E-05
   7.62120008       1.70607473E-05
   7.63320017       1.67999515E-05
   7.64519978       1.64597113E-05
   7.65719986       1.60408545E-05
   7.66919994       1.55468842E-05
   7.68120003       1.49838834E-05
   7.69320011       1.43603038E-05
   7.70520020       1.36866274E-05
   7.71719980       1.29749396E-05
   7.72919989       1.22384145E-05
   7.74119997       1.14907571E-05
   7.75320005       1.07456071E-05
   7.76520014       1.00159496E-05
   7.77720022       9.31355589E-06
   7.78919983       8.64847516E-06
   7.80119991       8.02860723E-06
   7.81320000       7.45937405E-06
   7.82520008       6.94351274E-06
   7.83720016       6.48099103E-06
   7.84919977       6.06905405E-06
   7.86119986       5.70240582E-06
   7.87319994       5.37351434E-06
   7.88520002       5.07302957E-06
   7.89720011       4.79029495E-06
   7.90920019       4.51393089E-06
   7.92119980       4.23246729E-06
   7.93319988       3.93499022E-06
   7.94519997       3.61177445E-06
   7.95720005       3.25486940E-06
   7.96920013       2.85861188E-06
   7.98120022       2.42002625E-06
   7.99319983       1.93909887E-06
   8.00520039       1.41889950E-06
   8.01720047       8.65541779E-07
   8.02919960       2.87973393E-07
   8.04119968      -3.02397154E-07
   8.05319977      -8.92227263E-07
   8.06519985      -1.46690161E-06
   8.07719994      -2.01129615E-06
   8.08920002      -2.51061579E-06
   8.10120010      -2.95126347E-06
   8.11320019      -3.32169338E-06
   8.12520027      -3.61321190E-06
   8.13720036      -3.82067446E-06
   8.14920044      -3.94303652E-06
   8.16119957      -3.98373004E-06
   8.17319965      -3.95082498E-06
   8.18519974      -3.85696694E-06
   8.19719982      -3.71907254E-06
   8.20919991      -3.55778980E-06
   8.22119999      -3.39673761E-06
   8.23320007      -3.26154827E-06
   8.24520016      -3.17875265E-06
   8.25720024      -3.17455101E-06
   8.26920033      -3.27353087E-06
   8.28120041      -3.49738571E-06
   8.29319954      -3.86370175E-06
   8.30519962      -4.38487359E-06
   8.31719971      -5.06721335E-06
   8.32919979      -5.91030312E-06
   8.34119987      -6.90662864E-06
   8.35319996      -8.04154388E-06
   8.36520004      -9.29355883E-06
   8.37720013      -1.06349653E-05
   8.38920021      -1.20327877E-05
   8.40120029      -1.34500024E-05
   8.41320038      -1.48469990E-05
   8.42520046      -1.61832104E-05
   8.43719959      -1.74188226E-05
   8.44919968      -1.85165136E-05
   8.46119976      -1.94430904E-05
   8.47319984      -2.01710009E-05
   8.48519993      -2.06795867E-05
   8.49720001      -2.09560549E-05
   8.50920010      -2.09960926E-05
   8.52120018      -2.08041074E-05
   8.53320026      -2.03930740E-05
   8.54520035      -1.97840072E-05
   8.55720043      -1.90050778E-05
   8.56919956      -1.80904044E-05
   8.58119965      -1.70786261E-05
   8.59319973      -1.60112741E-05
   8.60519981      -1.49310645E-05
   8.61719990      -1.38801588E-05
   8.62919998      -1.28985048E-05
   8.64120007      -1.20223049E-05
   8.65320015      -1.12826956E-05
   8.66520023      -1.07046790E-05
   8.67720032      -1.03063476E-05
   8.68920040      -1.00984307E-05
   8.70119953      -1.00841589E-05
   8.71319962      -1.02594504E-05
   8.72519970      -1.06133866E-05
   8.73719978      -1.11289501E-05
   8.74919987      -1.17839800E-05
   8.76119995      -1.25522965E-05
   8.77320004      -1.34049269E-05
   8.78520012      -1.43113957E-05
   8.79720020      -1.52410075E-05
   8.80920029      -1.61640710E-05
   8.82120037      -1.70530093E-05
   8.83320045      -1.78833361E-05
   8.84519958      -1.86344314E-05
   8.85719967      -1.92901171E-05
   8.86919975      -1.98389971E-05
   8.88119984      -2.02745923E-05
   8.89319992      -2.05952329E-05
   8.90520000      -2.08037527E-05
   8.91720009      -2.09070095E-05
   8.92920017      -2.09152531E-05
   8.94120026      -2.08413840E-05
   8.95320034      -2.07001576E-05
   8.96520042      -2.05073411E-05
   8.97719955      -2.02789342E-05
   8.98919964      -2.00304057E-05
   9.00119972      -1.97760692E-05
   9.01319981      -1.95285647E-05
   9.02519989      -1.92984971E-05
   9.03719997      -1.90942374E-05
   9.04920006      -1.89218645E-05
   9.06120014      -1.87852856E-05
   9.07320023      -1.86864709E-05
   9.08520031      -1.86257839E-05
   9.09720039      -1.86024154E-05
   9.10919952      -1.86148245E-05
   9.12119961      -1.86611833E-05
   9.13319969      -1.87398145E-05
   9.14519978      -1.88495233E-05
   9.15719986      -1.89898565E-05
   9.16919994      -1.91612489E-05
   9.18120003      -1.93650358E-05
   9.19320011      -1.96033434E-05
   9.20520020      -1.98788694E-05
   9.21720028      -2.01945550E-05
   9.22920036      -2.05531869E-05
   9.24120045      -2.09569698E-05
   9.25319958      -2.14070715E-05
   9.26519966      -2.19032099E-05
   9.27719975      -2.24433134E-05
   9.28919983      -2.30232617E-05
   9.30119991      -2.36367596E-05
   9.31320000      -2.42753540E-05
   9.32520008      -2.49285949E-05
   9.33720016      -2.55843352E-05
   9.34920025      -2.62291796E-05
   9.36120033      -2.68490330E-05
   9.37320042      -2.74297327E-05
   9.38519955      -2.79577198E-05
   9.39719963      -2.84207290E-05
   9.40919971      -2.88084102E-05
   9.42119980      -2.91129127E-05
   9.43319988      -2.93293306E-05
   9.44519997      -2.94560032E-05
