 -0.622799993       0.00000000    
 -0.610800028       0.00000000    
 -0.598800004       0.00000000    
 -0.586799979       0.00000000    
 -0.574800014       0.00000000    
 -0.562799990       0.00000000    
 -0.550800025       0.00000000    
 -0.538800001       0.00000000    
 -0.526799977       2.39520471E-37
 -0.514800012      -1.72933292E-32
 -0.502799988      -3.30697806E-31
 -0.490799993      -2.99468207E-30
 -0.478799999      -1.71345789E-29
 -0.466800004      -6.85940533E-29
 -0.454800010      -1.96293380E-28
 -0.442799985      -3.68283185E-28
 -0.430799991      -1.93834184E-28
 -0.418799996       1.61888664E-27
 -0.406800002       7.63312366E-27
 -0.394800007       2.03835957E-26
 -0.382800013       3.67520158E-26
 -0.370799989       3.61119168E-26
 -0.358799994      -3.36316518E-26
 -0.346799999      -2.54444275E-25
 -0.334800005      -6.87000917E-25
 -0.322800010      -1.23485732E-24
 -0.310799986      -1.43376534E-24
 -0.298799992      -2.92112851E-25
 -0.286799997       3.52484470E-24
 -0.274800003       1.07711273E-23
 -0.262800008       1.97383269E-23
 -0.250800014       2.38875949E-23
 -0.238800004       1.06900790E-23
 -0.226799995      -3.53610277E-23
 -0.214800000      -1.22462363E-22
 -0.202800006      -2.33405413E-22
 -0.190799996      -3.05475619E-22
 -0.178800002      -2.23178570E-22
 -0.166800007       1.54222686E-22
 -0.154799998       9.11161962E-22
 -0.142800003       1.94231762E-21
 -0.130799994       2.81195384E-21
 -0.118799999       2.70378503E-21
 -0.106799997       5.93227339E-22
  -9.48000029E-02  -4.25407276E-21
  -8.28000009E-02  -1.14819802E-20
  -7.07999989E-02  -1.87972351E-20
  -5.88000007E-02  -2.15980703E-20
  -4.67999987E-02  -1.37534949E-20
  -3.48000005E-02   9.94608916E-21
  -2.28000004E-02   4.97632955E-20
  -1.08000003E-02   9.65692782E-20
   1.20000006E-03   1.29325630E-19
   1.31999999E-02   1.17529311E-19
   2.52000000E-02   3.10638244E-20
   3.72000001E-02  -1.42563260E-19
   4.91999984E-02  -3.77845454E-19
   6.12000003E-02  -5.96818722E-19
   7.32000023E-02  -6.72628481E-19
   8.51999968E-02  -4.61685224E-19
   9.71999988E-02   1.33321559E-19
  0.109200001       1.08212729E-18
  0.121200003       2.15746095E-18
  0.133200005       2.92032083E-18
  0.145199999       2.80118924E-18
  0.157199994       1.29494577E-18
  0.169200003      -1.75859012E-18
  0.181199998      -5.89440881E-18
  0.193200007      -9.87609066E-18
  0.205200002      -1.18265652E-17
  0.217199996      -9.72486220E-18
  0.229200006      -2.23424006E-18
  0.241200000       1.03427893E-17
  0.253199995       2.53468124E-17
  0.265199989       3.77166599E-17
  0.277200013       4.09620700E-17
  0.289200008       2.92125848E-17
  0.301200002      -3.89262117E-20
  0.313199997      -4.33482147E-17
  0.325199991      -9.00403898E-17
  0.337199986      -1.23332338E-16
  0.349200010      -1.24403041E-16
  0.361200005      -7.89646200E-17
  0.373199999       1.53097930E-17
  0.385199994       1.43122853E-16
  0.397199988       2.70554076E-16
  0.409200013       3.50836150E-16
  0.421200007       3.37111040E-16
  0.433200002       1.99726438E-16
  0.445199996      -5.69343783E-17
  0.457199991      -3.84558834E-16
  0.469199985      -6.93849897E-16
  0.481200010      -8.73213571E-16
  0.493200004      -8.21107757E-16
  0.505200028      -4.84328622E-16
  0.517199993       1.09830745E-16
  0.529200017       8.40663683E-16
  0.541199982       1.50998118E-15
  0.553200006       1.88860183E-15
  0.565199971       1.78465840E-15
  0.577199996       1.11523217E-15
  0.589200020      -4.24956595E-17
  0.601199985      -1.44235142E-15
  0.613200009      -2.71410829E-15
  0.625199974      -3.45747520E-15
  0.637199998      -3.36256495E-15
  0.649200022      -2.32115276E-15
  0.661199987      -4.90216030E-16
  0.673200011       1.72053292E-15
  0.685199976       3.74358620E-15
  0.697200000       5.01011179E-15
  0.709200025       5.12307465E-15
  0.721199989       3.99076566E-15
  0.733200014       1.87174630E-15
  0.745199978      -6.92094210E-16
  0.757200003      -3.04025091E-15
  0.769200027      -4.60534100E-15
  0.781199992      -5.09878979E-15
  0.793200016      -4.59977176E-15
  0.805199981      -3.50623740E-15
  0.817200005      -2.35565368E-15
  0.829200029      -1.57580199E-15
  0.841199994      -1.26185367E-15
  0.853200018      -1.07961051E-15
  0.865199983      -3.59199436E-16
  0.877200007       1.62340154E-15
  0.889199972       5.25724085E-15
  0.901199996       1.02399820E-14
  0.913200021       1.54114189E-14
  0.925199986       1.88938153E-14
  0.937200010       1.85640399E-14
  0.949199975       1.27637658E-14
  0.961199999       1.04720981E-15
  0.973200023      -1.52885788E-14
  0.985199988      -3.31210347E-14
  0.997200012      -4.79890311E-14
   1.00919998      -5.51048363E-14
   1.02119994      -5.06695685E-14
   1.03320003      -3.31402013E-14
   1.04519999      -4.06087034E-15
   1.05719995       3.18465008E-14
   1.06920004       6.74511445E-14
   1.08120000       9.47193035E-14
   1.09319997       1.06607472E-13
   1.10520005       9.88527429E-14
   1.11720002       7.11655127E-14
   1.12919998       2.74709759E-14
   1.14119995      -2.48991959E-14
   1.15320003      -7.68674878E-14
   1.16520000      -1.19674819E-13
   1.17719996      -1.46773286E-13
   1.18920004      -1.55012532E-13
   1.20120001      -1.44791487E-13
   1.21319997      -1.19163319E-13
   1.22520006      -8.22181746E-14
   1.23720002      -3.73232430E-14
   1.24919999       1.41112123E-14
   1.26119995       7.27909283E-14
   1.27320004       1.40384544E-13
   1.28520000       2.17253109E-13
   1.29719996       2.99692888E-13
   1.30920005       3.77633526E-13
   1.32120001       4.33810052E-13
   1.33319998       4.45207808E-13
   1.34519994       3.87080369E-13
   1.35720003       2.39149304E-13
   1.36919999      -7.12686237E-15
   1.38119996      -3.41890633E-13
   1.39320004      -7.32733861E-13
   1.40520000      -1.12473236E-12
   1.41719997      -1.44564731E-12
   1.42920005      -1.61620966E-12
   1.44120002      -1.56420038E-12
   1.45319998      -1.23996256E-12
   1.46519995      -6.30334001E-13
   1.47720003       2.32038266E-13
   1.48920000       1.26636765E-12
   1.50119996       2.34950319E-12
   1.51320004       3.32937085E-12
   1.52520001       4.04414653E-12
   1.53719997       4.34416088E-12
   1.54920006       4.11315296E-12
   1.56120002       3.28588025E-12
   1.57319999       1.86007524E-12
   1.58519995      -9.79774123E-14
   1.59720004      -2.45382686E-12
   1.60920000      -5.01014724E-12
   1.62119997      -7.51590543E-12
   1.63320005      -9.67903015E-12
   1.64520001      -1.11831655E-11
   1.65719998      -1.17098779E-11
   1.66919994      -1.09678048E-11
   1.68120003      -8.72936272E-12
   1.69319999      -4.87373033E-12
   1.70519996       5.67819446E-13
   1.71720004       7.37084005E-12
   1.72920001       1.50895425E-11
   1.74119997       2.30507731E-11
   1.75320005       3.03780161E-11
   1.76520002       3.60499443E-11
   1.77719998       3.89930518E-11
   1.78919995       3.82020596E-11
   1.80120003       3.28761740E-11
   1.81320000       2.25550117E-11
   1.82519996       7.23588941E-12
   1.83720005      -1.25450700E-11
   1.84920001      -3.56821864E-11
   1.86119998      -6.05281797E-11
   1.87320006      -8.49821394E-11
   1.88520002      -1.06631454E-10
   1.89719999      -1.22935800E-10
   1.90919995      -1.31437375E-10
   1.92120004      -1.29980929E-10
   1.93320000      -1.16930299E-10
   1.94519997      -9.13732284E-11
   1.95720005      -5.33140268E-11
   1.96920002      -3.86039681E-12
   1.98119998       5.45846424E-11
   1.99319994       1.18115170E-10
   2.00519991       1.81095583E-10
   2.01719999       2.35925779E-10
   2.02920008       2.72831646E-10
   2.04119992       2.79740120E-10
   2.05320001       2.42327186E-10
   2.06520009       1.44349394E-10
   2.07719994      -3.16160327E-11
   2.08920002      -3.02904646E-10
   2.10120010      -6.84878321E-10
   2.11319995      -1.18838162E-09
   2.12520003      -1.81658122E-09
   2.13720012      -2.56133603E-09
   2.14919996      -3.39935591E-09
   2.16120005      -4.28853175E-09
   2.17319989      -5.16491472E-09
   2.18519998      -5.94087846E-09
   2.19720006      -6.50500054E-09
   2.20919991      -6.72409328E-09
   2.22119999      -6.44761666E-09
   2.23320007      -5.51434898E-09
   2.24519992      -3.76075926E-09
   2.25720000      -1.02985775E-09
   2.26920009       2.82133361E-09
   2.28119993       7.91837174E-09
   2.29320002       1.43735486E-08
   2.30520010       2.23017995E-08
   2.31719995       3.18531796E-08
   2.32920003       4.32670824E-08
   2.34120011       5.69533931E-08
   2.35319996       7.36053352E-08
   2.36520004       9.43479037E-08
   2.37719989       1.20924170E-07
   2.38919997       1.55919878E-07
   2.40120006       2.03023859E-07
   2.41319990       2.67318825E-07
   2.42519999       3.55593471E-07
   2.43720007       4.76663786E-07
   2.44919991       6.41686313E-07
   2.46120000       8.64444303E-07
   2.47320008       1.16158458E-06
   2.48519993       1.55278065E-06
   2.49720001       2.06079608E-06
   2.50920010       2.71142562E-06
   2.52119994       3.53329096E-06
   2.53320003       4.55747158E-06
   2.54520011       5.81696168E-06
   2.55719995       7.34594414E-06
   2.56920004       9.17888701E-06
   2.58119988       1.13494689E-05
   2.59319997       1.38893683E-05
   2.60520005       1.68269344E-05
   2.61719990       2.01857947E-05
   2.62919998       2.39834335E-05
   2.64120007       2.82298206E-05
   2.65319991       3.29261347E-05
   2.66520000       3.80636520E-05
   2.67720008       4.36228511E-05
   2.68919992       4.95728273E-05
   2.70120001       5.58710271E-05
   2.71320009       6.24633540E-05
   2.72519994       6.92847170E-05
   2.73720002       7.62599157E-05
   2.74920011       8.33050653E-05
   2.76119995       9.03292821E-05
   2.77320004       9.72367925E-05
   2.78520012       1.03929291E-04
   2.79719996       1.10308560E-04
   2.80920005       1.16279189E-04
   2.82119989       1.21751291E-04
   2.83319998       1.26643237E-04
   2.84520006       1.30884087E-04
   2.85719991       1.34415895E-04
   2.86919999       1.37195500E-04
   2.88120008       1.39196054E-04
   2.89319992       1.40407748E-04
   2.90520000       1.40838383E-04
   2.91720009       1.40512973E-04
   2.92919993       1.39473064E-04
   2.94120002       1.37775351E-04
   2.95320010       1.35489841E-04
   2.96519995       1.32697562E-04
   2.97720003       1.29488064E-04
   2.98920012       1.25956358E-04
   3.00119996       1.22200086E-04
   3.01320004       1.18316457E-04
   3.02519989       1.14399336E-04
   3.03719997       1.10536559E-04
   3.04920006       1.06807522E-04
   3.06119990       1.03281214E-04
   3.07319999       1.00014702E-04
   3.08520007       9.70520996E-05
   3.09719992       9.44241401E-05
   3.10920000       9.21481915E-05
   3.12120008       9.02289103E-05
   3.13319993       8.86592607E-05
   3.14520001       8.74219695E-05
   3.15720010       8.64913309E-05
   3.16919994       8.58352068E-05
   3.18120003       8.54171521E-05
   3.19320011       8.51985606E-05
   3.20519996       8.51407822E-05
   3.21720004       8.52069570E-05
   3.22919989       8.53637102E-05
   3.24119997       8.55824765E-05
   3.25320005       8.58403801E-05
   3.26519990       8.61208464E-05
   3.27719998       8.64137546E-05
   3.28920007       8.67151466E-05
   3.30119991       8.70266958E-05
   3.31320000       8.73547833E-05
   3.32520008       8.77094353E-05
   3.33719993       8.81029846E-05
   3.34920001       8.85487752E-05
   3.36120009       8.90598021E-05
   3.37319994       8.96474958E-05
   3.38520002       9.03205728E-05
   3.39720011       9.10841991E-05
   3.40919995       9.19393424E-05
   3.42120004       9.28824156E-05
   3.43319988       9.39052625E-05
   3.44519997       9.49953828E-05
   3.45720005       9.61364713E-05
   3.46919990       9.73091155E-05
   3.48119998       9.84917788E-05
   3.49320006       9.96618473E-05
   3.50519991       1.00796802E-04
   3.51719999       1.01875361E-04
   3.52920008       1.02878606E-04
   3.54119992       1.03790982E-04
   3.55320001       1.04601204E-04
   3.56520009       1.05302890E-04
   3.57719994       1.05895080E-04
   3.58920002       1.06382431E-04
   3.60120010       1.06775209E-04
   3.61319995       1.07089058E-04
   3.62520003       1.07344538E-04
   3.63720012       1.07566455E-04
   3.64919996       1.07783068E-04
   3.66120005       1.08025117E-04
   3.67319989       1.08324879E-04
   3.68519998       1.08715038E-04
   3.69720006       1.09227731E-04
   3.70919991       1.09893524E-04
   3.72119999       1.10740555E-04
   3.73320007       1.11793721E-04
   3.74519992       1.13074093E-04
   3.75720000       1.14598377E-04
   3.76920009       1.16378644E-04
   3.78119993       1.18422111E-04
   3.79320002       1.20731100E-04
   3.80520010       1.23303165E-04
   3.81719995       1.26131257E-04
   3.82920003       1.29203938E-04
   3.84120011       1.32505826E-04
   3.85319996       1.36017843E-04
   3.86520004       1.39717595E-04
   3.87719989       1.43579819E-04
   3.88919997       1.47576648E-04
   3.90120006       1.51677988E-04
   3.91319990       1.55851812E-04
   3.92519999       1.60064505E-04
   3.93720007       1.64281126E-04
   3.94919991       1.68465762E-04
   3.96120000       1.72581887E-04
   3.97320008       1.76592672E-04
   3.98519993       1.80461531E-04
   3.99720001       1.84152479E-04
   4.00920010       1.87630751E-04
   4.02120018       1.90863342E-04
   4.03319979       1.93819651E-04
   4.04519987       1.96472130E-04
   4.05719995       1.98796959E-04
   4.06920004       2.00774637E-04
   4.08120012       2.02390598E-04
   4.09320021       2.03635645E-04
   4.10519981       2.04506447E-04
   4.11719990       2.05005592E-04
   4.12919998       2.05141900E-04
   4.14120007       2.04930038E-04
   4.15320015       2.04390468E-04
   4.16520023       2.03548829E-04
   4.17719984       2.02435273E-04
   4.18919992       2.01083734E-04
   4.20120001       1.99530841E-04
   4.21320009       1.97815010E-04
   4.22520018       1.95975357E-04
   4.23719978       1.94050546E-04
   4.24919987       1.92077874E-04
   4.26119995       1.90092323E-04
   4.27320004       1.88125850E-04
   4.28520012       1.86206773E-04
   4.29720020       1.84359509E-04
   4.30919981       1.82604315E-04
   4.32119989       1.80957475E-04
   4.33319998       1.79431532E-04
   4.34520006       1.78035742E-04
   4.35720015       1.76776652E-04
   4.36920023       1.75658788E-04
   4.38119984       1.74685207E-04
   4.39319992       1.73858221E-04
   4.40520000       1.73179898E-04
   4.41720009       1.72652348E-04
   4.42920017       1.72278014E-04
   4.44119978       1.72059634E-04
   4.45319986       1.71999956E-04
   4.46519995       1.72101441E-04
   4.47720003       1.72365544E-04
   4.48920012       1.72792090E-04
   4.50120020       1.73378503E-04
   4.51319981       1.74118992E-04
   4.52519989       1.75003908E-04
   4.53719997       1.76019079E-04
   4.54920006       1.77145426E-04
   4.56120014       1.78358823E-04
   4.57320023       1.79630064E-04
   4.58519983       1.80925257E-04
   4.59719992       1.82206335E-04
   4.60920000       1.83431839E-04
   4.62120008       1.84557808E-04
   4.63320017       1.85538840E-04
   4.64519978       1.86329140E-04
   4.65719986       1.86883641E-04
   4.66919994       1.87158876E-04
   4.68120003       1.87113910E-04
   4.69320011       1.86710924E-04
   4.70520020       1.85915778E-04
   4.71719980       1.84698307E-04
   4.72919989       1.83032404E-04
   4.74119997       1.80896081E-04
   4.75320005       1.78271439E-04
   4.76520014       1.75144494E-04
   4.77720022       1.71505177E-04
   4.78919983       1.67347403E-04
   4.80119991       1.62669268E-04
   4.81320000       1.57473420E-04
   4.82520008       1.51767657E-04
   4.83720016       1.45565617E-04
   4.84919977       1.38887714E-04
   4.86119986       1.31762048E-04
   4.87319994       1.24225364E-04
   4.88520002       1.16323834E-04
   4.89720011       1.08113731E-04
   4.90920019       9.96616873E-05
   4.92119980       9.10445888E-05
   4.93319988       8.23489754E-05
   4.94519997       7.36699658E-05
   4.95720005       6.51095106E-05
   4.96920013       5.67742500E-05
   4.98120022       4.87728139E-05
   4.99319983       4.12127665E-05
   5.00519991       3.41973282E-05
   5.01719999       2.78219541E-05
   5.02920008       2.21710088E-05
   5.04120016       1.73146691E-05
   5.05319977       1.33062185E-05
   5.06519985       1.01799333E-05
   5.07719994       7.94961670E-06
   5.08920002       6.60791329E-06
   5.10120010       6.12643180E-06
   5.11320019       6.45667569E-06
   5.12519979       7.53174481E-06
   5.13719988       9.26872872E-06
   5.14919996       1.15716493E-05
   5.16120005       1.43348298E-05
   5.17320013       1.74465240E-05
   5.18520021       2.07926005E-05
   5.19719982       2.42601782E-05
   5.20919991       2.77409945E-05
   5.22119999       3.11344193E-05
   5.23320007       3.43499851E-05
   5.24520016       3.73093935E-05
   5.25719976       3.99479177E-05
   5.26919985       4.22152152E-05
   5.28119993       4.40756085E-05
   5.29320002       4.55078116E-05
   5.30520010       4.65042067E-05
   5.31720018       4.70697523E-05
   5.32919979       4.72205829E-05
   5.34119987       4.69824008E-05
   5.35319996       4.63886972E-05
   5.36520004       4.54789515E-05
   5.37720013       4.42967685E-05
   5.38920021       4.28880994E-05
   5.40119982       4.12995432E-05
   5.41319990       3.95767674E-05
   5.42519999       3.77630968E-05
   5.43720007       3.58983125E-05
   5.44920015       3.40176448E-05
   5.46120024       3.21510051E-05
   5.47319984       3.03225097E-05
   5.48519993       2.85502374E-05
   5.49720001       2.68462863E-05
   5.50920010       2.52171067E-05
   5.52120018       2.36640954E-05
   5.53319979       2.21844239E-05
   5.54519987       2.07720659E-05
   5.55719995       1.94189724E-05
   5.56920004       1.81163141E-05
   5.58120012       1.68557490E-05
   5.59320021       1.56305850E-05
   5.60519981       1.44368250E-05
   5.61719990       1.32739597E-05
   5.62919998       1.21454950E-05
   5.64120007       1.10591327E-05
   5.65320015       1.00266116E-05
   5.66520023       9.06319474E-06
   5.67719984       8.18682565E-06
   5.68919992       7.41701160E-06
   5.70120001       6.77350272E-06
   5.71320009       6.27485861E-06
   5.72520018       5.93699860E-06
   5.73719978       5.77184528E-06
   5.74919987       5.78616164E-06
   5.76119995       5.98066890E-06
   5.77320004       6.34951994E-06
   5.78520012       6.88017144E-06
   5.79720020       7.55367637E-06
   5.80919981       8.34537968E-06
   5.82119989       9.22598065E-06
   5.83319998       1.01628884E-05
   5.84520006       1.11217905E-05
   5.85720015       1.20683135E-05
   5.86920023       1.29696846E-05
   5.88119984       1.37962725E-05
   5.89319992       1.45229105E-05
   5.90520000       1.51299209E-05
   5.91720009       1.56037859E-05
   5.92920017       1.59374231E-05
   5.94119978       1.61300723E-05
   5.95319986       1.61868211E-05
   5.96519995       1.61178250E-05
   5.97720003       1.59372685E-05
   5.98920012       1.56622100E-05
   6.00120020       1.53113415E-05
   6.01319981       1.49038142E-05
   6.02519989       1.44581672E-05
   6.03719997       1.39914600E-05
   6.04920006       1.35186428E-05
   6.06120014       1.30521939E-05
   6.07320023       1.26020377E-05
   6.08519983       1.21756975E-05
   6.09719992       1.17786831E-05
   6.10920000       1.14150243E-05
   6.12120008       1.10879073E-05
   6.13320017       1.08003369E-05
   6.14519978       1.05557665E-05
   6.15719986       1.03586171E-05
   6.16919994       1.02146569E-05
   6.18120003       1.01311916E-05
   6.19320011       1.01170554E-05
   6.20520020       1.01823907E-05
   6.21719980       1.03382481E-05
   6.22919989       1.05960144E-05
   6.24119997       1.09667235E-05
   6.25320005       1.14602890E-05
   6.26520014       1.20847080E-05
   6.27720022       1.28452930E-05
   6.28919983       1.37439738E-05
   6.30119991       1.47787096E-05
   6.31320000       1.59430747E-05
   6.32520008       1.72260043E-05
   6.33720016       1.86117741E-05
   6.34919977       2.00801751E-05
   6.36119986       2.16069220E-05
   6.37319994       2.31642698E-05
   6.38520002       2.47218359E-05
   6.39720011       2.62475569E-05
   6.40920019       2.77088075E-05
   6.42119980       2.90735697E-05
   6.43319988       3.03116685E-05
   6.44519997       3.13959536E-05
   6.45720005       3.23034219E-05
   6.46920013       3.30162038E-05
   6.48120022       3.35223776E-05
   6.49319983       3.38165446E-05
   6.50519991       3.39001708E-05
   6.51719999       3.37816382E-05
   6.52920008       3.34760371E-05
   6.54120016       3.30046532E-05
   6.55319977       3.23942659E-05
   6.56519985       3.16761871E-05
   6.57719994       3.08851559E-05
   6.58920002       3.00581269E-05
   6.60120010       2.92330078E-05
   6.61320019       2.84473954E-05
   6.62519979       2.77373711E-05
   6.63719988       2.71363879E-05
   6.64919996       2.66743191E-05
   6.66120005       2.63766324E-05
   6.67320013       2.62637768E-05
   6.68520021       2.63507318E-05
   6.69719982       2.66467505E-05
   6.70919991       2.71552617E-05
   6.72119999       2.78739499E-05
   6.73320007       2.87949515E-05
   6.74520016       2.99052026E-05
   6.75719976       3.11868789E-05
   6.76919985       3.26179470E-05
   6.78119993       3.41727864E-05
   6.79320002       3.58229045E-05
   6.80520010       3.75376876E-05
   6.81720018       3.92852380E-05
   6.82919979       4.10332286E-05
   6.84119987       4.27497762E-05
   6.85319996       4.44043362E-05
   6.86520004       4.59685471E-05
   6.87720013       4.74170301E-05
   6.88920021       4.87281250E-05
   6.90119982       4.98845002E-05
   6.91319990       5.08736048E-05
   6.92519999       5.16880064E-05
   6.93720007       5.23255003E-05
   6.94920015       5.27890734E-05
   6.96120024       5.30866637E-05
   6.97319984       5.32307349E-05
   6.98519993       5.32377162E-05
   6.99720001       5.31272890E-05
   7.00920010       5.29215940E-05
   7.02120018       5.26443691E-05
   7.03319979       5.23200579E-05
   7.04519987       5.19729620E-05
   7.05719995       5.16263972E-05
   7.06920004       5.13019695E-05
   7.08120012       5.10189238E-05
   7.09320021       5.07936129E-05
   7.10519981       5.06391079E-05
   7.11719990       5.05649296E-05
   7.12919998       5.05768949E-05
   7.14120007       5.06770884E-05
   7.15320015       5.08640042E-05
   7.16520023       5.11326907E-05
   7.17719984       5.14750936E-05
   7.18919992       5.18804154E-05
   7.20120001       5.23355702E-05
   7.21320009       5.28257042E-05
   7.22520018       5.33347556E-05
   7.23719978       5.38460445E-05
   7.24919987       5.43428941E-05
   7.26119995       5.48092539E-05
   7.27320004       5.52303245E-05
   7.28520012       5.55931329E-05
   7.29720020       5.58870743E-05
   7.30919981       5.61044108E-05
   7.32119989       5.62406240E-05
   7.33319998       5.62947243E-05
   7.34520006       5.62694040E-05
   7.35720015       5.61710731E-05
   7.36920023       5.60097251E-05
   7.38119984       5.57987005E-05
   7.39319992       5.55542574E-05
   7.40520000       5.52950587E-05
   7.41720009       5.50414661E-05
   7.42920017       5.48148164E-05
   7.44119978       5.46365554E-05
   7.45319986       5.45273506E-05
   7.46519995       5.45062139E-05
   7.47720003       5.45896037E-05
   7.48920012       5.47906275E-05
   7.50120020       5.51183439E-05
   7.51319981       5.55771621E-05
   7.52519989       5.61664601E-05
   7.53719997       5.68803371E-05
   7.54920006       5.77075880E-05
   7.56120014       5.86319038E-05
   7.57320023       5.96322425E-05
   7.58519983       6.06834437E-05
   7.59719992       6.17569676E-05
   7.60920000       6.28218404E-05
   7.62120008       6.38457059E-05
   7.63320017       6.47959168E-05
   7.64519978       6.56407719E-05
   7.65719986       6.63506144E-05
   7.66919994       6.68990178E-05
   7.68120003       6.72637761E-05
   7.69320011       6.74278708E-05
   7.70520020       6.73801842E-05
   7.71719980       6.71160815E-05
   7.72919989       6.66377673E-05
   7.74119997       6.59543875E-05
   7.75320005       6.50819275E-05
   7.76520014       6.40428625E-05
   7.77720022       6.28655253E-05
   7.78919983       6.15833342E-05
   7.80119991       6.02337605E-05
   7.81320000       5.88571602E-05
   7.82520008       5.74954756E-05
   7.83720016       5.61908455E-05
   7.84919977       5.49841934E-05
   7.86119986       5.39138091E-05
   7.87319994       5.30140387E-05
   7.88520002       5.23140625E-05
   7.89720011       5.18368142E-05
   7.90920019       5.15982065E-05
   7.92119980       5.16064683E-05
   7.93319988       5.18618654E-05
   7.94519997       5.23566378E-05
   7.95720005       5.30752477E-05
   7.96920013       5.39949142E-05
   7.98120022       5.50863915E-05
   7.99319983       5.63150134E-05
   8.00520039       5.76418934E-05
   8.01720047       5.90252785E-05
   8.02919960       6.04220149E-05
   8.04119968       6.17890328E-05
   8.05319977       6.30848008E-05
   8.06519985       6.42707164E-05
   8.07719994       6.53123570E-05
   8.08920002       6.61805607E-05
   8.10120010       6.68523062E-05
   8.11320019       6.73113100E-05
   8.12520027       6.75484480E-05
   8.13720036       6.75618139E-05
   8.14920044       6.73566174E-05
   8.16119957       6.69448200E-05
   8.17319965       6.63445026E-05
   8.18519974       6.55791300E-05
   8.19719982       6.46766202E-05
   8.20919991       6.36683035E-05
   8.22119999       6.25878747E-05
   8.23320007       6.14702585E-05
   8.24520016       6.03505287E-05
   8.25720024       5.92628603E-05
   8.26920033       5.82395478E-05
   8.28120041       5.73101534E-05
   8.29319954       5.65007213E-05
   8.30519962       5.58331631E-05
   8.31719971       5.53247301E-05
   8.32919979       5.49876640E-05
   8.34119987       5.48289245E-05
   8.35319996       5.48501012E-05
   8.36520004       5.50474324E-05
   8.37720013       5.54119397E-05
   8.38920021       5.59297223E-05
   8.40120029       5.65823539E-05
   8.41320038       5.73474063E-05
   8.42520046       5.81991226E-05
   8.43719959       5.91091339E-05
   8.44919968       6.00473795E-05
   8.46119976       6.09830022E-05
   8.47319984       6.18853737E-05
   8.48519993       6.27251138E-05
   8.49720001       6.34751195E-05
   8.50920010       6.41115112E-05
   8.52120018       6.46145272E-05
   8.53320026       6.49692593E-05
   8.54520035       6.51662194E-05
   8.55720043       6.52016679E-05
   8.56919956       6.50777947E-05
   8.58119965       6.48025161E-05
   8.59319973       6.43891472E-05
   8.60519981       6.38557831E-05
   8.61719990       6.32244701E-05
   8.62919998       6.25202010E-05
   8.64120007       6.17698024E-05
   8.65320015       6.10007410E-05
   8.66520023       6.02399305E-05
   8.67720032       5.95125784E-05
   8.68920040       5.88411531E-05
   8.70119953       5.82445209E-05
   8.71319962       5.77372921E-05
   8.72519970       5.73294092E-05
   8.73719978       5.70259945E-05
   8.74919987       5.68274590E-05
   8.76119995       5.67298448E-05
   8.77320004       5.67254101E-05
   8.78520012       5.68033429E-05
   8.79720020       5.69506192E-05
   8.80920029       5.71529381E-05
   8.82120037       5.73956022E-05
   8.83320045       5.76644015E-05
   8.84519958       5.79463158E-05
   8.85719967       5.82301000E-05
   8.86919975       5.85066591E-05
   8.88119984       5.87692048E-05
   8.89319992       5.90132149E-05
   8.90520000       5.92361866E-05
   8.91720009       5.94372286E-05
   8.92920017       5.96165373E-05
   8.94120026       5.97748112E-05
   8.95320034       5.99126506E-05
   8.96520042       6.00299900E-05
   8.97719955       6.01256870E-05
   8.98919964       6.01972097E-05
   9.00119972       6.02405053E-05
   9.01319981       6.02500731E-05
   9.02519989       6.02192267E-05
   9.03719997       6.01404936E-05
   9.04920006       6.00061758E-05
   9.06120014       5.98089755E-05
   9.07320023       5.95426573E-05
   9.08520031       5.92026736E-05
   9.09720039       5.87867034E-05
   9.10919952       5.82950561E-05
   9.12119961       5.77309038E-05
   9.13319969       5.71002965E-05
   9.14519978       5.64120201E-05
   9.15719986       5.56772175E-05
   9.16919994       5.49089091E-05
   9.18120003       5.41213558E-05
   9.19320011       5.33294078E-05
   9.20520020       5.25478245E-05
   9.21720028       5.17906738E-05
   9.22920036       5.10708269E-05
   9.24120045       5.03996125E-05
   9.25319958       4.97866131E-05
   9.26519966       4.92396539E-05
   9.27719975       4.87649559E-05
   9.28919983       4.83674085E-05
   9.30119991       4.80509516E-05
   9.31320000       4.78189868E-05
   9.32520008       4.76748064E-05
   9.33720016       4.76219102E-05
   9.34920025       4.76642526E-05
   9.36120033       4.78063193E-05
   9.37320042       4.80530143E-05
   9.38519955       4.84093871E-05
   9.39719963       4.88801743E-05
   9.40919971       4.94692104E-05
   9.42119980       5.01787181E-05
   9.43319988       5.10085811E-05
   9.44519997       5.19556343E-05
