 -0.622799993       0.00000000    
 -0.610800028       0.00000000    
 -0.598800004       0.00000000    
 -0.586799979      -1.81481192E-15
 -0.574800014      -1.11814134E-14
 -0.562799990      -3.72832868E-14
 -0.550800025      -8.74603124E-14
 -0.538800001      -1.57576263E-13
 -0.526799977      -2.22036880E-13
 -0.514800012      -2.29779141E-13
 -0.502799988      -1.11913490E-13
 -0.490799993       1.97438040E-13
 -0.478799999       7.32025280E-13
 -0.466800004       1.46719171E-12
 -0.454800010       2.31051875E-12
 -0.442799985       3.12115633E-12
 -0.430799991       3.76184760E-12
 -0.418799996       4.17655060E-12
 -0.406800002       4.47578996E-12
 -0.394800007       5.00544354E-12
 -0.382800013       6.37562399E-12
 -0.370799989       9.43524685E-12
 -0.358799994       1.51931072E-11
 -0.346799999       2.47036176E-11
 -0.334800005       3.89497878E-11
 -0.322800010       5.87629112E-11
 -0.310799986       8.48145651E-11
 -0.298799992       1.17702126E-10
 -0.286799997       1.58126137E-10
 -0.274800003       2.07133213E-10
 -0.262800008       2.66376754E-10
 -0.250800014       3.38337969E-10
 -0.238800004       4.26454871E-10
 -0.226799995       5.35126887E-10
 -0.214800000       6.69595435E-10
 -0.202800006       8.35734870E-10
 -0.190799996       1.03981568E-09
 -0.178800002       1.28831379E-09
 -0.166800007       1.58782665E-09
 -0.154799998       1.94512939E-09
 -0.142800003       2.36735498E-09
 -0.130799994       2.86223956E-09
 -0.118799999       3.43834627E-09
 -0.106799997       4.10516110E-09
  -9.48000029E-02   4.87298069E-09
  -8.28000009E-02   5.75253933E-09
  -7.07999989E-02   6.75436640E-09
  -5.88000007E-02   7.88791166E-09
  -4.67999987E-02   9.16047060E-09
  -3.48000005E-02   1.05759801E-08
  -2.28000004E-02   1.21336701E-08
  -1.08000003E-02   1.38265737E-08
   1.20000006E-03   1.56398219E-08
   1.31999999E-02   1.75486914E-08
   2.52000000E-02   1.95163299E-08
   3.72000001E-02   2.14912887E-08
   4.91999984E-02   2.34050290E-08
   6.12000003E-02   2.51698253E-08
   7.32000023E-02   2.66777072E-08
   8.51999968E-02   2.78012529E-08
   9.71999988E-02   2.83971779E-08
  0.109200001       2.83136306E-08
  0.121200003       2.74018976E-08
  0.133200005       2.55327581E-08
  0.145199999       2.26170656E-08
  0.157199994       1.86293398E-08
  0.169200003       1.36323282E-08
  0.181199998       7.79972709E-09
  0.193200007       1.43382584E-09
  0.205200002      -5.02530817E-09
  0.217199996      -1.10021681E-08
  0.229200006      -1.58020939E-08
  0.241200000      -1.86429219E-08
  0.253199995      -1.87023126E-08
  0.265199989      -1.51797757E-08
  0.277200013      -7.37123074E-09
  0.289200008       5.24735455E-09
  0.301200002       2.29320172E-08
  0.313199997       4.55845885E-08
  0.325199991       7.26757392E-08
  0.337199986       1.03185883E-07
  0.349200010       1.35573586E-07
  0.361200005       1.67781181E-07
  0.373199999       1.97286184E-07
  0.385199994       2.21205170E-07
  0.397199988       2.36452649E-07
  0.409200013       2.39952897E-07
  0.421200007       2.28895971E-07
  0.433200002       2.01024022E-07
  0.445199996       1.54926767E-07
  0.457199991       9.03212296E-08
  0.469199985       8.28778646E-09
  0.481200010      -8.85665514E-08
  0.493200004      -1.96043970E-07
  0.505200028      -3.08412723E-07
  0.517199993      -4.18599598E-07
  0.529200017      -5.18522825E-07
  0.541199982      -5.99558973E-07
  0.553200006      -6.53124914E-07
  0.565199971      -6.71344765E-07
  0.577199996      -6.47757702E-07
  0.589200020      -5.78017193E-07
  0.601199985      -4.60522983E-07
  0.613200009      -2.96927141E-07
  0.625199974      -9.24589258E-08
  0.637199998       1.43979946E-07
  0.649200022       3.99983549E-07
  0.661199987       6.60090905E-07
  0.673200011       9.06513776E-07
  0.685199976       1.12011901E-06
  0.697200000       1.28162026E-06
  0.709200025       1.37291374E-06
  0.721199989       1.37847860E-06
  0.733200014       1.28674844E-06
  0.745199978       1.09135760E-06
  0.757200003       7.92167214E-07
  0.769200027       3.95984074E-07
  0.781199992      -8.30984206E-08
  0.793200016      -6.23786093E-07
  0.805199981      -1.19812069E-06
  0.817200005      -1.77246068E-06
  0.829200029      -2.30886963E-06
  0.841199994      -2.76685137E-06
  0.853200018      -3.10534119E-06
  0.865199983      -3.28484930E-06
  0.877200007      -3.26963254E-06
  0.889199972      -3.02977605E-06
  0.901199996      -2.54305519E-06
  0.913200021      -1.79647134E-06
  0.925199986      -7.87364627E-07
  0.937200010       4.75985075E-07
  0.949199975       1.97429767E-06
  0.961199999       3.67780785E-06
  0.973200023       5.54733651E-06
  0.985199988       7.53588620E-06
  0.997200012       9.59067529E-06
   1.00919998       1.16555375E-05
   1.02119994       1.36735498E-05
   1.03320003       1.55897760E-05
   1.04519999       1.73540011E-05
   1.05719995       1.89232869E-05
   1.06920004       2.02642586E-05
   1.08120000       2.13549920E-05
   1.09319997       2.21864011E-05
   1.10520005       2.27630389E-05
   1.11720002       2.31032718E-05
   1.12919998       2.32388265E-05
   1.14119995       2.32136499E-05
   1.15320003       2.30821970E-05
   1.16520000       2.29071375E-05
   1.17719996       2.27566197E-05
   1.18920004       2.27011806E-05
   1.20120001       2.28104200E-05
   1.21319997       2.31495978E-05
   1.22520006       2.37762597E-05
   1.23720002       2.47370663E-05
   1.24919999       2.60649376E-05
   1.26119995       2.77766321E-05
   1.27320004       2.98708983E-05
   1.28520000       3.23272507E-05
   1.29719996       3.51054696E-05
   1.30920005       3.81458376E-05
   1.32120001       4.13701491E-05
   1.33319998       4.46834601E-05
   1.34519994       4.79765258E-05
   1.35720003       5.11288526E-05
   1.36919999       5.40122564E-05
   1.38119996       5.64947804E-05
   1.39320004       5.84448935E-05
   1.40520000       5.97356920E-05
   1.41719997       6.02490836E-05
   1.42920005       5.98796869E-05
   1.44120002       5.85383750E-05
   1.45319998       5.61553061E-05
   1.46519995       5.26823351E-05
   1.47720003       4.80947383E-05
   1.48920000       4.23922102E-05
   1.50119996       3.55990996E-05
   1.51320004       2.77638956E-05
   1.52520001       1.89580551E-05
   1.53719997       9.27416113E-06
   1.54920006      -1.17640593E-06
   1.56120002      -1.22662623E-05
   1.57319999      -2.38551329E-05
   1.58519995      -3.57931531E-05
   1.59720004      -4.79243099E-05
   1.60920000      -6.00898238E-05
   1.62119997      -7.21315155E-05
   1.63320005      -8.38949491E-05
   1.64520001      -9.52323389E-05
   1.65719998      -1.06005195E-04
   1.66919994      -1.16086601E-04
   1.68120003      -1.25363178E-04
   1.69319999      -1.33736583E-04
   1.70519996      -1.41124692E-04
   1.71720004      -1.47462299E-04
   1.72920001      -1.52701541E-04
   1.74119997      -1.56811802E-04
   1.75320005      -1.59779360E-04
   1.76520002      -1.61606644E-04
   1.77719998      -1.62311160E-04
   1.78919995      -1.61924341E-04
   1.80120003      -1.60489988E-04
   1.81320000      -1.58062656E-04
   1.82519996      -1.54706111E-04
   1.83720005      -1.50491542E-04
   1.84920001      -1.45496000E-04
   1.86119998      -1.39800919E-04
   1.87320006      -1.33490714E-04
   1.88520002      -1.26651692E-04
   1.89719999      -1.19370961E-04
   1.90919995      -1.11735702E-04
   1.92120004      -1.03832484E-04
   1.93320000      -9.57468292E-05
   1.94519997      -8.75627884E-05
   1.95720005      -7.93626314E-05
   1.96920002      -7.12265319E-05
   1.98119998      -6.32322699E-05
   1.99319994      -5.54548606E-05
   2.00519991      -4.79660739E-05
   2.01719999      -4.08339038E-05
   2.02920008      -3.41219129E-05
   2.04119992      -2.78885072E-05
   2.05320001      -2.21861264E-05
   2.06520009      -1.70604126E-05
   2.07719994      -1.25493780E-05
   2.08920002      -8.68260759E-06
   2.10120010      -5.48052776E-06
   2.11319995      -2.95378800E-06
   2.12520003      -1.10276164E-06
   2.13720012       8.28011011E-08
   2.14919996       6.23930021E-07
   2.16120005       5.52423273E-07
   2.17319989      -8.93926995E-08
   2.18519998      -1.24911196E-06
   2.19720006      -2.86494310E-06
   2.20919991      -4.86663839E-06
   2.22119999      -7.17666717E-06
   2.23320007      -9.71163900E-06
   2.24519992      -1.23839463E-05
   2.25720000      -1.51036329E-05
   2.26920009      -1.77804322E-05
   2.28119993      -2.03259588E-05
   2.29320002      -2.26559987E-05
   2.30520010      -2.46928394E-05
   2.31719995      -2.63675556E-05
   2.32920003      -2.76222163E-05
   2.34120011      -2.84118832E-05
   2.35319996      -2.87063431E-05
   2.36520004      -2.84914695E-05
   2.37719989      -2.77701729E-05
   2.38919997      -2.65628205E-05
   2.40120006      -2.49071072E-05
   2.41319990      -2.28573517E-05
   2.42519999      -2.04831467E-05
   2.43720007      -1.78674672E-05
   2.44919991      -1.51041904E-05
   2.46120000      -1.22951460E-05
   2.47320008      -9.54674033E-06
   2.48519993      -6.96629195E-06
   2.49720001      -4.65819721E-06
   2.50920010      -2.72004627E-06
   2.52119994      -1.23884467E-06
   2.53320003      -2.87495254E-07
   2.54520011       7.83234881E-08
   2.55719995      -1.77243948E-07
   2.56920004      -1.06829873E-06
   2.58119988      -2.58599766E-06
   2.59319997      -4.69819452E-06
   2.60520005      -7.34995137E-06
   2.61719990      -1.04649325E-05
   2.62919998      -1.39476606E-05
   2.64120007      -1.76865578E-05
   2.65319991      -2.15576983E-05
   2.66520000      -2.54291244E-05
   2.67720008      -2.91655888E-05
   2.68919992      -3.26335139E-05
   2.70120001      -3.57060308E-05
   2.71320009      -3.82678445E-05
   2.72519994      -4.02197657E-05
   2.73720002      -4.14827045E-05
   2.74920011      -4.20010001E-05
   2.76119995      -4.17448537E-05
   2.77320004      -4.07118787E-05
   2.78520012      -3.89275738E-05
   2.79719996      -3.64447696E-05
   2.80920005      -3.33419957E-05
   2.82119989      -2.97208626E-05
   2.83319998      -2.57025185E-05
   2.84520006      -2.14233150E-05
   2.85719991      -1.70298645E-05
   2.86919999      -1.26736313E-05
   2.88120008      -8.50532342E-06
   2.89319992      -4.66924075E-06
   2.90520000      -1.29784326E-06
   2.91720009       1.49327218E-06
   2.92919993       3.60978629E-06
   2.94120002       4.98228928E-06
   2.95320010       5.56897976E-06
   2.96519995       5.35734216E-06
   2.97720003       4.36471146E-06
   2.98920012       2.63771381E-06
   3.00119996       2.50590233E-07
   3.01320004      -2.69753264E-06
   3.02519989      -6.08633673E-06
   3.03719997      -9.77883246E-06
   3.04920006      -1.36265380E-05
   3.06119990      -1.74751094E-05
   3.07319999      -2.11702318E-05
   3.08520007      -2.45635329E-05
   3.09719992      -2.75182647E-05
   3.10920000      -2.99145722E-05
   3.12120008      -3.16541009E-05
   3.13319993      -3.26637855E-05
   3.14520001      -3.28986607E-05
   3.15720010      -3.23435706E-05
   3.16919994      -3.10137366E-05
   3.18120003      -2.89541294E-05
   3.19320011      -2.62377052E-05
   3.20519996      -2.29625439E-05
   3.21720004      -1.92480256E-05
   3.22919989      -1.52301982E-05
   3.24119997      -1.10565061E-05
   3.25320005      -6.88013279E-06
   3.26519990      -2.85414467E-06
   3.27719998       8.74292368E-07
   3.28920007       4.16939656E-06
   3.30119991       6.91173000E-06
   3.31320000       9.00244413E-06
   3.32520008       1.03666353E-05
   3.33719993       1.09556913E-05
   3.34920001       1.07485621E-05
   3.36120009       9.75189960E-06
   3.37319994       7.99910867E-06
   3.38520002       5.54837243E-06
   3.39720011       2.47974049E-06
   3.40919995      -1.10853705E-06
   3.42120004      -5.10428481E-06
   3.43319988      -9.38605262E-06
   3.44519997      -1.38279502E-05
   3.45720005      -1.83044303E-05
   3.46919990      -2.26948123E-05
   3.48119998      -2.68873428E-05
   3.49320006      -3.07826485E-05
   3.50519991      -3.42964522E-05
   3.51719999      -3.73614348E-05
   3.52920008      -3.99282799E-05
   3.54119992      -4.19658027E-05
   3.55320001      -4.34603353E-05
   3.56520009      -4.44143989E-05
   3.57719994      -4.48447972E-05
   3.58920002      -4.47803068E-05
   3.60120010      -4.42591190E-05
   3.61319995      -4.33262067E-05
   3.62520003      -4.20308061E-05
   3.63720012      -4.04241109E-05
   3.64919996      -3.85573330E-05
   3.66120005      -3.64802108E-05
   3.67319989      -3.42399944E-05
   3.68519998      -3.18809070E-05
   3.69720006      -2.94440579E-05
   3.70919991      -2.69677312E-05
   3.72119999      -2.44879557E-05
   3.73320007      -2.20392049E-05
   3.74519992      -1.96551682E-05
   3.75720000      -1.73693770E-05
   3.76920009      -1.52156763E-05
   3.78119993      -1.32283640E-05
   3.79320002      -1.14419972E-05
   3.80520010      -9.89081491E-06
   3.81719995      -8.60778073E-06
   3.82920003      -7.62332138E-06
   3.84120011      -6.96379720E-06
   3.85319996      -6.64984873E-06
   3.86520004      -6.69470364E-06
   3.87719989      -7.10259519E-06
   3.88919997      -7.86741748E-06
   3.90120006      -8.97173049E-06
   3.91319990      -1.03862194E-05
   3.92519999      -1.20696877E-05
   3.93720007      -1.39696476E-05
   3.94919991      -1.60234758E-05
   3.96120000      -1.81601681E-05
   3.97320008      -2.03026229E-05
   3.98519993      -2.23703410E-05
   3.99720001      -2.42824772E-05
   4.00920010      -2.59610770E-05
   4.02120018      -2.73343539E-05
   4.03319979      -2.83398804E-05
   4.04519987      -2.89275013E-05
   4.05719995      -2.90618518E-05
   4.06920004      -2.87243492E-05
   4.08120012      -2.79145370E-05
   4.09320021      -2.66507159E-05
   4.10519981      -2.49698132E-05
   4.11719990      -2.29264660E-05
   4.12919998      -2.05913639E-05
   4.14120007      -1.80488587E-05
   4.15320015      -1.53940055E-05
   4.16520023      -1.27290677E-05
   4.17719984      -1.01596943E-05
   4.18919992      -7.79088532E-06
   4.20120001      -5.72293175E-06
   4.21320009      -4.04750062E-06
   4.22520018      -2.84402540E-06
   4.23719978      -2.17655725E-06
   4.24919987      -2.09120958E-06
   4.26119995      -2.61430773E-06
   4.27320004      -3.75131776E-06
   4.28520012      -5.48659500E-06
   4.29720020      -7.78395770E-06
   4.30919981      -1.05880508E-05
   4.32119989      -1.38264359E-05
   4.33319998      -1.74122943E-05
   4.34520006      -2.12476207E-05
   4.35720015      -2.52267600E-05
   4.36920023      -2.92401219E-05
   4.38119984      -3.31779338E-05
   4.39319992      -3.69338522E-05
   4.40520000      -4.04083257E-05
   4.41720009      -4.35115871E-05
   4.42920017      -4.61661366E-05
   4.44119978      -4.83087315E-05
   4.45319986      -4.98918234E-05
   4.46519995      -5.08843659E-05
   4.47720003      -5.12721490E-05
   4.48920012      -5.10575774E-05
   4.50120020      -5.02590301E-05
   4.51319981      -4.89098638E-05
   4.52519989      -4.70570958E-05
   4.53719997      -4.47598868E-05
   4.54920006      -4.20878496E-05
   4.56120014      -3.91192480E-05
   4.57320023      -3.59390979E-05
   4.58519983      -3.26372283E-05
   4.59719992      -2.93062767E-05
   4.60920000      -2.60396209E-05
   4.62120008      -2.29292746E-05
   4.63320017      -2.00637478E-05
   4.64519978      -1.75258647E-05
   4.65719986      -1.53906076E-05
   4.66919994      -1.37230199E-05
   4.68120003      -1.25762281E-05
   4.69320011      -1.19896404E-05
   4.70520020      -1.19874467E-05
   4.71719980      -1.25774577E-05
   4.72919989      -1.37503766E-05
   4.74119997      -1.54796016E-05
   4.75320005      -1.77215661E-05
   4.76520014      -2.04166663E-05
   4.77720022      -2.34908075E-05
   4.78919983      -2.68574659E-05
   4.80119991      -3.04202713E-05
   4.81320000      -3.40759871E-05
   4.82520008      -3.77177748E-05
   4.83720016      -4.12386071E-05
   4.84919977      -4.45346741E-05
   4.86119986      -4.75087145E-05
   4.87319994      -5.00730312E-05
   4.88520002      -5.21521470E-05
   4.89720011      -5.36850712E-05
   4.90920019      -5.46269366E-05
   4.92119980      -5.49501856E-05
   4.93319988      -5.46451047E-05
   4.94519997      -5.37199085E-05
   4.95720005      -5.22002374E-05
   4.96920013      -5.01282193E-05
   4.98120022      -4.75611268E-05
   4.99319983      -4.45697005E-05
   5.00519991      -4.12361915E-05
   5.01719999      -3.76521566E-05
   5.02920008      -3.39160761E-05
   5.04120016      -3.01308573E-05
   5.05319977      -2.64012087E-05
   5.06519985      -2.28309455E-05
   5.07719994      -1.95202902E-05
   5.08920002      -1.65631627E-05
   5.10120010      -1.40445572E-05
   5.11320019      -1.20380646E-05
   5.12519979      -1.06035786E-05
   5.13719988      -9.78531898E-06
   5.14919996      -9.61021306E-06
   5.16120005      -1.00867255E-05
   5.17320013      -1.12042253E-05
   5.18520021      -1.29329201E-05
   5.19719982      -1.52244111E-05
   5.20919991      -1.80128936E-05
   5.22119999      -2.12169853E-05
   5.23320007      -2.47421267E-05
   5.24520016      -2.84835169E-05
   5.25719976      -3.23294444E-05
   5.26919985      -3.61649109E-05
   5.28119993      -3.98753800E-05
   5.29320002      -4.33504792E-05
   5.30520010      -4.64875229E-05
   5.31720018      -4.91946485E-05
   5.32919979      -5.13935047E-05
   5.34119987      -5.30212674E-05
   5.35319996      -5.40320871E-05
   5.36520004      -5.43977367E-05
   5.37720013      -5.41076661E-05
   5.38920021      -5.31683290E-05
   5.40119982      -5.16020009E-05
   5.41319990      -4.94450869E-05
   5.42519999      -4.67460814E-05
   5.43720007      -4.35633083E-05
   5.44920015      -3.99625933E-05
   5.46120024      -3.60149097E-05
   5.47319984      -3.17942249E-05
   5.48519993      -2.73755759E-05
   5.49720001      -2.28334338E-05
   5.50920010      -1.82404328E-05
   5.52120018      -1.36664339E-05
   5.53319979      -9.17791931E-06
   5.54519987      -4.83765007E-06
   5.55719995      -7.04522279E-07
   5.56920004       3.16645310E-06
   5.58120012       6.72413080E-06
   5.59320021       9.92125115E-06
   5.60519981       1.27145522E-05
   5.61719990       1.50650267E-05
   5.62919998       1.69383256E-05
   5.64120007       1.83053235E-05
   5.65320015       1.91428189E-05
   5.66520023       1.94343156E-05
   5.67719984       1.91708295E-05
   5.68919992       1.83516786E-05
   5.70120001       1.69851282E-05
   5.71320009       1.50888936E-05
   5.72520018       1.26903878E-05
   5.73719978       9.82669098E-06
   5.74919987       6.54421228E-06
   5.76119995       2.89802438E-06
   5.77320004      -1.04912090E-06
   5.78520012      -5.22805794E-06
   5.79720020      -9.56473377E-06
   5.80919981      -1.39819349E-05
   5.82119989      -1.84011460E-05
   5.83319998      -2.27444852E-05
   5.84520006      -2.69366374E-05
   5.85720015      -3.09067145E-05
   5.86920023      -3.45899607E-05
   5.88119984      -3.79293160E-05
   5.89319992      -4.08766427E-05
   5.90520000      -4.33937857E-05
   5.91720009      -4.54531983E-05
   5.92920017      -4.70384039E-05
   5.94119978      -4.81440547E-05
   5.95319986      -4.87757134E-05
   5.96519995      -4.89493868E-05
   5.97720003      -4.86907666E-05
   5.98920012      -4.80342642E-05
   6.00120020      -4.70218183E-05
   6.01319981      -4.57015194E-05
   6.02519989      -4.41261254E-05
   6.03719997      -4.23514175E-05
   6.04920006      -4.04345774E-05
   6.06120014      -3.84325176E-05
   6.07320023      -3.64002917E-05
   6.08519983      -3.43896427E-05
   6.09719992      -3.24476678E-05
   6.10920000      -3.06157344E-05
   6.12120008      -2.89285927E-05
   6.13320017      -2.74137783E-05
   6.14519978      -2.60912475E-05
   6.15719986      -2.49733348E-05
   6.16919994      -2.40649442E-05
   6.18120003      -2.33640549E-05
   6.19320011      -2.28624467E-05
   6.20520020      -2.25466829E-05
   6.21719980      -2.23992593E-05
   6.22919989      -2.23998995E-05
   6.24119997      -2.25269196E-05
   6.25320005      -2.27585988E-05
   6.26520014      -2.30744627E-05
   6.27720022      -2.34564577E-05
   6.28919983      -2.38898938E-05
   6.30119991      -2.43641607E-05
   6.31320000      -2.48731449E-05
   6.32520008      -2.54153729E-05
   6.33720016      -2.59938151E-05
   6.34919977      -2.66154584E-05
   6.36119986      -2.72905781E-05
   6.37319994      -2.80318327E-05
   6.38520002      -2.88531974E-05
   6.39720011      -2.97688002E-05
   6.40920019      -3.07917471E-05
   6.42119980      -3.19329665E-05
   6.43319988      -3.32001982E-05
   6.44519997      -3.45971130E-05
   6.45720005      -3.61226412E-05
   6.46920013      -3.77705510E-05
   6.48120022      -3.95292373E-05
   6.49319983      -4.13817434E-05
   6.50519991      -4.33060377E-05
   6.51719999      -4.52754030E-05
   6.52920008      -4.72590364E-05
   6.54120016      -4.92227264E-05
   6.55319977      -5.11296312E-05
   6.56519985      -5.29410863E-05
   6.57719994      -5.46174597E-05
   6.58920002      -5.61190282E-05
   6.60120010      -5.74068399E-05
   6.61320019      -5.84436348E-05
   6.62519979      -5.91947464E-05
   6.63719988      -5.96290192E-05
   6.64919996      -5.97197759E-05
   6.66120005      -5.94457415E-05
   6.67320013      -5.87919822E-05
   6.68520021      -5.77507417E-05
   6.69719982      -5.63222384E-05
   6.70919991      -5.45152470E-05
   6.72119999      -5.23475392E-05
   6.73320007      -4.98460104E-05
   6.74520016      -4.70465820E-05
   6.75719976      -4.39937139E-05
   6.76919985      -4.07396146E-05
   6.78119993      -3.73431030E-05
   6.79320002      -3.38681348E-05
   6.80520010      -3.03820943E-05
   6.81720018      -2.69538232E-05
   6.82919979      -2.36515534E-05
   6.84119987      -2.05407759E-05
   6.85319996      -1.76821904E-05
   6.86520004      -1.51297900E-05
   6.87720013      -1.29292393E-05
   6.88920021      -1.11165782E-05
   6.90119982      -9.71735517E-06
   6.91319990      -8.74620036E-06
   6.92519999      -8.20685818E-06
   6.93720007      -8.09267021E-06
   6.94920015      -8.38744381E-06
   6.96120024      -9.06664263E-06
   6.97319984      -1.00988127E-05
   6.98519993      -1.14471477E-05
   6.99720001      -1.30710887E-05
   7.00920010      -1.49278758E-05
   7.02120018      -1.69739360E-05
   7.03319979      -1.91660802E-05
   7.04519987      -2.14624379E-05
   7.05719995      -2.38231132E-05
   7.06920004      -2.62105714E-05
   7.08120012      -2.85897895E-05
   7.09320021      -3.09281895E-05
   7.10519981      -3.31954689E-05
   7.11719990      -3.53633550E-05
   7.12919998      -3.74054143E-05
   7.14120007      -3.92968686E-05
   7.15320015      -4.10146495E-05
   7.16520023      -4.25375183E-05
   7.17719984      -4.38464522E-05
   7.18919992      -4.49250911E-05
   7.20120001      -4.57604110E-05
   7.21320009      -4.63433680E-05
   7.22520018      -4.66695892E-05
   7.23719978      -4.67399623E-05
   7.24919987      -4.65610756E-05
   7.26119995      -4.61454183E-05
   7.27320004      -4.55113295E-05
   7.28520012      -4.46826198E-05
   7.29720020      -4.36879018E-05
   7.30919981      -4.25596190E-05
   7.32119989      -4.13328416E-05
   7.33319998      -4.00439058E-05
   7.34520006      -3.87289074E-05
   7.35720015      -3.74222509E-05
   7.36920023      -3.61552775E-05
   7.38119984      -3.49550501E-05
   7.39319992      -3.38434184E-05
   7.40520000      -3.28364040E-05
   7.41720009      -3.19439205E-05
   7.42920017      -3.11698532E-05
   7.44119978      -3.05124795E-05
   7.45319986      -2.99652038E-05
   7.46519995      -2.95174923E-05
   7.47720003      -2.91559954E-05
   7.48920012      -2.88657266E-05
   7.50120020      -2.86312079E-05
   7.51319981      -2.84375510E-05
   7.52519989      -2.82713372E-05
   7.53719997      -2.81213161E-05
   7.54920006      -2.79788328E-05
   7.56120014      -2.78380212E-05
   7.57320023      -2.76957580E-05
   7.58519983      -2.75514067E-05
   7.59719992      -2.74064096E-05
   7.60920000      -2.72637626E-05
   7.62120008      -2.71274548E-05
   7.63320017      -2.70019154E-05
   7.64519978      -2.68915246E-05
   7.65719986      -2.68002459E-05
   7.66919994      -2.67313681E-05
   7.68120003      -2.66873994E-05
   7.69320011      -2.66700990E-05
   7.70520020      -2.66805928E-05
   7.71719980      -2.67195646E-05
   7.72919989      -2.67874530E-05
   7.74119997      -2.68846270E-05
   7.75320005      -2.70114979E-05
   7.76520014      -2.71685331E-05
   7.77720022      -2.73561691E-05
   7.78919983      -2.75746279E-05
   7.80119991      -2.78236785E-05
   7.81320000      -2.81023349E-05
   7.82520008      -2.84085709E-05
   7.83720016      -2.87390576E-05
   7.84919977      -2.90890330E-05
   7.86119986      -2.94522542E-05
   7.87319994      -2.98211544E-05
   7.88520002      -3.01871314E-05
   7.89720011      -3.05410431E-05
   7.90920019      -3.08738345E-05
   7.92119980      -3.11772965E-05
   7.93319988      -3.14448625E-05
   7.94519997      -3.16723817E-05
   7.95720005      -3.18588209E-05
   7.96920013      -3.20067629E-05
   7.98120022      -3.21226835E-05
   7.99319983      -3.22169290E-05
   8.00520039      -3.23033928E-05
   8.01720047      -3.23988606E-05
   8.02919960      -3.25220826E-05
   8.04119968      -3.26925947E-05
   8.05319977      -3.29294126E-05
   8.06519985      -3.32496165E-05
   8.07719994      -3.36669764E-05
   8.08920002      -3.41907071E-05
   8.10120010      -3.48244430E-05
   8.11320019      -3.55655102E-05
   8.12520027      -3.64045518E-05
   8.13720036      -3.73255789E-05
   8.14920044      -3.83064325E-05
   8.16119957      -3.93196242E-05
   8.17319965      -4.03335252E-05
   8.18519974      -4.13138732E-05
   8.19719982      -4.22253688E-05
   8.20919991      -4.30334512E-05
   8.22119999      -4.37059643E-05
   8.23320007      -4.42147284E-05
   8.24520016      -4.45368678E-05
   8.25720024      -4.46558697E-05
   8.26920033      -4.45622391E-05
   8.28120041      -4.42538294E-05
   8.29319954      -4.37357412E-05
   8.30519962      -4.30198743E-05
   8.31719971      -4.21241639E-05
   8.32919979      -4.10715293E-05
   8.34119987      -3.98886659E-05
   8.35319996      -3.86047177E-05
   8.36520004      -3.72499271E-05
   8.37720013      -3.58543512E-05
   8.38920021      -3.44467226E-05
   8.40120029      -3.30534167E-05
   8.41320038      -3.16977021E-05
   8.42520046      -3.03991364E-05
   8.43719959      -2.91732395E-05
   8.44919968      -2.80313325E-05
   8.46119976      -2.69805623E-05
   8.47319984      -2.60241104E-05
   8.48519993      -2.51615074E-05
   8.49720001      -2.43890554E-05
   8.50920010      -2.37003187E-05
   8.52120018      -2.30866644E-05
   8.53320026      -2.25378226E-05
   8.54520035      -2.20424517E-05
   8.55720043      -2.15886939E-05
   8.56919956      -2.11647293E-05
   8.58119965      -2.07593075E-05
   8.59319973      -2.03622603E-05
   8.60519981      -1.99649949E-05
   8.61719990      -1.95609719E-05
   8.62919998      -1.91461149E-05
   8.64120007      -1.87191890E-05
   8.65320015      -1.82820768E-05
   8.66520023      -1.78399441E-05
   8.67720032      -1.74012694E-05
   8.68920040      -1.69777413E-05
   8.70119953      -1.65839665E-05
   8.71319962      -1.62370416E-05
   8.72519970      -1.59559531E-05
   8.73719978      -1.57608574E-05
   8.74919987      -1.56722544E-05
   8.76119995      -1.57100894E-05
   8.77320004      -1.58928306E-05
   8.78520012      -1.62365559E-05
   8.79720020      -1.67541111E-05
   8.80920029      -1.74543602E-05
   8.82120037      -1.83415887E-05
   8.83320045      -1.94150889E-05
   8.84519958      -2.06689492E-05
   8.85719967      -2.20920465E-05
   8.86919975      -2.36682772E-05
   8.88119984      -2.53769467E-05
   8.89319992      -2.71933641E-05
   8.90520000      -2.90895478E-05
   8.91720009      -3.10350297E-05
   8.92920017      -3.29977302E-05
   8.94120026      -3.49448128E-05
   8.95320034      -3.68435467E-05
   8.96520042      -3.86621214E-05
   8.97719955      -4.03703925E-05
   8.98919964      -4.19405587E-05
   9.00119972      -4.33477580E-05
   9.01319981      -4.45706028E-05
   9.02519989      -4.55916197E-05
   9.03719997      -4.63976357E-05
   9.04920006      -4.69800943E-05
   9.06120014      -4.73352775E-05
   9.07320023      -4.74644912E-05
   9.08520031      -4.73741275E-05
   9.09720039      -4.70756167E-05
   9.10919952      -4.65852645E-05
   9.12119961      -4.59239418E-05
   9.13319969      -4.51165906E-05
   9.14519978      -4.41915690E-05
   9.15719986      -4.31798362E-05
   9.16919994      -4.21139339E-05
   9.18120003      -4.10268913E-05
   9.19320011      -3.99509918E-05
   9.20520020      -3.89165107E-05
   9.21720028      -3.79504927E-05
   9.22920036      -3.70755988E-05
   9.24120045      -3.63091203E-05
   9.25319958      -3.56622368E-05
   9.26519966      -3.51395029E-05
   9.27719975      -3.47387322E-05
   9.28919983      -3.44511682E-05
   9.30119991      -3.42620260E-05
   9.31320000      -3.41513696E-05
   9.32520008      -3.40952683E-05
   9.33720016      -3.40671577E-05
   9.34920025      -3.40394035E-05
   9.36120033      -3.39848593E-05
   9.37320042      -3.38784303E-05
   9.38519955      -3.36984922E-05
   9.39719963      -3.34281212E-05
   9.40919971      -3.30560142E-05
   9.42119980      -3.25770816E-05
   9.43319988      -3.19926876E-05
   9.44519997      -3.13105156E-05
