 -0.622799993       0.00000000    
 -0.610800028       0.00000000    
 -0.598800004       0.00000000    
 -0.586799979       4.23966989E-16
 -0.574800014       2.48350441E-15
 -0.562799990       7.82841741E-15
 -0.550800025       1.74640287E-14
 -0.538800001       3.09675381E-14
 -0.526799977       4.75673950E-14
 -0.514800012       6.98051236E-14
 -0.502799988       1.08264980E-13
 -0.490799993       1.83381142E-13
 -0.478799999       3.19509745E-13
 -0.466800004       5.28822049E-13
 -0.454800010       7.88132743E-13
 -0.442799985       1.01837115E-12
 -0.430799991       1.08037136E-12
 -0.418799996       7.98414286E-13
 -0.406800002       1.32328620E-14
 -0.394800007      -1.34869817E-12
 -0.382800013      -3.21697942E-12
 -0.370799989      -5.36396622E-12
 -0.358799994      -7.46319239E-12
 -0.346799999      -9.22597328E-12
 -0.334800005      -1.05942989E-11
 -0.322800010      -1.19425849E-11
 -0.310799986      -1.42289999E-11
 -0.298799992      -1.90464797E-11
 -0.286799997      -2.85532119E-11
 -0.274800003      -4.53023279E-11
 -0.262800008      -7.20275228E-11
 -0.250800014      -1.11458481E-10
 -0.238800004      -1.66230973E-10
 -0.226799995      -2.38922410E-10
 -0.214800000      -3.32197686E-10
 -0.202800006      -4.49007442E-10
 -0.190799996      -5.92759897E-10
 -0.178800002      -7.67393760E-10
 -0.166800007      -9.77304349E-10
 -0.154799998      -1.22711419E-09
 -0.142800003      -1.52130775E-09
 -0.130799994      -1.86375737E-09
 -0.118799999      -2.25716734E-09
 -0.106799997      -2.70244271E-09
  -9.48000029E-02  -3.19799653E-09
  -8.28000009E-02  -3.73901621E-09
  -7.07999989E-02  -4.31678027E-09
  -5.88000007E-02  -4.91815300E-09
  -4.67999987E-02  -5.52545210E-09
  -3.48000005E-02  -6.11687501E-09
  -2.28000004E-02  -6.66762690E-09
  -1.08000003E-02  -7.15179649E-09
   1.20000006E-03  -7.54487672E-09
   1.31999999E-02  -7.82675880E-09
   2.52000000E-02  -7.98488564E-09
   3.72000001E-02  -8.01730771E-09
   4.91999984E-02  -7.93538035E-09
   6.12000003E-02  -7.76587594E-09
   7.32000023E-02  -7.55233831E-09
   8.51999968E-02  -7.35539318E-09
   9.71999988E-02  -7.25167570E-09
  0.109200001      -7.33083905E-09
  0.121200003      -7.69013742E-09
  0.133200005      -8.42610870E-09
  0.145199999      -9.62324087E-09
  0.157199994      -1.13399796E-08
  0.169200003      -1.35932074E-08
  0.181199998      -1.63428719E-08
  0.193200007      -1.94791614E-08
  0.205200002      -2.28147119E-08
  0.217199996      -2.60843791E-08
  0.229200006      -2.89544104E-08
  0.241200000      -3.10421875E-08
  0.253199995      -3.19464455E-08
  0.265199989      -3.12868274E-08
  0.277200013      -2.87503603E-08
  0.289200008      -2.41415083E-08
  0.301200002      -1.74314820E-08
  0.313199997      -8.80176287E-09
  0.325199991       1.32358002E-09
  0.337199986       1.22625048E-08
  0.349200010       2.30819488E-08
  0.361200005       3.26317142E-08
  0.373199999       3.96085049E-08
  0.385199994       4.26508890E-08
  0.397199988       4.04633340E-08
  0.409200013       3.19636975E-08
  0.421200007       1.64448934E-08
  0.433200002      -6.26170182E-09
  0.445199996      -3.56368233E-08
  0.457199991      -7.03549645E-08
  0.469199985      -1.08214167E-07
  0.481200010      -1.46129466E-07
  0.493200004      -1.80201937E-07
  0.505200028      -2.05869270E-07
  0.517199993      -2.18136591E-07
  0.529200017      -2.11878415E-07
  0.541199982      -1.82192878E-07
  0.553200006      -1.24782460E-07
  0.565199971      -3.63268917E-08
  0.577199996       8.51902797E-08
  0.589200020       2.40242287E-07
  0.601199985       4.27645404E-07
  0.613200009       6.44603858E-07
  0.625199974       8.86939006E-07
  0.637199998       1.14951115E-06
  0.649200022       1.42682813E-06
  0.661199987       1.71382078E-06
  0.673200011       2.00673776E-06
  0.685199976       2.30410819E-06
  0.697200000       2.60769548E-06
  0.709200025       2.92336358E-06
  0.721199989       3.26177133E-06
  0.733200014       3.63881031E-06
  0.745199978       4.07572179E-06
  0.757200003       4.59883177E-06
  0.769200027       5.23887729E-06
  0.781199992       6.02992350E-06
  0.793200016       7.00789315E-06
  0.805199981       8.20876903E-06
  0.817200005       9.66655807E-06
  0.829200029       1.14111244E-05
  0.841199994       1.34660258E-05
  0.853200018       1.58464773E-05
  0.865199983       1.85576027E-05
  0.877200007       2.15930868E-05
  0.889199972       2.49343248E-05
  0.901199996       2.85502010E-05
  0.913200021       3.23974818E-05
  0.925199986       3.64218868E-05
  0.937200010       4.05597457E-05
  0.949199975       4.47402781E-05
  0.961199999       4.88882542E-05
  0.973200023       5.29270474E-05
  0.985199988       5.67818388E-05
  0.997200012       6.03828485E-05
   1.00919998       6.36684126E-05
   1.02119994       6.65878106E-05
   1.03320003       6.91035602E-05
   1.04519999       7.11933317E-05
   1.05719995       7.28510931E-05
   1.06920004       7.40876349E-05
   1.08120000       7.49304090E-05
   1.09319997       7.54226421E-05
   1.10520005       7.56219233E-05
   1.11720002       7.55980655E-05
   1.12919998       7.54306529E-05
   1.14119995       7.52060805E-05
   1.15320003       7.50143809E-05
   1.16520000       7.49459141E-05
   1.17719996       7.50880645E-05
   1.18920004       7.55219226E-05
   1.20120001       7.63192729E-05
   1.21319997       7.75398075E-05
   1.22520006       7.92287610E-05
   1.23720002       8.14149826E-05
   1.24919999       8.41094807E-05
   1.26119995       8.73045938E-05
   1.27320004       9.09736555E-05
   1.28520000       9.50712492E-05
   1.29719996       9.95341252E-05
   1.30920005       1.04282597E-04
   1.32120001       1.09222470E-04
   1.33319998       1.14247443E-04
   1.34519994       1.19242046E-04
   1.35720003       1.24084676E-04
   1.36919999       1.28651096E-04
   1.38119996       1.32817906E-04
   1.39320004       1.36466129E-04
   1.40520000       1.39484648E-04
   1.41719997       1.41773431E-04
   1.42920005       1.43246434E-04
   1.44120002       1.43834186E-04
   1.45319998       1.43485711E-04
   1.46519995       1.42170058E-04
   1.47720003       1.39877127E-04
   1.48920000       1.36617906E-04
   1.50119996       1.32424000E-04
   1.51320004       1.27346706E-04
   1.52520001       1.21455370E-04
   1.53719997       1.14835268E-04
   1.54920006       1.07585118E-04
   1.56120002       9.98142496E-05
   1.57319999       9.16394856E-05
   1.58519995       8.31819489E-05
   1.59720004       7.45638754E-05
   1.60920000       6.59055149E-05
   1.62119997       5.73222169E-05
   1.63320005       4.89218401E-05
   1.64520001       4.08025044E-05
   1.65719998       3.30508010E-05
   1.66919994       2.57404936E-05
   1.68120003       1.89317161E-05
   1.69319999       1.26707009E-05
   1.70519996       6.99005022E-06
   1.71720004       1.90942660E-06
   1.72920001      -2.56332260E-06
   1.74119997      -6.43070189E-06
   1.75320005      -9.70387646E-06
   1.76520002      -1.24008448E-05
   1.77719998      -1.45445802E-05
   1.78919995      -1.61612697E-05
   1.80120003      -1.72787186E-05
   1.81320000      -1.79250274E-05
   1.82519996      -1.81276064E-05
   1.83720005      -1.79125655E-05
   1.84920001      -1.73045082E-05
   1.86119998      -1.63267068E-05
   1.87320006      -1.50016122E-05
   1.88520002      -1.33516360E-05
   1.89719999      -1.14000923E-05
   1.90919995      -9.17221860E-06
   1.92120004      -6.69613337E-06
   1.93320000      -4.00364888E-06
   1.94519997      -1.13083354E-06
   1.95720005       1.88176205E-06
   1.96920002       4.98924646E-06
   1.98119998       8.14294435E-06
   1.99319994       1.12913222E-05
   2.00519991       1.43812922E-05
   2.01719999       1.73597837E-05
   2.02920008       2.01754992E-05
   2.04119992       2.27807523E-05
   2.05320001       2.51332440E-05
   2.06520009       2.71976733E-05
   2.07719994       2.89470699E-05
   2.08920002       3.03637553E-05
   2.10120010       3.14399040E-05
   2.11319995       3.21776315E-05
   2.12520003       3.25886685E-05
   2.13720012       3.26936351E-05
   2.14919996       3.25209621E-05
   2.16120005       3.21055377E-05
   2.17319989       3.14872195E-05
   2.18519998       3.07092014E-05
   2.19720006       2.98163886E-05
   2.20919991       2.88538740E-05
   2.22119999       2.78654970E-05
   2.23320007       2.68926487E-05
   2.24519992       2.59732678E-05
   2.25720000       2.51411075E-05
   2.26920009       2.44251914E-05
   2.28119993       2.38494868E-05
   2.29320002       2.34327363E-05
   2.30520010       2.31883878E-05
   2.31719995       2.31245940E-05
   2.32920003       2.32442580E-05
   2.34120011       2.35450771E-05
   2.35319996       2.40196186E-05
   2.36520004       2.46554064E-05
   2.37719989       2.54350889E-05
   2.38919997       2.63366783E-05
   2.40120006       2.73339174E-05
   2.41319990       2.83967838E-05
   2.42519999       2.94921610E-05
   2.43720007       3.05846916E-05
   2.44919991       3.16378282E-05
   2.46120000       3.26150184E-05
   2.47320008       3.34810793E-05
   2.48519993       3.42036365E-05
   2.49720001       3.47546593E-05
   2.50920010       3.51119270E-05
   2.52119994       3.52603820E-05
   2.53320003       3.51932613E-05
   2.54520011       3.49129150E-05
   2.55719995       3.44312139E-05
   2.56920004       3.37695019E-05
   2.58119988       3.29580143E-05
   2.59319997       3.20348081E-05
   2.60520005       3.10442338E-05
   2.61719990       3.00349784E-05
   2.62919998       2.90577918E-05
   2.64120007       2.81630728E-05
   2.65319991       2.73983351E-05
   2.66520000       2.68057938E-05
   2.67720008       2.64201699E-05
   2.68919992       2.62668527E-05
   2.70120001       2.63605452E-05
   2.71320009       2.67044852E-05
   2.72519994       2.72902653E-05
   2.73720002       2.80983331E-05
   2.74920011       2.90990720E-05
   2.76119995       3.02544559E-05
   2.77320004       3.15201250E-05
   2.78520012       3.28477981E-05
   2.79719996       3.41878149E-05
   2.80920005       3.54916883E-05
   2.82119989       3.67145258E-05
   2.83319998       3.78170480E-05
   2.84520006       3.87672771E-05
   2.85719991       3.95416464E-05
   2.86919999       4.01255238E-05
   2.88120008       4.05131723E-05
   2.89319992       4.07071420E-05
   2.90520000       4.07171683E-05
   2.91720009       4.05587016E-05
   2.92919993       4.02511796E-05
   2.94120002       3.98161865E-05
   2.95320010       3.92756374E-05
   2.96519995       3.86501415E-05
   2.97720003       3.79576377E-05
   2.98920012       3.72123868E-05
   3.00119996       3.64244152E-05
   3.01320004       3.55993325E-05
   3.02519989       3.47386886E-05
   3.03719997       3.38406535E-05
   3.04920006       3.29010545E-05
   3.06119990       3.19146384E-05
   3.07319999       3.08764793E-05
   3.08520007       2.97833376E-05
   3.09719992       2.86349732E-05
   3.10920000       2.74351878E-05
   3.12120008       2.61925688E-05
   3.13319993       2.49209115E-05
   3.14520001       2.36392152E-05
   3.15720010       2.23713268E-05
   3.16919994       2.11452225E-05
   3.18120003       1.99920069E-05
   3.19320011       1.89446673E-05
   3.20519996       1.80366551E-05
   3.21720004       1.73003900E-05
   3.22919989       1.67657763E-05
   3.24119997       1.64587636E-05
   3.25320005       1.64000685E-05
   3.26519990       1.66041100E-05
   3.27719998       1.70782023E-05
   3.28920007       1.78220544E-05
   3.30119991       1.88275753E-05
   3.31320000       2.00789855E-05
   3.32520008       2.15531982E-05
   3.33719993       2.32204693E-05
   3.34920001       2.50452395E-05
   3.36120009       2.69871362E-05
   3.37319994       2.90020998E-05
   3.38520002       3.10435862E-05
   3.39720011       3.30638140E-05
   3.40919995       3.50150331E-05
   3.42120004       3.68507826E-05
   3.43319988       3.85271051E-05
   3.44519997       4.00036697E-05
   3.45720005       4.12448280E-05
   3.46919990       4.22205267E-05
   3.48119998       4.29070678E-05
   3.49320006       4.32877277E-05
   3.50519991       4.33532150E-05
   3.51719999       4.31019398E-05
   3.52920008       4.25401013E-05
   3.54119992       4.16816438E-05
   3.55320001       4.05479805E-05
   3.56520009       3.91675894E-05
   3.57719994       3.75753771E-05
   3.58920002       3.58119105E-05
   3.60120010       3.39224607E-05
   3.61319995       3.19559003E-05
   3.62520003       2.99634667E-05
   3.63720012       2.79974265E-05
   3.64919996       2.61096666E-05
   3.66120005       2.43502564E-05
   3.67319989       2.27660039E-05
   3.68519998       2.13990861E-05
   3.69720006       2.02857645E-05
   3.70919991       1.94552449E-05
   3.72119999       1.89287402E-05
   3.73320007       1.87187252E-05
   3.74519992       1.88284885E-05
   3.75720000       1.92519510E-05
   3.76920009       1.99737515E-05
   3.78119993       2.09696609E-05
   3.79320002       2.22072595E-05
   3.80520010       2.36468786E-05
   3.81719995       2.52427835E-05
   3.82920003       2.69445627E-05
   3.84120011       2.86986669E-05
   3.85319996       3.04500845E-05
   3.86520004       3.21440712E-05
   3.87719989       3.37279052E-05
   3.88919997       3.51525741E-05
   3.90120006       3.63744221E-05
   3.91319990       3.73565781E-05
   3.92519999       3.80702295E-05
   3.93720007       3.84955965E-05
   3.94919991       3.86227039E-05
   3.96120000       3.84517371E-05
   3.97320008       3.79931334E-05
   3.98519993       3.72672839E-05
   3.99720001       3.63039180E-05
   4.00920010       3.51410927E-05
   4.02120018       3.38238933E-05
   4.03319979       3.24028442E-05
   4.04519987       3.09320385E-05
   4.05719995       2.94671136E-05
   4.06920004       2.80630939E-05
   4.08120012       2.67722044E-05
   4.09320021       2.56417807E-05
   4.10519981       2.47123135E-05
   4.11719990       2.40157624E-05
   4.12919998       2.35742300E-05
   4.14120007       2.33990613E-05
   4.15320015       2.34904201E-05
   4.16520023       2.38374214E-05
   4.17719984       2.44187686E-05
   4.18919992       2.52039445E-05
   4.20120001       2.61548485E-05
   4.21320009       2.72278394E-05
   4.22520018       2.83760619E-05
   4.23719978       2.95519385E-05
   4.24919987       3.07096670E-05
   4.26119995       3.18075945E-05
   4.27320004       3.28103342E-05
   4.28520012       3.36904486E-05
   4.29720020       3.44297005E-05
   4.30919981       3.50196970E-05
   4.32119989       3.54619442E-05
   4.33319998       3.57673489E-05
   4.34520006       3.59551414E-05
   4.35720015       3.60513550E-05
   4.36920023       3.60868980E-05
   4.38119984       3.60954073E-05
   4.39319992       3.61109524E-05
   4.40520000       3.61657803E-05
   4.41720009       3.62882165E-05
   4.42920017       3.65008455E-05
   4.44119978       3.68191322E-05
   4.45319986       3.72504837E-05
   4.46519995       3.77938886E-05
   4.47720003       3.84400519E-05
   4.48920012       3.91721042E-05
   4.50120020       3.99667188E-05
   4.51319981       4.07956395E-05
   4.52519989       4.16274197E-05
   4.53719997       4.24293430E-05
   4.54920006       4.31693625E-05
   4.56120014       4.38179122E-05
   4.57320023       4.43495592E-05
   4.58519983       4.47443599E-05
   4.59719992       4.49888867E-05
   4.60920000       4.50768675E-05
   4.62120008       4.50094085E-05
   4.63320017       4.47948587E-05
   4.64519978       4.44482612E-05
   4.65719986       4.39905198E-05
   4.66919994       4.34472713E-05
   4.68120003       4.28476087E-05
   4.69320011       4.22226658E-05
   4.70520020       4.16042167E-05
   4.71719980       4.10232860E-05
   4.72919989       4.05088940E-05
   4.74119997       4.00869831E-05
   4.75320005       3.97794902E-05
   4.76520014       3.96036994E-05
   4.77720022       3.95717761E-05
   4.78919983       3.96905489E-05
   4.80119991       3.99615128E-05
   4.81320000       4.03810118E-05
   4.82520008       4.09406093E-05
   4.83720016       4.16275907E-05
   4.84919977       4.24255668E-05
   4.86119986       4.33151581E-05
   4.87319994       4.42747150E-05
   4.88520002       4.52810891E-05
   4.89720011       4.63103315E-05
   4.90920019       4.73383843E-05
   4.92119980       4.83417607E-05
   4.93319988       4.92980980E-05
   4.94519997       5.01866634E-05
   4.95720005       5.09888159E-05
   4.96920013       5.16883229E-05
   4.98120022       5.22716327E-05
   4.99319983       5.27280317E-05
   5.00519991       5.30497673E-05
   5.01719999       5.32320482E-05
   5.02920008       5.32730373E-05
   5.04120016       5.31737351E-05
   5.05319977       5.29379176E-05
   5.06519985       5.25719952E-05
   5.07719994       5.20848480E-05
   5.08920002       5.14877320E-05
   5.10120010       5.07940895E-05
   5.11320019       5.00194074E-05
   5.12519979       4.91810570E-05
   5.13719988       4.82980577E-05
   5.14919996       4.73908949E-05
   5.16120005       4.64811783E-05
   5.17320013       4.55913505E-05
   5.18520021       4.47441998E-05
   5.19719982       4.39623946E-05
   5.20919991       4.32678899E-05
   5.22119999       4.26812512E-05
   5.23320007       4.22209669E-05
   5.24520016       4.19026801E-05
   5.25719976       4.17384726E-05
   5.26919985       4.17361662E-05
   5.28119993       4.18986965E-05
   5.29320002       4.22236517E-05
   5.30520010       4.27029627E-05
   5.31720018       4.33228051E-05
   5.32919979       4.40637305E-05
   5.34119987       4.49010768E-05
   5.35319996       4.58056202E-05
   5.36520004       4.67444879E-05
   5.37720013       4.76822861E-05
   5.38920021       4.85823584E-05
   5.40119982       4.94082160E-05
   5.41319990       5.01249997E-05
   5.42519999       5.07008299E-05
   5.43720007       5.11081817E-05
   5.44920015       5.13249688E-05
   5.46120024       5.13354535E-05
   5.47319984       5.11309008E-05
   5.48519993       5.07098521E-05
   5.49720001       5.00781898E-05
   5.50920010       4.92487889E-05
   5.52120018       4.82409632E-05
   5.53319979       4.70795749E-05
   5.54519987       4.57940077E-05
   5.55719995       4.44169455E-05
   5.56920004       4.29830907E-05
   5.58120012       4.15278664E-05
   5.59320021       4.00861609E-05
   5.60519981       3.86912252E-05
   5.61719990       3.73737166E-05
   5.62919998       3.61609345E-05
   5.64120007       3.50763221E-05
   5.65320015       3.41391133E-05
   5.66520023       3.33642529E-05
   5.67719984       3.27624221E-05
   5.68919992       3.23402455E-05
   5.70120001       3.21005646E-05
   5.71320009       3.20427425E-05
   5.72520018       3.21629959E-05
   5.73719978       3.24547036E-05
   5.74919987       3.29086470E-05
   5.76119995       3.35132136E-05
   5.77320004       3.42545318E-05
   5.78520012       3.51165436E-05
   5.79720020       3.60810736E-05
   5.80919981       3.71278693E-05
   5.82119989       3.82346589E-05
   5.83319998       3.93773007E-05
   5.84520006       4.05299543E-05
   5.85720015       4.16654511E-05
   5.86920023       4.27557170E-05
   5.88119984       4.37723720E-05
   5.89319992       4.46874546E-05
   5.90520000       4.54742258E-05
   5.91720009       4.61080272E-05
   5.92920017       4.65671401E-05
   5.94119978       4.68335602E-05
   5.95319986       4.68936487E-05
   5.96519995       4.67385835E-05
   5.97720003       4.63646247E-05
   5.98920012       4.57731112E-05
   6.00120020       4.49702311E-05
   6.01319981       4.39666037E-05
   6.02519989       4.27766572E-05
   6.03719997       4.14178940E-05
   6.04920006       3.99100754E-05
   6.06120014       3.82743747E-05
   6.07320023       3.65325614E-05
   6.08519983       3.47062560E-05
   6.09719992       3.28163078E-05
   6.10920000       3.08823255E-05
   6.12120008       2.89224117E-05
   6.13320017       2.69530738E-05
   6.14519978       2.49893401E-05
   6.15719986       2.30450096E-05
   6.16919994       2.11330480E-05
   6.18120003       1.92659973E-05
   6.19320011       1.74564248E-05
   6.20520020       1.57172872E-05
   6.21719980       1.40622024E-05
   6.22919989       1.25055994E-05
   6.24119997       1.10627125E-05
   6.25320005       9.74944396E-06
   6.26520014       8.58210387E-06
   6.27720022       7.57702219E-06
   6.28919983       6.75009323E-06
   6.30119991       6.11624682E-06
   6.31320000       5.68888845E-06
   6.32520008       5.47934542E-06
   6.33720016       5.49635524E-06
   6.34919977       5.74560181E-06
   6.36119986       6.22939888E-06
   6.37319994       6.94644950E-06
   6.38520002       7.89177557E-06
   6.39720011       9.05674824E-06
   6.40920019       1.04292139E-05
   6.42119980       1.19937094E-05
   6.43319988       1.37317102E-05
   6.44519997       1.56218775E-05
   6.45720005       1.76403555E-05
   6.46920013       1.97610370E-05
   6.48120022       2.19558642E-05
   6.49319983       2.41951730E-05
   6.50519991       2.64480859E-05
   6.51719999       2.86829872E-05
   6.52920008       3.08680719E-05
   6.54120016       3.29719478E-05
   6.55319977       3.49643124E-05
   6.56519985       3.68166511E-05
   6.57719994       3.85029380E-05
   6.58920002       4.00003519E-05
   6.60120010       4.12899426E-05
   6.61320019       4.23572274E-05
   6.62519979       4.31927001E-05
   6.63719988       4.37922063E-05
   6.64919996       4.41571756E-05
   6.66120005       4.42945857E-05
   6.67320013       4.42167620E-05
   6.68520021       4.39409123E-05
   6.69719982       4.34883768E-05
   6.70919991       4.28837229E-05
   6.72119999       4.21536388E-05
   6.73320007       4.13257476E-05
   6.74520016       4.04273524E-05
   6.75719976       3.94842682E-05
   6.76919985       3.85197454E-05
   6.78119993       3.75536001E-05
   6.79320002       3.66015993E-05
   6.80520010       3.56750752E-05
   6.81720018       3.47809146E-05
   6.82919979       3.39217586E-05
   6.84119987       3.30965704E-05
   6.85319996       3.23013883E-05
   6.86520004       3.15303114E-05
   6.87720013       3.07766131E-05
   6.88920021       3.00338725E-05
   6.90119982       2.92971181E-05
   6.91319990       2.85638325E-05
   6.92519999       2.78347707E-05
   6.93720007       2.71145145E-05
   6.94920015       2.64117316E-05
   6.96120024       2.57391130E-05
   6.97319984       2.51129841E-05
   6.98519993       2.45526553E-05
   6.99720001       2.40794798E-05
   7.00920010       2.37157892E-05
   7.02120018       2.34836789E-05
   7.03319979       2.34037816E-05
   7.04519987       2.34940762E-05
   7.05719995       2.37687946E-05
   7.06920004       2.42375045E-05
   7.08120012       2.49043896E-05
   7.09320021       2.57677730E-05
   7.10519981       2.68198964E-05
   7.11719990       2.80469649E-05
   7.12919998       2.94294587E-05
   7.14120007       3.09426541E-05
   7.15320015       3.25573601E-05
   7.16520023       3.42408093E-05
   7.17719984       3.59576661E-05
   7.18919992       3.76710814E-05
   7.20120001       3.93437913E-05
   7.21320009       4.09391869E-05
   7.22520018       4.24223108E-05
   7.23719978       4.37608360E-05
   7.24919987       4.49259023E-05
   7.26119995       4.58928589E-05
   7.27320004       4.66419333E-05
   7.28520012       4.71587082E-05
   7.29720020       4.74345579E-05
   7.30919981       4.74668741E-05
   7.32119989       4.72591491E-05
   7.33319998       4.68209764E-05
   7.34520006       4.61678210E-05
   7.35720015       4.53207285E-05
   7.36920023       4.43057870E-05
   7.38119984       4.31535555E-05
   7.39319992       4.18982854E-05
   7.40520000       4.05770770E-05
   7.41720009       3.92289403E-05
   7.42920017       3.78937693E-05
   7.44119978       3.66113127E-05
   7.45319986       3.54201038E-05
   7.46519995       3.43564243E-05
   7.47720003       3.34533106E-05
   7.48920012       3.27396483E-05
   7.50120020       3.22393389E-05
   7.51319981       3.19706342E-05
   7.52519989       3.19455758E-05
   7.53719997       3.21695952E-05
   7.54920006       3.26413210E-05
   7.56120014       3.33525350E-05
   7.57320023       3.42883432E-05
   7.58519983       3.54274962E-05
   7.59719992       3.67429348E-05
   7.60920000       3.82024518E-05
   7.62120008       3.97695294E-05
   7.63320017       4.14042661E-05
   7.64519978       4.30644432E-05
   7.65719986       4.47066159E-05
   7.66919994       4.62872777E-05
   7.68120003       4.77640388E-05
   7.69320011       4.90967868E-05
   7.70520020       5.02488474E-05
   7.71719980       5.11880171E-05
   7.72919989       5.18874913E-05
   7.74119997       5.23266499E-05
   7.75320005       5.24916613E-05
   7.76520014       5.23758463E-05
   7.77720022       5.19798341E-05
   7.78919983       5.13114610E-05
   7.80119991       5.03854717E-05
   7.81320000       4.92229810E-05
   7.82520008       4.78507573E-05
   7.83720016       4.63003526E-05
   7.84919977       4.46071062E-05
   7.86119986       4.28090752E-05
   7.87319994       4.09459317E-05
   7.88520002       3.90578425E-05
   7.89720011       3.71844289E-05
   7.90920019       3.53637588E-05
   7.92119980       3.36315388E-05
   7.93319988       3.20203835E-05
   7.94519997       3.05592876E-05
   7.95720005       2.92732693E-05
   7.96920013       2.81831290E-05
   7.98120022       2.73054175E-05
   7.99319983       2.66524457E-05
   8.00520039       2.62323720E-05
   8.01720047       2.60493598E-05
   8.02919960       2.61036985E-05
   8.04119968       2.63919337E-05
   8.05319977       2.69069642E-05
   8.06519985       2.76381070E-05
   8.07719994       2.85711521E-05
   8.08920002       2.96884245E-05
   8.10120010       3.09688985E-05
   8.11320019       3.23883469E-05
   8.12520027       3.39196122E-05
   8.13720036       3.55330085E-05
   8.14920044       3.71968126E-05
   8.16119957       3.88779590E-05
   8.17319965       4.05428073E-05
   8.18519974       4.21580698E-05
   8.19719982       4.36917617E-05
   8.20919991       4.51142623E-05
   8.22119999       4.63992874E-05
   8.23320007       4.75248162E-05
   8.24520016       4.84739030E-05
   8.25720024       4.92352483E-05
   8.26920033       4.98035442E-05
   8.28120041       5.01795112E-05
   8.29319954       5.03696647E-05
   8.30519962       5.03857445E-05
   8.31719971       5.02438998E-05
   8.32919979       4.99636517E-05
   8.34119987       4.95667191E-05
   8.35319996       4.90757702E-05
   8.36520004       4.85132296E-05
   8.37720013       4.79001574E-05
   8.38920021       4.72553729E-05
   8.40120029       4.65947014E-05
   8.41320038       4.59305920E-05
   8.42520046       4.52719869E-05
   8.43719959       4.46244339E-05
   8.44919968       4.39905270E-05
   8.46119976       4.33705573E-05
   8.47319984       4.27632767E-05
   8.48519993       4.21668483E-05
   8.49720001       4.15797585E-05
   8.50920010       4.10016437E-05
   8.52120018       4.04340390E-05
   8.53320026       3.98808625E-05
   8.54520035       3.93486371E-05
   8.55720043       3.88465087E-05
   8.56919956       3.83858787E-05
   8.58119965       3.79798985E-05
   8.59319973       3.76426506E-05
   8.60519981       3.73882613E-05
   8.61719990       3.72298491E-05
   8.62919998       3.71784663E-05
   8.64120007       3.72421018E-05
   8.65320015       3.74247538E-05
   8.66520023       3.77256983E-05
   8.67720032       3.81389655E-05
   8.68920040       3.86530810E-05
   8.70119953       3.92511211E-05
   8.71319962       3.99110395E-05
   8.72519970       4.06063118E-05
   8.73719978       4.13068119E-05
   8.74919987       4.19799071E-05
   8.76119995       4.25917096E-05
   8.77320004       4.31084227E-05
   8.78520012       4.34977264E-05
   8.79720020       4.37301496E-05
   8.80920029       4.37803792E-05
   8.82120037       4.36284536E-05
   8.83320045       4.32607776E-05
   8.84519958       4.26709194E-05
   8.85719967       4.18601740E-05
   8.86919975       4.08378073E-05
   8.88119984       3.96210417E-05
   8.89319992       3.82346916E-05
   8.90520000       3.67105495E-05
   8.91720009       3.50864648E-05
   8.92920017       3.34052165E-05
   8.94120026       3.17132217E-05
   8.95320034       3.00590455E-05
   8.96520042       2.84918515E-05
   8.97719955       2.70597993E-05
   8.98919964       2.58084237E-05
   9.00119972       2.47790776E-05
   9.01319981       2.40074824E-05
   9.02519989       2.35224361E-05
   9.03719997       2.33447627E-05
   9.04920006       2.34865020E-05
   9.06120014       2.39504297E-05
   9.07320023       2.47298631E-05
   9.08520031       2.58088185E-05
   9.09720039       2.71624594E-05
   9.10919952       2.87578532E-05
   9.12119961       3.05549656E-05
   9.13319969       3.25079127E-05
   9.14519978       3.45663757E-05
   9.15719986       3.66771928E-05
   9.16919994       3.87860091E-05
   9.18120003       4.08389860E-05
   9.19320011       4.27844643E-05
   9.20520020       4.45745027E-05
   9.21720028       4.61662967E-05
   9.22920036       4.75233210E-05
   9.24120045       4.86162426E-05
   9.25319958       4.94235173E-05
   9.26519966       4.99316920E-05
   9.27719975       5.01354261E-05
   9.28919983       5.00372407E-05
   9.30119991       4.96470238E-05
   9.31320000       4.89813101E-05
   9.32520008       4.80624622E-05
   9.33720016       4.69176412E-05
   9.34920025       4.55778172E-05
   9.36120033       4.40766926E-05
   9.37320042       4.24496466E-05
   9.38519955       4.07328262E-05
   9.39719963       3.89622655E-05
   9.40919971       3.71731876E-05
   9.42119980       3.53994219E-05
   9.43319988       3.36729681E-05
   9.44519997       3.20236686E-05
