 -0.622799993       0.00000000    
 -0.610800028       0.00000000    
 -0.598800004       0.00000000    
 -0.586799979       0.00000000    
 -0.574800014      -6.30807988E-25
 -0.562799990      -4.11204120E-24
 -0.550800025      -1.38702494E-23
 -0.538800001      -3.75616625E-23
 -0.526799977      -1.23896626E-22
 -0.514800012      -5.02618851E-22
 -0.502799988      -1.90013525E-21
 -0.490799993      -5.98749718E-21
 -0.478799999      -1.56463135E-20
 -0.466800004      -3.44477492E-20
 -0.454800010      -6.47888569E-20
 -0.442799985      -1.04924875E-19
 -0.430799991      -1.46697444E-19
 -0.418799996      -1.77276295E-19
 -0.406800002      -1.88066375E-19
 -0.394800007      -1.90478292E-19
 -0.382800013      -2.31560269E-19
 -0.370799989      -3.95682337E-19
 -0.358799994      -7.77598941E-19
 -0.346799999      -1.42333961E-18
 -0.334800005      -2.25934293E-18
 -0.322800010      -3.05792770E-18
 -0.310799986      -3.49930031E-18
 -0.298799992      -3.36506007E-18
 -0.286799997      -2.82633905E-18
 -0.274800003      -2.69008937E-18
 -0.262800008      -4.39206187E-18
 -0.250800014      -9.54523827E-18
 -0.238800004      -1.90195574E-17
 -0.226799995      -3.18278983E-17
 -0.214800000      -4.44128259E-17
 -0.202800006      -5.10745382E-17
 -0.190799996      -4.60529133E-17
 -0.178800002      -2.70904910E-17
 -0.166800007       6.95277255E-19
 -0.154799998       2.26996939E-17
 -0.142800003       1.67671380E-17
 -0.130799994      -3.94862077E-17
 -0.118799999      -1.56832597E-16
 -0.106799997      -3.21845018E-16
  -9.48000029E-02  -4.89712998E-16
  -8.28000009E-02  -5.88977584E-16
  -7.07999989E-02  -5.41913416E-16
  -5.88000007E-02  -2.98333686E-16
  -4.67999987E-02   1.26956554E-16
  -3.48000005E-02   6.28962991E-16
  -2.28000004E-02   1.01664886E-15
  -1.08000003E-02   1.05721846E-15
   1.20000006E-03   5.57604542E-16
   1.31999999E-02  -5.37406247E-16
   2.52000000E-02  -2.06596905E-15
   3.72000001E-02  -3.62923929E-15
   4.91999984E-02  -4.66011227E-15
   6.12000003E-02  -4.58310088E-15
   7.32000023E-02  -3.03134457E-15
   8.51999968E-02  -5.32631887E-17
   9.71999988E-02   3.77440592E-15
  0.109200001       7.39724884E-15
  0.121200003       9.52317703E-15
  0.133200005       9.01191641E-15
  0.145199999       5.30821191E-15
  0.157199994      -1.22758145E-15
  0.169200003      -9.23199844E-15
  0.181199998      -1.65751778E-14
  0.193200007      -2.09022354E-14
  0.205200002      -2.03480878E-14
  0.217199996      -1.42115188E-14
  0.229200006      -3.35486245E-15
  0.241200000       9.84352319E-15
  0.253199995       2.20271291E-14
  0.265199989       2.97715649E-14
  0.277200013       3.06106255E-14
  0.289200008       2.38563289E-14
  0.301200002       1.09290264E-14
  0.313199997      -4.94940452E-15
  0.325199991      -1.96496228E-14
  0.337199986      -2.93720601E-14
  0.349200010      -3.18553303E-14
  0.361200005      -2.71666539E-14
  0.373199999      -1.77882492E-14
  0.385199994      -7.90861703E-15
  0.397199988      -2.05893169E-15
  0.409200013      -3.43915430E-15
  0.421200007      -1.24023936E-14
  0.433200002      -2.55817841E-14
  0.445199996      -3.60468322E-14
  0.457199991      -3.46828177E-14
  0.469199985      -1.27205790E-14
  0.481200010       3.49637277E-14
  0.493200004       1.06470788E-13
  0.505200028       1.90370262E-13
  0.517199993       2.65129498E-13
  0.529200017       3.01424331E-13
  0.541199982       2.67827942E-13
  0.553200006       1.39571067E-13
  0.565199971      -9.10061821E-14
  0.577199996      -4.04796829E-13
  0.589200020      -7.50335232E-13
  0.601199985      -1.04559677E-12
  0.613200009      -1.18952417E-12
  0.625199974      -1.08349018E-12
  0.637199998      -6.59949797E-13
  0.649200022       8.76194055E-14
  0.661199987       1.08174938E-12
  0.673200011       2.15385197E-12
  0.685199976       3.05989067E-12
  0.697200000       3.52129979E-12
  0.709200025       3.28709477E-12
  0.721199989       2.20608796E-12
  0.733200014       2.92492484E-13
  0.745199978      -2.23406124E-12
  0.757200003      -4.95056470E-12
  0.769200027      -7.28363290E-12
  0.781199992      -8.61088284E-12
  0.793200016      -8.39514222E-12
  0.805199981      -6.32478098E-12
  0.817200005      -2.42746058E-12
  0.829200029       2.87389036E-12
  0.841199994       8.78432917E-12
  0.853200018       1.42444338E-11
  0.865199983       1.81076352E-11
  0.877200007       1.93548684E-11
  0.889199972       1.73026402E-11
  0.901199996       1.17592030E-11
  0.913200021       3.09321427E-12
  0.925199986      -7.80155801E-12
  0.937200010      -1.96380447E-11
  0.949199975      -3.09341337E-11
  0.961199999      -4.02322550E-11
  0.973200023      -4.62920605E-11
  0.985199988      -4.82178152E-11
  0.997200012      -4.55030839E-11
   1.00919998      -3.80006408E-11
   1.02119994      -2.58490469E-11
   1.03320003      -9.40086030E-12
   1.04519999       1.08026027E-11
   1.05719995       3.39798641E-11
   1.06920004       5.89755397E-11
   1.08120000       8.40661568E-11
   1.09319997       1.06748263E-10
   1.10520005       1.23558955E-10
   1.11720002       1.29966315E-10
   1.12919998       1.20339169E-10
   1.14119995       8.79647813E-11
   1.15320003       2.50444943E-11
   1.16520000      -7.74361270E-11
   1.17719996      -2.30078470E-10
   1.18920004      -4.45800424E-10
   1.20120001      -7.40998318E-10
   1.21319997      -1.13721144E-09
   1.22520006      -1.66330294E-09
   1.23720002      -2.35820696E-09
   1.24919999      -3.27428729E-09
   1.26119995      -4.48148185E-09
   1.27320004      -6.07255846E-09
   1.28520000      -8.16997403E-09
   1.29719996      -1.09351683E-08
   1.30920005      -1.45813575E-08
   1.32120001      -1.93912495E-08
   1.33319998      -2.57414730E-08
   1.34519994      -3.41356312E-08
   1.35720003      -4.52483491E-08
   1.36919999      -5.99823053E-08
   1.38119996      -7.95403707E-08
   1.39320004      -1.05514545E-07
   1.40520000      -1.39992196E-07
   1.41719997      -1.85679397E-07
   1.42920005      -2.46039548E-07
   1.44120002      -3.25443324E-07
   1.45319998      -4.29324814E-07
   1.46519995      -5.64335551E-07
   1.47720003      -7.38485994E-07
   1.48920000      -9.61262799E-07
   1.50119996      -1.24370797E-06
   1.51320004      -1.59844456E-06
   1.52520001      -2.03963396E-06
   1.53719997      -2.58285036E-06
   1.54920006      -3.24485723E-06
   1.56120002      -4.04327830E-06
   1.57319999      -4.99615726E-06
   1.58519995      -6.12140093E-06
   1.59720004      -7.43611872E-06
   1.60920000      -8.95586436E-06
   1.62119997      -1.06938032E-05
   1.63320005      -1.26598352E-05
   1.64520001      -1.48596973E-05
   1.65719998      -1.72941072E-05
   1.66919994      -1.99579663E-05
   1.68120003      -2.28396893E-05
   1.69319999      -2.59207045E-05
   1.70519996      -2.91751567E-05
   1.71720004      -3.25698747E-05
   1.72920001      -3.60646118E-05
   1.74119997      -3.96126088E-05
   1.75320005      -4.31614571E-05
   1.76520002      -4.66542842E-05
   1.77719998      -5.00312344E-05
   1.78919995      -5.32311751E-05
   1.80120003      -5.61936140E-05
   1.81320000      -5.88607763E-05
   1.82519996      -6.11796495E-05
   1.83720005      -6.31040384E-05
   1.84920001      -6.45964756E-05
   1.86119998      -6.56298289E-05
   1.87320006      -6.61886224E-05
   1.88520002      -6.62699313E-05
   1.89719999      -6.58837598E-05
   1.90919995      -6.50529255E-05
   1.92120004      -6.38123747E-05
   1.93320000      -6.22080188E-05
   1.94519997      -6.02950022E-05
   1.95720005      -5.81356435E-05
   1.96920002      -5.57969797E-05
   1.98119998      -5.33482016E-05
   1.99319994      -5.08579287E-05
   2.00519991      -4.83916192E-05
   2.01719999      -4.60091651E-05
   2.02920008      -4.37628223E-05
   2.04119992      -4.16955845E-05
   2.05320001      -3.98400516E-05
   2.06520009      -3.82179132E-05
   2.07719994      -3.68399706E-05
   2.08920002      -3.57067329E-05
   2.10120010      -3.48095564E-05
   2.11319995      -3.41321502E-05
   2.12520003      -3.36524608E-05
   2.13720012      -3.33447060E-05
   2.14919996      -3.31815063E-05
   2.16120005      -3.31359370E-05
   2.17319989      -3.31833799E-05
   2.18519998      -3.33031057E-05
   2.19720006      -3.34794604E-05
   2.20919991      -3.37026177E-05
   2.22119999      -3.39688704E-05
   2.23320007      -3.42804524E-05
   2.24519992      -3.46449051E-05
   2.25720000      -3.50740629E-05
   2.26920009      -3.55827287E-05
   2.28119993      -3.61870552E-05
   2.29320002      -3.69028457E-05
   2.30520010      -3.77437827E-05
   2.31719995      -3.87197324E-05
   2.32920003      -3.98351985E-05
   2.34120011      -4.10880857E-05
   2.35319996      -4.24687678E-05
   2.36520004      -4.39596151E-05
   2.37719989      -4.55349873E-05
   2.38919997      -4.71617423E-05
   2.40120006      -4.88002806E-05
   2.41319990      -5.04060699E-05
   2.42519999      -5.19316600E-05
   2.43720007      -5.33290731E-05
   2.44919991      -5.45524963E-05
   2.46120000      -5.55611514E-05
   2.47320008      -5.63221765E-05
   2.48519993      -5.68133801E-05
   2.49720001      -5.70257107E-05
   2.50920010      -5.69652620E-05
   2.52119994      -5.66546587E-05
   2.53320003      -5.61337147E-05
   2.54520011      -5.54592516E-05
   2.55719995      -5.47040509E-05
   2.56920004      -5.39548782E-05
   2.58119988      -5.33096827E-05
   2.59319997      -5.28740275E-05
   2.60520005      -5.27569064E-05
   2.61719990      -5.30661564E-05
   2.62919998      -5.39036118E-05
   2.64120007      -5.53603204E-05
   2.65319991      -5.75120102E-05
   2.66520000      -6.04150373E-05
   2.67720008      -6.41030492E-05
   2.68919992      -6.85845152E-05
   2.70120001      -7.38412418E-05
   2.71320009      -7.98279361E-05
   2.72519994      -8.64729227E-05
   2.73720002      -9.36797442E-05
   2.74920011      -1.01329781E-04
   2.76119995      -1.09285640E-04
   2.77320004      -1.17395015E-04
   2.78520012      -1.25495062E-04
   2.79719996      -1.33416775E-04
   2.80920005      -1.40989418E-04
   2.82119989      -1.48044550E-04
   2.83319998      -1.54419817E-04
   2.84520006      -1.59962059E-04
   2.85719991      -1.64529803E-04
   2.86919999      -1.67995226E-04
   2.88120008      -1.70245403E-04
   2.89319992      -1.71183201E-04
   2.90520000      -1.70727391E-04
   2.91720009      -1.68812956E-04
   2.92919993      -1.65390840E-04
   2.94120002      -1.60427822E-04
   2.95320010      -1.53906643E-04
   2.96519995      -1.45826139E-04
   2.97720003      -1.36201765E-04
   2.98920012      -1.25066392E-04
   3.00119996      -1.12471440E-04
   3.01320004      -9.84881262E-05
   3.02519989      -8.32088699E-05
   3.03719997      -6.67485874E-05
   3.04920006      -4.92458166E-05
   3.06119990      -3.08633680E-05
   3.07319999      -1.17883847E-05
   3.08520007       7.76838715E-06
   3.09719992       2.75742022E-05
   3.10920000       4.73769978E-05
   3.12120008       6.69090732E-05
   3.13319993       8.58918720E-05
   3.14520001       1.04041639E-04
   3.15720010       1.21075973E-04
   3.16919994       1.36720977E-04
   3.18120003       1.50718683E-04
   3.19320011       1.62834651E-04
   3.20519996       1.72865315E-04
   3.21720004       1.80644638E-04
   3.22919989       1.86049918E-04
   3.24119997       1.89006561E-04
   3.25320005       1.89491242E-04
   3.26519990       1.87533617E-04
   3.27719998       1.83216209E-04
   3.28920007       1.76672693E-04
   3.30119991       1.68084342E-04
   3.31320000       1.57675051E-04
   3.32520008       1.45704835E-04
   3.33719993       1.32462315E-04
   3.34920001       1.18256357E-04
   3.36120009       1.03407117E-04
   3.37319994       8.82370368E-05
   3.38520002       7.30619431E-05
   3.39720011       5.81826389E-05
   3.40919995       4.38772113E-05
   3.42120004       3.03943962E-05
   3.43319988       1.79480212E-05
   3.44519997       6.71277439E-06
   3.45720005      -3.17868808E-06
   3.46919990      -1.16372839E-05
   3.48119998      -1.86177094E-05
   3.49320006      -2.41173966E-05
   3.50519991      -2.81743050E-05
   3.51719999      -3.08637027E-05
   3.52920008      -3.22940723E-05
   3.54119992      -3.26022237E-05
   3.55320001      -3.19479150E-05
   3.56520009      -3.05079539E-05
   3.57719994      -2.84700800E-05
   3.58920002      -2.60267043E-05
   3.60120010      -2.33686878E-05
   3.61319995      -2.06793138E-05
   3.62520003      -1.81286159E-05
   3.63720012      -1.58682233E-05
   3.64919996      -1.40268839E-05
   3.66120005      -1.27068306E-05
   3.67319989      -1.19810957E-05
   3.68519998      -1.18919279E-05
   3.69720006      -1.24503540E-05
   3.70919991      -1.36369399E-05
   3.72119999      -1.54037371E-05
   3.73320007      -1.76773410E-05
   3.74519992      -2.03629370E-05
   3.75720000      -2.33491628E-05
   3.76920009      -2.65135623E-05
   3.78119993      -2.97283859E-05
   3.79320002      -3.28664464E-05
   3.80520010      -3.58067518E-05
   3.81719995      -3.84396590E-05
   3.82920003      -4.06712898E-05
   3.84120011      -4.24270256E-05
   3.85319996      -4.36539412E-05
   3.86520004      -4.43220924E-05
   3.87719989      -4.44246361E-05
   3.88919997      -4.39769210E-05
   3.90120006      -4.30145155E-05
   3.91319990      -4.15905270E-05
   3.92519999      -3.97722542E-05
   3.93720007      -3.76375028E-05
   3.94919991      -3.52707502E-05
   3.96120000      -3.27593589E-05
   3.97320008      -3.01900473E-05
   3.98519993      -2.76457595E-05
   3.99720001      -2.52029968E-05
   4.00920010      -2.29297220E-05
   4.02120018      -2.08837864E-05
   4.03319979      -1.91118870E-05
   4.04519987      -1.76489684E-05
   4.05719995      -1.65180081E-05
   4.06920004      -1.57300856E-05
   4.08120012      -1.52846915E-05
   4.09320021      -1.51701634E-05
   4.10519981      -1.53642632E-05
   4.11719990      -1.58348375E-05
   4.12919998      -1.65405963E-05
   4.14120007      -1.74320357E-05
   4.15320015      -1.84525416E-05
   4.16520023      -1.95397261E-05
   4.17719984      -2.06270633E-05
   4.18919992      -2.16458175E-05
   4.20120001      -2.25272797E-05
   4.21320009      -2.32052880E-05
   4.22520018      -2.36189371E-05
   4.23719978      -2.37153909E-05
   4.24919987      -2.34526324E-05
   4.26119995      -2.28020217E-05
   4.27320004      -2.17504312E-05
   4.28520012      -2.03018462E-05
   4.29720020      -1.84782275E-05
   4.30919981      -1.63195255E-05
   4.32119989      -1.38827963E-05
   4.33319998      -1.12403586E-05
   4.34520006      -8.47705360E-06
   4.35720015      -5.68670976E-06
   4.36920023      -2.96798567E-06
   4.38119984      -4.19791945E-07
   4.39319992       1.86343675E-06
   4.40520000       3.79635026E-06
   4.41720009       5.30688976E-06
   4.42920017       6.33983245E-06
   4.44119978       6.85944588E-06
   4.45319986       6.85108625E-06
   4.46519995       6.32164529E-06
   4.47720003       5.29879981E-06
   4.48920012       3.82914686E-06
   4.50120020       1.97531267E-06
   4.51319981      -1.87743964E-07
   4.52519989      -2.57700117E-06
   4.53719997      -5.10596146E-06
   4.54920006      -7.68923746E-06
   4.56120014      -1.02468830E-05
   4.57320023      -1.27081876E-05
   4.58519983      -1.50147425E-05
   4.59719992      -1.71226166E-05
   4.60920000      -1.90035244E-05
   4.62120008      -2.06450059E-05
   4.63320017      -2.20496222E-05
   4.64519978      -2.32333005E-05
   4.65719986      -2.42229617E-05
   4.66919994      -2.50536650E-05
   4.68120003      -2.57654192E-05
   4.69320011      -2.63999627E-05
   4.70520020      -2.69976663E-05
   4.71719980      -2.75947732E-05
   4.72919989      -2.82211149E-05
   4.74119997      -2.88984629E-05
   4.75320005      -2.96395192E-05
   4.76520014      -3.04476052E-05
   4.77720022      -3.13170203E-05
   4.78919983      -3.22339874E-05
   4.80119991      -3.31780902E-05
   4.81320000      -3.41240993E-05
   4.82520008      -3.50440205E-05
   4.83720016      -3.59092082E-05
   4.84919977      -3.66924614E-05
   4.86119986      -3.73699295E-05
   4.87319994      -3.79227349E-05
   4.88520002      -3.83382394E-05
   4.89720011      -3.86108877E-05
   4.90920019      -3.87426080E-05
   4.92119980      -3.87427790E-05
   4.93319988      -3.86277497E-05
   4.94519997      -3.84200066E-05
   4.95720005      -3.81470127E-05
   4.96920013      -3.78397744E-05
   4.98120022      -3.75313030E-05
   4.99319983      -3.72549548E-05
   5.00519991      -3.70428024E-05
   5.01719999      -3.69240879E-05
   5.02920008      -3.69238805E-05
   5.04120016      -3.70619127E-05
   5.05319977      -3.73517760E-05
   5.06519985      -3.78003933E-05
   5.07719994      -3.84078376E-05
   5.08920002      -3.91675203E-05
   5.10120010      -4.00667268E-05
   5.11320019      -4.10873981E-05
   5.12519979      -4.22072480E-05
   5.13719988      -4.34009999E-05
   5.14919996      -4.46418162E-05
   5.16120005      -4.59027324E-05
   5.17320013      -4.71580497E-05
   5.18520021      -4.83846234E-05
   5.19719982      -4.95629283E-05
   5.20919991      -5.06778415E-05
   5.22119999      -5.17190929E-05
   5.23320007      -5.26813601E-05
   5.24520016      -5.35639483E-05
   5.25719976      -5.43701099E-05
   5.26919985      -5.51060475E-05
   5.28119993      -5.57796229E-05
   5.29320002      -5.63988942E-05
   5.30520010      -5.69706026E-05
   5.31720018      -5.74986807E-05
   5.32919979      -5.79829248E-05
   5.34119987      -5.84179616E-05
   5.35319996      -5.87926152E-05
   5.36520004      -5.90897071E-05
   5.37720013      -5.92863871E-05
   5.38920021      -5.93550103E-05
   5.40119982      -5.92645047E-05
   5.41319990      -5.89822121E-05
   5.42519999      -5.84760637E-05
   5.43720007      -5.77169922E-05
   5.44920015      -5.66814197E-05
   5.46120024      -5.53536447E-05
   5.47319984      -5.37279448E-05
   5.48519993      -5.18102461E-05
   5.49720001      -4.96192224E-05
   5.50920010      -4.71866733E-05
   5.52120018      -4.45571495E-05
   5.53319979      -4.17868032E-05
   5.54519987      -3.89414490E-05
   5.55719995      -3.60939848E-05
   5.56920004      -3.33212411E-05
   5.58120012      -3.07004848E-05
   5.59320021      -2.83057416E-05
   5.60519981      -2.62041576E-05
   5.61719990      -2.44526418E-05
   5.62919998      -2.30949645E-05
   5.64120007      -2.21595092E-05
   5.65320015      -2.16578228E-05
   5.66520023      -2.15840300E-05
   5.67719984      -2.19151643E-05
   5.68919992      -2.26124030E-05
   5.70120001      -2.36230826E-05
   5.71320009      -2.48834167E-05
   5.72520018      -2.63217044E-05
   5.73719978      -2.78618500E-05
   5.74919987      -2.94269903E-05
   5.76119995      -3.09429852E-05
   5.77320004      -3.23416280E-05
   5.78520012      -3.35633740E-05
   5.79720020      -3.45594781E-05
   5.80919981      -3.52934803E-05
   5.82119989      -3.57419522E-05
   5.83319998      -3.58946236E-05
   5.84520006      -3.57538265E-05
   5.85720015      -3.53334544E-05
   5.86920023      -3.46574743E-05
   5.88119984      -3.37581769E-05
   5.89319992      -3.26742556E-05
   5.90520000      -3.14488570E-05
   5.91720009      -3.01276868E-05
   5.92920017      -2.87572802E-05
   5.94119978      -2.73834521E-05
   5.95319986      -2.60500019E-05
   5.96519995      -2.47976386E-05
   5.97720003      -2.36631295E-05
   5.98920012      -2.26786560E-05
   6.00120020      -2.18713194E-05
   6.01319981      -2.12627929E-05
   6.02519989      -2.08690490E-05
   6.03719997      -2.07002158E-05
   6.04920006      -2.07604571E-05
   6.06120014      -2.10479684E-05
   6.07320023      -2.15550335E-05
   6.08519983      -2.22682065E-05
   6.09719992      -2.31686026E-05
   6.10920000      -2.42323058E-05
   6.12120008      -2.54309343E-05
   6.13320017      -2.67323339E-05
   6.14519978      -2.81013599E-05
   6.15719986      -2.95007885E-05
   6.16919994      -3.08922426E-05
   6.18120003      -3.22371816E-05
   6.19320011      -3.34978176E-05
   6.20520020      -3.46380330E-05
   6.21719980      -3.56241726E-05
   6.22919989      -3.64257685E-05
   6.24119997      -3.70161251E-05
   6.25320005      -3.73728326E-05
   6.26520014      -3.74781557E-05
   6.27720022      -3.73193361E-05
   6.28919983      -3.68888868E-05
   6.30119991      -3.61847815E-05
   6.31320000      -3.52106290E-05
   6.32520008      -3.39758517E-05
   6.33720016      -3.24957800E-05
   6.34919977      -3.07917035E-05
   6.36119986      -2.88908468E-05
   6.37319994      -2.68261811E-05
   6.38520002      -2.46360778E-05
   6.39720011      -2.23637362E-05
   6.40920019      -2.00563463E-05
   6.42119980      -1.77640031E-05
   6.43319988      -1.55383441E-05
   6.44519997      -1.34309494E-05
   6.45720005      -1.14915829E-05
   6.46920013      -9.76631964E-06
   6.48120022      -8.29568580E-06
   6.49319983      -7.11291568E-06
   6.50519991      -6.24244240E-06
   6.51719999      -5.69874464E-06
   6.52920008      -5.48564594E-06
   6.54120016      -5.59614364E-06
   6.55319977      -6.01280908E-06
   6.56519985      -6.70876943E-06
   6.57719994      -7.64922697E-06
   6.58920002      -8.79344589E-06
   6.60120010      -1.00970719E-05
   6.61320019      -1.15146531E-05
   6.62519979      -1.30021881E-05
   6.63719988      -1.45195054E-05
   6.64919996      -1.60323489E-05
   6.66120005      -1.75139648E-05
   6.67320013      -1.89461116E-05
   6.68520021      -2.03194086E-05
   6.69719982      -2.16329936E-05
   6.70919991      -2.28935169E-05
   6.72119999      -2.41135585E-05
   6.73320007      -2.53095968E-05
   6.74520016      -2.64996816E-05
   6.75719976      -2.77010040E-05
   6.76919985      -2.89275595E-05
   6.78119993      -3.01880937E-05
   6.79320002      -3.14845020E-05
   6.80520010      -3.28107926E-05
   6.81720018      -3.41527266E-05
   6.82919979      -3.54881049E-05
   6.84119987      -3.67877583E-05
   6.85319996      -3.80170459E-05
   6.86520004      -3.91378708E-05
   6.87720013      -4.01109100E-05
   6.88920021      -4.08980304E-05
   6.90119982      -4.14645656E-05
   6.91319990      -4.17814408E-05
   6.92519999      -4.18268392E-05
   6.93720007      -4.15874856E-05
   6.94920015      -4.10592802E-05
   6.96120024      -4.02474616E-05
   6.97319984      -3.91661779E-05
   6.98519993      -3.78376390E-05
   6.99720001      -3.62908613E-05
   7.00920010      -3.45602239E-05
   7.02120018      -3.26838999E-05
   7.03319979      -3.07023256E-05
   7.04519987      -2.86567920E-05
   7.05719995      -2.65882791E-05
   7.06920004      -2.45365300E-05
   7.08120012      -2.25394451E-05
   7.09320021      -2.06326931E-05
   7.10519981      -1.88495706E-05
   7.11719990      -1.72209729E-05
   7.12919998      -1.57754312E-05
   7.14120007      -1.45391186E-05
   7.15320015      -1.35357523E-05
   7.16520023      -1.27863395E-05
   7.17719984      -1.23087284E-05
   7.18919992      -1.21169769E-05
   7.20120001      -1.22205602E-05
   7.21320009      -1.26234736E-05
   7.22520018      -1.33233189E-05
   7.23719978      -1.43104726E-05
   7.24919987      -1.55674352E-05
   7.26119995      -1.70684634E-05
   7.27320004      -1.87795777E-05
   7.28520012      -2.06589903E-05
   7.29720020      -2.26580087E-05
   7.30919981      -2.47223779E-05
   7.32119989      -2.67940577E-05
   7.33319998      -2.88133178E-05
   7.34520006      -3.07210976E-05
   7.35720015      -3.24614448E-05
   7.36920023      -3.39839607E-05
   7.38119984      -3.52460447E-05
   7.39319992      -3.62148567E-05
   7.40520000      -3.68688707E-05
   7.41720009      -3.71988899E-05
   7.42920017      -3.72085087E-05
   7.44119978      -3.69139598E-05
   7.45319986      -3.63433719E-05
   7.46519995      -3.55354532E-05
   7.47720003      -3.45377193E-05
   7.48920012      -3.34042925E-05
   7.50120020      -3.21934422E-05
   7.51319981      -3.09650022E-05
   7.52519989      -2.97777260E-05
   7.53719997      -2.86868017E-05
   7.54920006      -2.77415857E-05
   7.56120014      -2.69836655E-05
   7.57320023      -2.64453702E-05
   7.58519983      -2.61487257E-05
   7.59719992      -2.61049536E-05
   7.60920000      -2.63144630E-05
   7.62120008      -2.67673222E-05
   7.63320017      -2.74441936E-05
   7.64519978      -2.83176123E-05
   7.65719986      -2.93535522E-05
   7.66919994      -3.05132144E-05
   7.68120003      -3.17548584E-05
   7.69320011      -3.30356888E-05
   7.70520020      -3.43136307E-05
   7.71719980      -3.55489719E-05
   7.72919989      -3.67057619E-05
   7.74119997      -3.77530014E-05
   7.75320005      -3.86655229E-05
   7.76520014      -3.94245762E-05
   7.77720022      -4.00181780E-05
   7.78919983      -4.04411076E-05
   7.80119991      -4.06947365E-05
   7.81320000      -4.07865991E-05
   7.82520008      -4.07297557E-05
   7.83720016      -4.05420615E-05
   7.84919977      -4.02452497E-05
   7.86119986      -3.98639495E-05
   7.87319994      -3.94246163E-05
   7.88520002      -3.89544366E-05
   7.89720011      -3.84801788E-05
   7.90920019      -3.80270976E-05
   7.92119980      -3.76178250E-05
   7.93319988      -3.72713730E-05
   7.94519997      -3.70022317E-05
   7.95720005      -3.68196306E-05
   7.96920013      -3.67269786E-05
   7.98120022      -3.67215725E-05
   7.99319983      -3.67945322E-05
   8.00520039      -3.69310837E-05
   8.01720047      -3.71111128E-05
   8.02919960      -3.73100520E-05
   8.04119968      -3.75000418E-05
   8.05319977      -3.76513417E-05
   8.06519985      -3.77339456E-05
   8.07719994      -3.77192955E-05
   8.08920002      -3.75820418E-05
   8.10120010      -3.73017283E-05
   8.11320019      -3.68642941E-05
   8.12520027      -3.62633582E-05
   8.13720036      -3.55010707E-05
   8.14920044      -3.45886328E-05
   8.16119957      -3.35462464E-05
   8.17319965      -3.24026150E-05
   8.18519974      -3.11939257E-05
   8.19719982      -2.99623425E-05
   8.20919991      -2.87541116E-05
   8.22119999      -2.76173068E-05
   8.23320007      -2.65993949E-05
   8.24520016      -2.57446864E-05
   8.25720024      -2.50918529E-05
   8.26920033      -2.46716336E-05
   8.28120041      -2.45048814E-05
   8.29319954      -2.46010586E-05
   8.30519962      -2.49573168E-05
   8.31719971      -2.55582090E-05
   8.32919979      -2.63760739E-05
   8.34119987      -2.73721307E-05
   8.35319996      -2.84981907E-05
   8.36520004      -2.96989638E-05
   8.37720013      -3.09147945E-05
   8.38920021      -3.20847248E-05
   8.40120029      -3.31496922E-05
   8.41320038      -3.40556762E-05
   8.42520046      -3.47566129E-05
   8.43719959      -3.52169300E-05
   8.44919968      -3.54135227E-05
   8.46119976      -3.53370233E-05
   8.47319984      -3.49923394E-05
   8.48519993      -3.43983957E-05
   8.49720001      -3.35870682E-05
   8.50920010      -3.26014197E-05
   8.52120018      -3.14932877E-05
   8.53320026      -3.03204051E-05
   8.54520035      -2.91432407E-05
   8.55720043      -2.80216991E-05
   8.56919956      -2.70119344E-05
   8.58119965      -2.61634359E-05
   8.59319973      -2.55165705E-05
   8.60519981      -2.51007132E-05
   8.61719990      -2.49330697E-05
   8.62919998      -2.50182402E-05
   8.64120007      -2.53485141E-05
   8.65320015      -2.59048684E-05
   8.66520023      -2.66585557E-05
   8.67720032      -2.75731727E-05
   8.68920040      -2.86070263E-05
   8.70119953      -2.97156621E-05
   8.71319962      -3.08543385E-05
   8.72519970      -3.19803694E-05
   8.73719978      -3.30550902E-05
   8.74919987      -3.40454353E-05
   8.76119995      -3.49250186E-05
   8.77320004      -3.56746932E-05
   8.78520012      -3.62826358E-05
   8.79720020      -3.67439388E-05
   8.80920029      -3.70598573E-05
   8.82120037      -3.72367722E-05
   8.83320045      -3.72849863E-05
   8.84519958      -3.72174545E-05
   8.85719967      -3.70485832E-05
   8.86919975      -3.67931134E-05
   8.88119984      -3.64652660E-05
   8.89319992      -3.60780505E-05
   8.90520000      -3.56428900E-05
   8.91720009      -3.51694252E-05
   8.92920017      -3.46655579E-05
   8.94120026      -3.41376654E-05
   8.95320034      -3.35909062E-05
   8.96520042      -3.30295516E-05
   8.97719955      -3.24574139E-05
   8.98919964      -3.18781131E-05
   9.00119972      -3.12953744E-05
   9.01319981      -3.07131741E-05
   9.02519989      -3.01358286E-05
   9.03719997      -2.95679747E-05
   9.04920006      -2.90145035E-05
   9.06120014      -2.84804337E-05
   9.07320023      -2.79707729E-05
   9.08520031      -2.74903759E-05
   9.09720039      -2.70438322E-05
   9.10919952      -2.66353763E-05
   9.12119961      -2.62688372E-05
   9.13319969      -2.59476201E-05
   9.14519978      -2.56746935E-05
   9.15719986      -2.54526003E-05
   9.16919994      -2.52834416E-05
   9.18120003      -2.51688380E-05
   9.19320011      -2.51098627E-05
   9.20520020      -2.51069432E-05
   9.21720028      -2.51597321E-05
   9.22920036      -2.52669633E-05
   9.24120045      -2.54263305E-05
   9.25319958      -2.56343701E-05
   9.26519966      -2.58864238E-05
   9.27719975      -2.61766563E-05
   9.28919983      -2.64981591E-05
   9.30119991      -2.68431613E-05
   9.31320000      -2.72033121E-05
   9.32520008      -2.75700804E-05
   9.33720016      -2.79351643E-05
   9.34920025      -2.82909932E-05
   9.36120033      -2.86311770E-05
   9.37320042      -2.89509444E-05
   9.38519955      -2.92475015E-05
   9.39719963      -2.95202572E-05
   9.40919971      -2.97709339E-05
   9.42119980      -3.00035026E-05
   9.43319988      -3.02239605E-05
   9.44519997      -3.04399455E-05
